Title
81333
    1CHL1    C3    1   6.635   5.441  10.219 -0.2044  0.2562  0.0532
    1CHL1    H3    2   6.547   5.508  10.231 -1.2125 -0.8959 -0.5728
    1CHL1    O3    3   6.679   5.404  10.349  0.0788  0.4401  0.2128
    1CHL1   H3'    4   6.620   5.339  10.389  0.8805 -2.2947 -2.6863
    1CHL1    C4    5   6.577   5.313  10.159  0.5035  0.2428  0.0250
    1CHL1   H4A    6   6.657   5.236  10.149  2.5209  2.2439 -0.1544
    1CHL1   H4B    7   6.490   5.274  10.215  0.9471 -1.2583 -0.2975
    1CHL1    C5    8   6.531   5.337  10.020  0.4080 -0.9104 -0.5524
    1CHL1    C6    9   6.404   5.316   9.980  0.2439 -0.1150 -0.4286
    1CHL1    H6   10   6.325   5.294  10.054 -0.8943 -0.2448 -1.6310
    1CHL1    C7   11   6.351   5.330   9.841  0.2437  1.1321 -0.1576
    1CHL1   H7A   12   6.286   5.242   9.824 -0.0655  1.5246 -1.0804
    1CHL1   H7B   13   6.293   5.425   9.837 -0.9208  0.4307 -0.1649
    1CHL1    C8   14   6.469   5.340   9.742  0.5973 -0.1305 -0.0666
    1CHL1    H8   15   6.520   5.243   9.726 -0.0348 -0.1482 -2.2492
    1CHL1   C14   16   6.408   5.393   9.604 -1.0174  0.0607  0.2997
    1CHL1   H14   17   6.375   5.499   9.618 -1.2905  0.3170 -1.9481
    1CHL1   C15   18   6.293   5.314   9.540 -0.3742 -0.2180 -1.1324
    1CHL1  H15A   19   6.310   5.204   9.549  1.4961  0.1595  0.7467
    1CHL1  H15B   20   6.193   5.337   9.580 -0.3563 -0.0785 -1.1680
    1CHL1   C16   21   6.290   5.350   9.386  0.0647 -0.7125  0.9834
    1CHL1  H16A   22   6.293   5.254   9.331 -1.5976 -0.2582  0.0213
    1CHL1  H16B   23   6.193   5.404   9.373  1.8213  2.1954 -1.0865
    1CHL1   C17   24   6.421   5.437   9.367 -0.3462  0.1528  1.0128
    1CHL1   H17   25   6.393   5.545   9.366 -0.7733  0.1876 -3.3075
    1CHL1   C13   26   6.511   5.407   9.493 -0.3816  0.3241 -0.0112
    1CHL1   C18   27   6.594   5.271   9.472  0.5300  0.7312 -0.7008
    1CHL1  H18A   28   6.639   5.229   9.565 -0.8272  1.5150  0.3481
    1CHL1  H18B   29   6.518   5.195   9.445 -0.5496  1.7653 -0.6382
    1CHL1  H18C   30   6.673   5.270   9.393  0.9186  1.9540 -0.3491
    1CHL1   C12   31   6.618   5.505   9.536 -0.7470 -0.0736 -0.8190
    1CHL1  H12A   32   6.701   5.507   9.462 -1.3727  3.0235 -1.5815
    1CHL1  H12B   33   6.567   5.604   9.543 -2.2142 -0.6979 -2.1031
    1CHL1   C11   34   6.683   5.476   9.678  0.1665  0.4554 -0.3426
    1CHL1  H11A   35   6.744   5.385   9.661 -0.5795 -0.4862  1.6758
    1CHL1  H11B   36   6.753   5.558   9.705  2.0804 -1.2815  0.2047
    1CHL1    C9   37   6.577   5.440   9.788 -0.0055 -0.6340 -0.2605
    1CHL1    H9   38   6.530   5.538   9.812  1.9642  0.0297  1.1065
    1CHL1   C10   39   6.638   5.395   9.928 -0.3282 -0.9336 -0.4304
    1CHL1   C19   40   6.746   5.286   9.910 -0.0442  0.4159 -0.2881
    1CHL1  H19A   41   6.794   5.258  10.007 -0.3550  1.0277  0.0537
    1CHL1  H19B   42   6.700   5.201   9.855  0.4008  0.4527 -0.7147
    1CHL1  H19C   43   6.824   5.324   9.842  0.5630 -0.1439  0.0814
    1CHL1    C1   44   6.703   5.531   9.990  0.1862  0.5047 -0.4846
    1CHL1   H1A   45   6.798   5.556   9.938 -0.1179  0.3243 -1.1288
    1CHL1   H1B   46   6.640   5.622   9.984 -0.4104  0.2289  0.9713
    1CHL1    C2   47   6.745   5.510  10.132  0.2362 -0.4657 -0.8577
    1CHL1   H2A   48   6.761   5.600  10.194 -2.2276 -0.3290 -0.3178
    1CHL1   H2B   49   6.832   5.441  10.135  0.2246 -0.4447  0.1768
    1CHL1   C20   50   6.485   5.426   9.223  0.6148 -0.1196 -0.2991
    1CHL1   H20   51   6.537   5.329   9.213 -0.5072 -0.8224  0.5165
    1CHL1   C21   52   6.583   5.546   9.207 -0.2448 -0.1740  0.3994
    1CHL1  H21A   53   6.642   5.552   9.113 -0.3602  1.4551  0.4040
    1CHL1  H21B   54   6.659   5.564   9.286  1.8412  1.4881 -1.8436
    1CHL1  H21C   55   6.516   5.635   9.204  0.8431  0.6647 -2.4466
    1CHL1   C22   56   6.379   5.427   9.109 -0.4223  1.0351  0.5039
    1CHL1  H22A   57   6.312   5.338   9.113 -0.2942  0.9608  1.0318
    1CHL1  H22B   58   6.320   5.521   9.117 -0.3632  1.0333  0.9558
    1CHL1   C23   59   6.449   5.424   8.969  0.8567  0.3553 -0.1712
    1CHL1  H23A   60   6.451   5.530   8.936 -2.2880  0.5891  0.1303
    1CHL1  H23B   61   6.551   5.381   8.981  0.6387  0.2798  1.9340
    1CHL1   C24   62   6.360   5.348   8.856  0.3735  0.1882 -0.3426
    1CHL1  H24A   63   6.340   5.242   8.882 -0.3486  0.2841 -0.4790
    1CHL1  H24B   64   6.259   5.391   8.838 -0.2410 -1.9126 -2.3865
    1CHL1   C25   65   6.431   5.336   8.721 -0.2521 -0.1323  0.5805
    1CHL1   H25   66   6.522   5.275   8.736  0.1865  0.4043  0.1206
    1CHL1   C26   67   6.345   5.271   8.615 -0.1486  0.5966  0.3601
    1CHL1  H26A   68   6.398   5.237   8.523 -1.7543  0.4670 -0.5650
    1CHL1  H26B   69   6.297   5.178   8.652 -2.1493  1.6694  0.6128
    1CHL1  H26C   70   6.251   5.324   8.589 -1.3626 -1.4102  0.4539
    1CHL1   C27   71   6.483   5.469   8.663  0.1549 -0.2486  0.0453
    1CHL1  H27A   72   6.542   5.459   8.570  0.8965  0.3601  0.4356
    1CHL1  H27B   73   6.398   5.533   8.630  1.0438  0.8859 -0.1045
    1CHL1  H27C   74   6.541   5.521   8.743 -0.0367 -1.4415  0.9933
    2CHL1    C3   75   5.028   3.700  10.295 -0.8880 -0.0143  0.0795
    2CHL1    H3   76   5.026   3.811  10.294 -0.2320  0.0392  1.8006
    2CHL1    O3   77   5.064   3.658  10.427  0.4755 -0.2314  0.8586
    2CHL1   H3'   78   4.987   3.676  10.481 -1.4106  1.3361 -2.0668
    2CHL1    C4   79   4.899   3.634  10.248 -0.0452 -0.2964 -0.5675
    2CHL1   H4A   80   4.914   3.525  10.264 -0.2589 -0.3237 -0.5446
    2CHL1   H4B   81   4.817   3.662  10.318  0.1230 -0.5339 -0.2736
    2CHL1    C5   82   4.864   3.660  10.104  0.0422 -0.1985 -0.0514
    2CHL1    C6   83   4.745   3.710  10.075 -0.0579 -0.2831  0.4606
    2CHL1    H6   84   4.671   3.735  10.152  0.0165  1.9651 -0.1160
    2CHL1    C7   85   4.708   3.748   9.930  0.4655 -0.2491 -0.2530
    2CHL1   H7A   86   4.603   3.726   9.901  0.6656 -2.5026  0.5985
    2CHL1   H7B   87   4.714   3.857   9.909 -0.2146  0.0018  0.7621
    2CHL1    C8   88   4.793   3.679   9.827 -0.1330 -0.4275 -0.6285
    2CHL1    H8   89   4.753   3.576   9.833 -1.3673  0.0942  1.1364
    2CHL1   C14   90   4.772   3.738   9.687  0.5584 -0.0481 -0.1807
    2CHL1   H14   91   4.806   3.844   9.690  0.3743 -0.0018  0.3414
    2CHL1   C15   92   4.626   3.757   9.635  0.0998  0.2250 -0.4670
    2CHL1  H15A   93   4.566   3.665   9.648  2.4734 -1.5253 -1.1733
    2CHL1  H15B   94   4.584   3.845   9.688  0.9552  2.0087 -2.6059
    2CHL1   C16   95   4.652   3.791   9.488  0.6045  0.0847  0.6925
    2CHL1  H16A   96   4.586   3.722   9.432 -0.0137  0.2083  1.2603
    2CHL1  H16B   97   4.635   3.892   9.445  1.0026  0.3806  1.2233
    2CHL1   C17   98   4.799   3.760   9.455  0.2541 -0.2368  0.1031
    2CHL1   H17   99   4.849   3.859   9.457 -3.4279  1.8885 -2.0058
    2CHL1   C13  100   4.856   3.682   9.574 -0.7062 -0.4772  0.6740
    2CHL1   C18  101   4.822   3.535   9.557  0.5965  0.6768  0.3416
    2CHL1  H18A  102   4.893   3.484   9.489  2.6054  1.8974  1.4192
    2CHL1  H18B  103   4.838   3.478   9.651 -0.7764  0.8054  0.6707
    2CHL1  H18C  104   4.718   3.522   9.520  0.6355 -1.4262  0.8210
    2CHL1   C12  105   4.999   3.707   9.613 -0.0568  0.8361 -0.9824
    2CHL1  H12A  106   5.063   3.669   9.530  1.5404  1.2431  0.0107
    2CHL1  H12B  107   5.022   3.815   9.617 -0.2438  0.9132 -1.7690
    2CHL1   C11  108   5.039   3.640   9.748 -0.0121 -0.5781  0.3742
    2CHL1  H11A  109   5.044   3.529   9.736 -0.6362 -0.6268  0.5409
    2CHL1  H11B  110   5.142   3.674   9.771 -1.1753  2.8355  1.1311
    2CHL1    C9  111   4.943   3.684   9.870 -0.3877 -0.2357 -0.0170
    2CHL1    H9  112   4.955   3.795   9.867 -1.5684 -0.1001 -0.2942
    2CHL1   C10  113   4.973   3.627  10.008  0.0880  0.3314  0.0990
    2CHL1   C19  114   4.985   3.474   9.995 -0.4780  0.0659 -0.0005
    2CHL1  H19A  115   5.065   3.449   9.922 -2.7447 -0.4703 -2.5051
    2CHL1  H19B  116   4.996   3.413  10.087 -0.4773  1.3450  0.8596
    2CHL1  H19C  117   4.899   3.432   9.937 -0.6330 -1.4142  1.2460
    2CHL1    C1  118   5.109   3.684  10.065  0.4615  0.2522  0.3202
    2CHL1   H1A  119   5.189   3.651   9.995  1.4442  0.2146  1.4213
    2CHL1   H1B  120   5.105   3.795  10.074 -0.4142  0.1113  2.0169
    2CHL1    C2  121   5.139   3.636  10.204 -0.6967  0.2085 -0.1636
    2CHL1   H2A  122   5.235   3.673  10.246 -0.9635  0.9747 -0.2170
    2CHL1   H2B  123   5.132   3.526  10.217 -1.1054  0.3323  0.7826
    2CHL1   C20  124   4.812   3.692   9.311  0.7256 -0.2283 -0.3224
    2CHL1   H20  125   4.758   3.595   9.309 -2.0655  1.1736  1.1001
    2CHL1   C21  126   4.958   3.669   9.276 -0.2047  0.5672  0.4571
    2CHL1  H21A  127   5.024   3.758   9.278 -0.2746  0.6171  2.1640
    2CHL1  H21B  128   4.977   3.633   9.173 -0.9222 -1.0655  0.8606
    2CHL1  H21C  129   4.991   3.595   9.353 -2.3550  0.9017  1.7857
    2CHL1   C22  130   4.738   3.776   9.202 -0.3542  0.6064  0.0093
    2CHL1  H22A  131   4.631   3.770   9.232  0.0632  0.5472  1.5510
    2CHL1  H22B  132   4.780   3.878   9.212 -0.0291  0.3324  1.8756
    2CHL1   C23  133   4.747   3.726   9.057 -0.6584  0.0148 -0.1045
    2CHL1  H23A  134   4.853   3.720   9.023  0.3178  1.3852  2.4102
    2CHL1  H23B  135   4.702   3.625   9.059 -0.7332 -0.0843 -2.6200
    2CHL1   C24  136   4.676   3.813   8.958 -0.0987 -0.8759  0.5256
    2CHL1  H24A  137   4.566   3.806   8.975 -0.2327  1.0452  0.7701
    2CHL1  H24B  138   4.701   3.921   8.967 -0.7598 -0.6720 -0.0381
    2CHL1   C25  139   4.717   3.780   8.814  0.0074  0.4079 -0.5760
    2CHL1   H25  140   4.752   3.675   8.812 -0.8836 -0.0518  2.6066
    2CHL1   C26  141   4.602   3.803   8.719 -0.1699  0.1234 -0.0371
    2CHL1  H26A  142   4.654   3.803   8.621  1.1822 -0.2047  0.6515
    2CHL1  H26B  143   4.521   3.728   8.729  1.3829 -1.4294  1.8409
    2CHL1  H26C  144   4.552   3.901   8.727  0.2307  0.3270  0.0289
    2CHL1   C27  145   4.834   3.861   8.761 -0.1262  0.2816 -1.5784
    2CHL1  H27A  146   4.863   3.810   8.667  1.8139  1.2239 -1.5464
    2CHL1  H27B  147   4.811   3.966   8.732  3.4262  1.8422  0.5891
    2CHL1  H27C  148   4.912   3.861   8.841 -0.6869  0.0364 -1.0298
    3CHL1    C3  149   2.322   1.802  10.216 -0.2228  0.5484  0.3160
    3CHL1    H3  150   2.422   1.850  10.222 -0.3352  1.0131 -1.1952
    3CHL1    O3  151   2.294   1.778  10.351  0.7889 -0.2038 -0.0288
    3CHL1   H3'  152   2.225   1.711  10.357 -1.7803  2.3853  4.1761
    3CHL1    C4  153   2.220   1.897  10.155 -0.1111 -0.3243  0.2832
    3CHL1   H4A  154   2.117   1.854  10.161  0.1466 -1.2108 -1.1978
    3CHL1   H4B  155   2.231   1.992  10.211  0.5890 -1.2797  1.8481
    3CHL1    C5  156   2.253   1.918  10.009 -0.0620  0.1425 -0.1594
    3CHL1    C6  157   2.271   2.041   9.959  0.5776  0.4212  1.0653
    3CHL1    H6  158   2.261   2.125  10.029 -1.0695  0.1594  1.1742
    3CHL1    C7  159   2.290   2.081   9.811  0.0137 -0.0548  0.5976
    3CHL1   H7A  160   2.215   2.159   9.788  0.9469  0.3771 -1.1560
    3CHL1   H7B  161   2.395   2.118   9.801  0.4015 -1.3953 -0.6660
    3CHL1    C8  162   2.257   1.959   9.724  0.2282  0.6695  0.5776
    3CHL1    H8  163   2.147   1.950   9.715  0.4008 -0.9166 -0.3594
    3CHL1   C14  164   2.309   1.983   9.581  0.0414 -0.3218  0.5309
    3CHL1   H14  165   2.419   1.982   9.595  0.1159  0.4964  0.0911
    3CHL1   C15  166   2.272   2.116   9.507 -0.4882 -0.1160 -0.4048
    3CHL1  H15A  167   2.163   2.133   9.517 -0.2716  1.8406 -1.0044
    3CHL1  H15B  168   2.326   2.202   9.553  0.2753 -2.1811  2.9531
    3CHL1   C16  169   2.292   2.084   9.355 -0.2958 -0.1025 -0.3646
    3CHL1  H16A  170   2.198   2.104   9.298 -1.1485  0.8570  1.2837
    3CHL1  H16B  171   2.374   2.145   9.312 -0.8571  0.6508 -0.3881
    3CHL1   C17  172   2.340   1.934   9.352  0.1771 -0.9749  0.4420
    3CHL1   H17  173   2.451   1.936   9.365  0.1838  1.1105  0.4125
    3CHL1   C13  174   2.293   1.871   9.480 -0.9621  0.1185  0.5231
    3CHL1   C18  175   2.140   1.840   9.457 -0.7889 -0.1000 -0.0148
    3CHL1  H18A  176   2.090   1.823   9.554  0.9867 -3.7305  0.4484
    3CHL1  H18B  177   2.080   1.921   9.410 -0.5999  0.9746  1.5338
    3CHL1  H18C  178   2.129   1.755   9.386  0.0113 -0.5355  0.3607
    3CHL1   C12  179   2.370   1.750   9.545  0.8538  0.0505 -0.0863
    3CHL1  H12A  180   2.371   1.665   9.472  2.2886  0.0105 -0.0456
    3CHL1  H12B  181   2.478   1.770   9.563  1.1504 -1.5142  0.0272
    3CHL1   C11  182   2.308   1.714   9.683  0.1795  1.1895 -0.5477
    3CHL1  H11A  183   2.201   1.692   9.666  0.3621  0.2937 -0.5826
    3CHL1  H11B  184   2.359   1.625   9.726  1.5919  1.3646 -1.7669
    3CHL1    C9  185   2.315   1.823   9.789  0.0416 -0.5434 -0.0612
    3CHL1    H9  186   2.423   1.848   9.802 -0.1977 -0.6269  2.7011
    3CHL1   C10  187   2.262   1.788   9.927 -0.2749 -0.3587  0.7997
    3CHL1   C19  188   2.128   1.716   9.917 -0.0315 -0.0959 -0.8073
    3CHL1  H19A  189   2.090   1.671  10.011  1.5857  1.3245  0.5908
    3CHL1  H19B  190   2.052   1.794   9.891 -0.7583 -0.0975  1.1317
    3CHL1  H19C  191   2.140   1.633   9.845 -1.1358  0.8120 -2.0854
    3CHL1    C1  192   2.356   1.693   9.996 -0.3823 -0.2814  0.4185
    3CHL1   H1A  193   2.347   1.590   9.954 -1.2240  0.0854 -0.3519
    3CHL1   H1B  194   2.462   1.720   9.980 -1.0679  3.0695  0.9594
    3CHL1    C2  195   2.331   1.666  10.143 -0.3228 -0.4071 -0.1622
    3CHL1   H2A  196   2.414   1.611  10.194 -1.3914 -2.1362 -0.2279
    3CHL1   H2B  197   2.233   1.618  10.162 -0.9087  0.3181 -1.2441
    3CHL1   C20  198   2.322   1.864   9.219 -0.1113  0.4351 -0.3919
    3CHL1   H20  199   2.336   1.756   9.241  0.2749  0.3848 -0.8664
    3CHL1   C21  200   2.454   1.884   9.133  0.6092 -0.6630  0.2444
    3CHL1  H21A  201   2.455   1.991   9.100 -0.8136 -1.0977 -1.3271
    3CHL1  H21B  202   2.446   1.829   9.037  1.7440  1.6205 -1.2704
    3CHL1  H21C  203   2.546   1.867   9.194  0.3097  1.6897  1.4939
    3CHL1   C22  204   2.190   1.879   9.137 -0.1421 -0.2887 -0.4626
    3CHL1  H22A  205   2.101   1.849   9.196 -0.7284  1.0422 -0.6425
    3CHL1  H22B  206   2.189   1.987   9.109  1.2872 -0.1973 -0.2406
    3CHL1   C23  207   2.192   1.795   9.002  0.1168 -0.1399 -0.2109
    3CHL1  H23A  208   2.270   1.840   8.937  0.3758  1.0906  0.8808
    3CHL1  H23B  209   2.207   1.688   9.025  1.1371  0.4772  2.3714
    3CHL1   C24  210   2.060   1.812   8.928  0.5059 -0.1384  0.1594
    3CHL1  H24A  211   1.979   1.762   8.985  1.0903  0.3880  1.4845
    3CHL1  H24B  212   2.030   1.919   8.924  2.3511  0.4872  1.4600
    3CHL1   C25  213   2.063   1.753   8.786  0.3147  0.0061  0.5734
    3CHL1   H25  214   2.151   1.794   8.731  0.8282 -2.0969 -0.2919
    3CHL1   C26  215   2.077   1.600   8.787  0.1792  0.0106  0.1200
    3CHL1  H26A  216   2.183   1.577   8.811 -0.7187 -1.9068  2.5586
    3CHL1  H26B  217   2.002   1.550   8.851  0.3780  0.9092  1.0718
    3CHL1  H26C  218   2.059   1.561   8.684  1.9454  1.5929 -0.8835
    3CHL1   C27  219   1.936   1.800   8.702 -0.1714 -0.4136  0.1198
    3CHL1  H27A  220   1.845   1.760   8.751 -1.9511  2.1041 -0.9052
    3CHL1  H27B  221   1.941   1.910   8.688 -2.6013  0.2017  2.9560
    3CHL1  H27C  222   1.933   1.757   8.600 -1.5596  0.5768 -0.2758
    4CHL1    C3  223   0.250   3.128  10.356  0.6737 -0.4205 -0.1721
    4CHL1    H3  224   0.316   3.058  10.300  0.9776  0.5995 -1.1352
    4CHL1    O3  225   0.315   3.157  10.480  0.2729 -0.2329 -0.1178
    4CHL1   H3'  226   0.320   3.252  10.491 -1.4609 -0.2893  1.7719
    4CHL1    C4  227   0.239   3.258  10.275 -0.3250 -0.4444 -0.1675
    4CHL1   H4A  228   0.189   3.333  10.341 -1.3085 -2.0580  0.9790
    4CHL1   H4B  229   0.340   3.302  10.260 -0.4684 -0.4375 -1.1773
    4CHL1    C5  230   0.171   3.252  10.142  0.1584 -0.0930 -0.0535
    4CHL1    C6  231   0.216   3.306  10.027  0.5400 -0.0711 -0.2589
    4CHL1    H6  232   0.312   3.359  10.031  1.5291 -1.6650 -1.5882
    4CHL1    C7  233   0.152   3.294   9.894  0.6038 -0.6132  0.0482
    4CHL1   H7A  234   0.157   3.387   9.833  1.9429  0.3356  1.5175
    4CHL1   H7B  235   0.208   3.222   9.831  1.0908 -0.2051  0.0068
    4CHL1    C8  236   0.005   3.250   9.903 -0.2981  0.2484  0.0087
    4CHL1    H8  237  -0.053   3.339   9.936 -3.2673 -0.9557 -1.5805
    4CHL1   C14  238  -0.040   3.201   9.769  0.1617 -0.2938  0.7209
    4CHL1   H14  239   0.017   3.107   9.754 -0.9295 -0.8938  0.2365
    4CHL1   C15  240  -0.015   3.298   9.650 -0.5536 -0.9113 -0.6542
    4CHL1  H15A  241  -0.033   3.404   9.679  1.2702 -0.8784  0.5930
    4CHL1  H15B  242   0.094   3.286   9.630 -0.0511  1.3511  0.4081
    4CHL1   C16  243  -0.113   3.247   9.540  0.1095  0.3718 -0.1707
    4CHL1  H16A  244  -0.178   3.334   9.517  1.0272  1.4538  1.2022
    4CHL1  H16B  245  -0.048   3.216   9.455  0.8653  3.4319 -0.8231
    4CHL1   C17  246  -0.187   3.129   9.610 -0.7803  0.0971  0.1828
    4CHL1   H17  247  -0.122   3.040   9.601 -2.1430 -0.9289  0.2432
    4CHL1   C13  248  -0.184   3.163   9.760 -0.3061  0.5951  0.0032
    4CHL1   C18  249  -0.288   3.277   9.788  0.1088  0.0571 -0.6422
    4CHL1  H18A  250  -0.389   3.235   9.772 -1.0295  2.5647 -0.4050
    4CHL1  H18B  251  -0.280   3.311   9.894  0.5837 -0.4625 -0.5069
    4CHL1  H18C  252  -0.281   3.357   9.712 -3.2589  0.6466 -0.4731
    4CHL1   C12  253  -0.206   3.041   9.850  0.2042  0.0778  0.7443
    4CHL1  H12A  254  -0.315   3.022   9.854 -0.5450  3.4419 -0.3956
    4CHL1  H12B  255  -0.168   2.944   9.812 -0.0839  0.4722 -0.6027
    4CHL1   C11  256  -0.159   3.071   9.995 -0.4743 -0.2210  0.3369
    4CHL1  H11A  257  -0.238   3.136  10.036  0.4720 -0.3067  2.4409
    4CHL1  H11B  258  -0.168   2.985  10.065 -2.9403  0.2516  0.6763
    4CHL1    C9  259  -0.013   3.142  10.005  0.5755 -0.2709  0.4010
    4CHL1    H9  260   0.052   3.057   9.976 -0.3571 -0.8838  0.0367
    4CHL1   C10  261   0.042   3.173  10.143  0.4301 -0.4540 -0.2182
    4CHL1   C19  262  -0.051   3.269  10.211 -0.1176 -0.5374  0.0368
    4CHL1  H19A  263  -0.155   3.232  10.218 -0.2858 -0.3859 -1.3142
    4CHL1  H19B  264  -0.015   3.292  10.313  0.4650 -2.7002  0.3671
    4CHL1  H19C  265  -0.057   3.365  10.155  0.3990 -0.1171  0.6784
    4CHL1    C1  266   0.050   3.045  10.230 -0.0240 -0.0534  0.1749
    4CHL1   H1A  267  -0.051   3.002  10.248 -0.0523  0.3056  0.9088
    4CHL1   H1B  268   0.101   2.966  10.171  2.0525  1.1552  0.2631
    4CHL1    C2  269   0.116   3.062  10.370  0.8535 -0.0565 -0.2852
    4CHL1   H2A  270   0.129   2.963  10.419 -0.1386 -1.0361 -1.8847
    4CHL1   H2B  271   0.049   3.121  10.436  2.1043 -0.4299  1.4018
    4CHL1   C20  272  -0.319   3.078   9.554  0.2029  0.7076 -0.5175
    4CHL1   H20  273  -0.408   3.109   9.613 -1.0683  0.9165 -2.4564
    4CHL1   C21  274  -0.311   2.928   9.553 -0.1736 -0.1788 -0.7053
    4CHL1  H21A  275  -0.414   2.889   9.539 -0.5143  0.7136 -0.7879
    4CHL1  H21B  276  -0.283   2.883   9.650 -3.9716  1.0073  1.1403
    4CHL1  H21C  277  -0.245   2.901   9.468  0.1889  0.7243 -0.7187
    4CHL1   C22  278  -0.353   3.141   9.417  0.8993 -0.2846 -0.3209
    4CHL1  H22A  279  -0.348   3.252   9.422  0.0831 -0.2561  0.0460
    4CHL1  H22B  280  -0.276   3.105   9.345  0.5115  1.5211 -1.7283
    4CHL1   C23  281  -0.498   3.123   9.364 -1.2320  0.2165 -0.4382
    4CHL1  H23A  282  -0.522   3.015   9.348 -0.4679  0.0821 -0.7364
    4CHL1  H23B  283  -0.580   3.160   9.428 -3.5304  1.8465 -4.0236
    4CHL1   C24  284  -0.514   3.188   9.219 -0.5971  0.6009  0.0731
    4CHL1  H24A  285  -0.514   3.299   9.227 -0.1223  0.8058 -2.1059
    4CHL1  H24B  286  -0.433   3.166   9.146 -0.0820  0.2031  0.7458
    4CHL1   C25  287  -0.651   3.148   9.155  0.6184 -0.5633 -0.5439
    4CHL1   H25  288  -0.651   3.038   9.143  2.4221 -0.5668 -0.7298
    4CHL1   C26  289  -0.769   3.185   9.244  0.0447  0.1748 -0.7120
    4CHL1  H26A  290  -0.864   3.157   9.195 -0.4578  2.2194 -0.9826
    4CHL1  H26B  291  -0.766   3.124   9.337  2.6150 -1.3706 -1.6854
    4CHL1  H26C  292  -0.773   3.295   9.259  1.4733  0.4034 -1.7282
    4CHL1   C27  293  -0.656   3.209   9.011  0.1049  0.4594  0.6043
    4CHL1  H27A  294  -0.673   3.318   9.022 -0.4292  0.2389  2.3167
    4CHL1  H27B  295  -0.560   3.174   8.968 -0.2757 -1.6024  1.3046
    4CHL1  H27C  296  -0.736   3.157   8.953  2.4656 -4.0819  0.9056
    5CHL1    C3  297   0.328   2.760  10.188  0.2081  0.3538  0.3722
    5CHL1    H3  298   0.242   2.824  10.215 -0.4831 -0.8549  1.1582
    5CHL1    O3  299   0.354   2.688  10.301 -0.2806 -0.9578 -0.8944
    5CHL1   H3'  300   0.270   2.651  10.330  0.2046 -0.9049  0.6639
    5CHL1    C4  301   0.286   2.661  10.074  0.0065 -0.4939  0.2848
    5CHL1   H4A  302   0.366   2.585  10.064  1.3962  1.0914 -1.3554
    5CHL1   H4B  303   0.193   2.607  10.102 -0.6331 -0.1342 -1.0544
    5CHL1    C5  304   0.261   2.741   9.940  0.2489 -0.2778  0.4879
    5CHL1    C6  305   0.141   2.738   9.879 -0.1281  0.3356 -0.1820
    5CHL1    H6  306   0.065   2.673   9.925  0.5262 -0.1262  0.2461
    5CHL1    C7  307   0.109   2.807   9.748  0.1595 -0.5982  0.1998
    5CHL1   H7A  308   0.049   2.744   9.680  0.5192  0.4274 -1.1073
    5CHL1   H7B  309   0.056   2.902   9.771  2.2394  1.1151 -1.6304
    5CHL1    C8  310   0.246   2.849   9.685  0.7024 -0.4875  0.0996
    5CHL1    H8  311   0.300   2.758   9.651  2.7029  1.1384 -1.3616
    5CHL1   C14  312   0.210   2.918   9.556 -0.5887 -0.4574 -0.0780
    5CHL1   H14  313   0.139   2.994   9.596 -0.8070 -0.8119  0.2207
    5CHL1   C15  314   0.127   2.844   9.444 -0.5017 -0.2139 -0.4211
    5CHL1  H15A  315   0.160   2.739   9.430 -0.6669 -0.3982  0.5327
    5CHL1  H15B  316   0.019   2.848   9.468 -0.0988  0.3234  1.4421
    5CHL1   C16  317   0.159   2.931   9.324  0.2702  0.6244  0.1095
    5CHL1  H16A  318   0.211   2.869   9.248 -0.6581  0.3075 -0.2797
    5CHL1  H16B  319   0.061   2.964   9.283 -0.0786  0.8924  1.1158
    5CHL1   C17  320   0.247   3.051   9.373  0.4285 -0.2955 -0.1628
    5CHL1   H17  321   0.167   3.113   9.419 -0.7938 -1.3471 -0.7716
    5CHL1   C13  322   0.326   2.987   9.488  0.6974 -0.3110 -0.1036
    5CHL1   C18  323   0.421   2.882   9.426 -0.5926  0.0766 -0.2996
    5CHL1  H18A  324   0.498   2.933   9.365 -0.1143  0.0641  0.2949
    5CHL1  H18B  325   0.481   2.830   9.503  1.2174  1.0699 -0.9961
    5CHL1  H18C  326   0.376   2.805   9.358  0.9936 -0.2545 -1.0085
    5CHL1   C12  327   0.394   3.082   9.587  0.6373 -0.0032  0.8587
    5CHL1  H12A  328   0.482   3.126   9.535 -0.4884 -0.1913 -1.3195
    5CHL1  H12B  329   0.315   3.159   9.601  0.9932  1.0251 -2.1175
    5CHL1   C11  330   0.443   2.999   9.711  1.0275  0.8577  0.5710
    5CHL1  H11A  331   0.531   2.942   9.674 -0.4422 -0.3368 -1.3431
    5CHL1  H11B  332   0.480   3.066   9.791  0.8911  0.1779  1.2042
    5CHL1    C9  333   0.329   2.922   9.782  0.6779 -0.5564  0.6375
    5CHL1    H9  334   0.277   3.012   9.823  0.7057 -0.9763  1.6275
    5CHL1   C10  335   0.370   2.839   9.903 -0.1095  0.2613 -0.3336
    5CHL1   C19  336   0.489   2.742   9.858 -0.2089  0.2288 -0.9421
    5CHL1  H19A  337   0.576   2.808   9.838  0.3753  0.3949  1.7502
    5CHL1  H19B  338   0.529   2.673   9.936  2.3319 -1.4405 -3.5283
    5CHL1  H19C  339   0.468   2.682   9.767  0.5543 -2.0205  0.2851
    5CHL1    C1  340   0.411   2.921  10.030 -1.1333  0.7836 -0.6457
    5CHL1   H1A  341   0.491   2.993  10.003 -0.1659 -0.1079 -0.2263
    5CHL1   H1B  342   0.323   2.981  10.061 -1.3349 -0.4307  1.3329
    5CHL1    C2  343   0.450   2.837  10.151 -0.1838  0.0562  0.3068
    5CHL1   H2A  344   0.464   2.899  10.242 -0.5643  0.6116 -0.0099
    5CHL1   H2B  345   0.542   2.776  10.134  0.1384  0.5554  0.2461
    5CHL1   C20  346   0.318   3.127   9.253  0.4383  0.5820 -0.1710
    5CHL1   H20  347   0.388   3.056   9.204 -0.2516 -0.4834  0.3493
    5CHL1   C21  348   0.396   3.250   9.310 -0.2230  0.3579  0.0267
    5CHL1  H21A  349   0.504   3.230   9.326 -0.2385 -0.0615 -0.3412
    5CHL1  H21B  350   0.354   3.291   9.403  2.5207 -1.0541  2.0304
    5CHL1  H21C  351   0.391   3.330   9.233  2.0015  1.1218  0.6306
    5CHL1   C22  352   0.223   3.176   9.149 -0.2825  0.3412  0.3343
    5CHL1  H22A  353   0.282   3.242   9.082  2.1088 -1.4275  0.5632
    5CHL1  H22B  354   0.206   3.084   9.088  0.4878  0.6269 -0.3238
    5CHL1   C23  355   0.103   3.251   9.200  0.7146 -0.6776  0.1598
    5CHL1  H23A  356   0.016   3.187   9.226  0.3607 -0.4319 -0.4000
    5CHL1  H23B  357   0.132   3.319   9.283 -0.1798 -0.0489 -0.0335
    5CHL1   C24  358   0.055   3.333   9.082  0.1769  0.4499  0.4509
    5CHL1  H24A  359   0.139   3.391   9.039 -0.2287  0.3718 -0.4657
    5CHL1  H24B  360   0.027   3.259   9.004  0.0002  1.0101 -0.0235
    5CHL1   C25  361  -0.069   3.430   9.112 -0.4281  0.2983  0.2858
    5CHL1   H25  362  -0.045   3.486   9.205  0.0330  1.0398 -0.2661
    5CHL1   C26  363  -0.092   3.527   8.995  0.3478  0.0530 -0.0129
    5CHL1  H26A  364  -0.005   3.595   8.987  0.0966  0.1413 -3.1085
    5CHL1  H26B  365  -0.088   3.474   8.897  3.3819  3.6438 -2.0889
    5CHL1  H26C  366  -0.186   3.585   9.010  0.0390 -0.2393 -0.7404
    5CHL1   C27  367  -0.198   3.351   9.133 -0.7228 -0.3648  0.6380
    5CHL1  H27A  368  -0.221   3.291   9.042 -1.3465  1.3135 -0.3485
    5CHL1  H27B  369  -0.184   3.279   9.216 -0.4083  0.2475  1.1274
    5CHL1  H27C  370  -0.281   3.415   9.169  2.3732  3.2322  2.0902
    6CHL1    C3  371   4.757   1.101  10.612  0.1602  0.9525  0.1795
    6CHL1    H3  372   4.865   1.124  10.610 -0.0869  2.1836 -0.0683
    6CHL1    O3  373   4.715   1.128  10.745 -0.4073  0.7068  0.3237
    6CHL1   H3'  374   4.623   1.104  10.755 -0.2781  0.5203  1.1309
    6CHL1    C4  375   4.685   1.185  10.507  0.1008  0.3633  0.4624
    6CHL1   H4A  376   4.576   1.163  10.516  0.6329 -2.2355  1.5360
    6CHL1   H4B  377   4.686   1.293  10.534  1.5033  0.1757  1.2598
    6CHL1    C5  378   4.732   1.140  10.365  0.0678 -0.5874 -0.5988
    6CHL1    C6  379   4.794   1.225  10.287  0.2209  0.0875  0.7912
    6CHL1    H6  380   4.810   1.330  10.317  3.6689 -0.4120  1.1707
    6CHL1    C7  381   4.842   1.198  10.146  0.5519 -0.3396 -0.0755
    6CHL1   H7A  382   4.823   1.284  10.077  1.9842  1.6838  1.9194
    6CHL1   H7B  383   4.953   1.189  10.147  0.5173 -0.7956 -0.2667
    6CHL1    C8  384   4.775   1.075  10.095  0.0491  0.0862  0.5181
    6CHL1    H8  385   4.667   1.097  10.084 -0.0437 -1.0513 -1.1670
    6CHL1   C14  386   4.837   1.030   9.960 -0.1928  0.2116 -0.1779
    6CHL1   H14  387   4.944   1.012   9.983 -0.5277 -1.9811 -0.0427
    6CHL1   C15  388   4.832   1.132   9.850 -0.2556  0.0538  0.7009
    6CHL1  H15A  389   4.739   1.191   9.835  0.0148  0.8146  1.8875
    6CHL1  H15B  390   4.920   1.199   9.857  2.3141 -3.0099 -0.2075
    6CHL1   C16  391   4.875   1.046   9.725  0.5474  0.2364  0.2978
    6CHL1  H16A  392   4.800   1.068   9.646  0.9785  0.9765  0.0850
    6CHL1  H16B  393   4.977   1.078   9.693  0.2851 -0.7452 -1.6523
    6CHL1   C17  394   4.865   0.888   9.771  0.0856  0.3973 -0.1847
    6CHL1   H17  395   4.963   0.851   9.807 -2.3722 -2.7510  4.3575
    6CHL1   C13  396   4.784   0.898   9.901  0.2896 -0.5818  0.1932
    6CHL1   C18  397   4.641   0.934   9.853  0.2809 -0.1086 -0.1979
    6CHL1  H18A  398   4.621   0.961   9.748 -1.9589  0.0597  0.2211
    6CHL1  H18B  399   4.584   0.838   9.848 -0.3998  0.3054 -0.5544
    6CHL1  H18C  400   4.580   0.992   9.927  0.6759 -1.4187  1.2065
    6CHL1   C12  401   4.803   0.786  10.012 -0.6223  0.6728 -0.0533
    6CHL1  H12A  402   4.775   0.687   9.970  1.7981  0.3431 -1.0032
    6CHL1  H12B  403   4.911   0.770  10.029 -0.9633 -1.5615  0.4290
    6CHL1   C11  404   4.728   0.828  10.140 -0.2459  0.5125 -0.3800
    6CHL1  H11A  405   4.618   0.832  10.124 -0.2374 -0.7492 -0.8953
    6CHL1  H11B  406   4.744   0.746  10.213 -0.4902  0.6638 -0.1571
    6CHL1    C9  407   4.769   0.966  10.194  0.2792 -0.4531  0.0785
    6CHL1    H9  408   4.878   0.959  10.217  0.6426  0.2056 -1.3282
    6CHL1   C10  409   4.697   0.995  10.326  0.3298  0.5580 -0.2787
    6CHL1   C19  410   4.546   0.971  10.322 -0.1135  0.2005 -0.8382
    6CHL1  H19A  411   4.520   0.865  10.305 -1.1225  0.4137 -0.6805
    6CHL1  H19B  412   4.503   1.004  10.419  1.9501  0.7042 -0.0395
    6CHL1  H19C  413   4.493   1.022  10.239  0.2952 -3.3032 -3.4924
    6CHL1    C1  414   4.766   0.911  10.434  0.6175  0.1952  0.1948
    6CHL1   H1A  415   4.739   0.804  10.424 -1.2617  0.6568  0.0569
    6CHL1   H1B  416   4.875   0.926  10.414  0.1191  3.0090 -0.8597
    6CHL1    C2  417   4.731   0.957  10.581  0.5443 -0.6321 -1.0003
    6CHL1   H2A  418   4.793   0.898  10.652  0.0862 -1.6712 -1.4445
    6CHL1   H2B  419   4.627   0.924  10.602  0.8998 -0.6566  0.9818
    6CHL1   C20  420   4.827   0.803   9.650  0.2364 -0.1002  0.2054
    6CHL1   H20  421   4.747   0.852   9.591  0.9030 -0.0091 -0.6410
    6CHL1   C21  422   4.784   0.666   9.694 -0.1432 -0.0574  0.0633
    6CHL1  H21A  423   4.871   0.609   9.733 -1.0523 -0.7126  1.1999
    6CHL1  H21B  424   4.741   0.604   9.612  0.8941 -0.3093 -0.3019
    6CHL1  H21C  425   4.707   0.670   9.775 -0.6380 -3.3077 -0.0881
    6CHL1   C22  426   4.950   0.797   9.552  0.1307  0.0085  0.0743
    6CHL1  H22A  427   5.009   0.891   9.541  1.8956 -0.9930  0.6347
    6CHL1  H22B  428   5.025   0.726   9.593 -0.1501 -0.9615 -1.0153
    6CHL1   C23  429   4.918   0.760   9.405  0.3716  0.2969  0.5671
    6CHL1  H23A  430   5.013   0.753   9.348  1.2651 -1.3532  2.1711
    6CHL1  H23B  431   4.861   0.666   9.393 -0.9309  1.2882 -1.6927
    6CHL1   C24  432   4.820   0.865   9.336  0.1766  0.0137 -0.0102
    6CHL1  H24A  433   4.720   0.858   9.383 -0.1845 -1.1870 -0.8967
    6CHL1  H24B  434   4.881   0.957   9.347  0.8480 -0.5212  0.8512
    6CHL1   C25  435   4.805   0.853   9.183 -0.1680 -0.2622  1.2103
    6CHL1   H25  436   4.911   0.865   9.153 -0.4487 -0.6149  0.0071
    6CHL1   C26  437   4.762   0.719   9.130 -0.1200 -0.2916 -0.0437
    6CHL1  H26A  438   4.655   0.711   9.156 -0.1510 -0.2922 -0.1708
    6CHL1  H26B  439   4.767   0.740   9.021  1.9452  2.7387  0.5130
    6CHL1  H26C  440   4.816   0.629   9.167  0.1272 -1.0318 -2.1002
    6CHL1   C27  441   4.723   0.959   9.106  0.9712 -0.3734  0.1916
    6CHL1  H27A  442   4.762   1.062   9.118 -3.3282  1.2608  1.8625
    6CHL1  H27B  443   4.719   0.947   8.996  2.0345 -1.2163  0.2246
    6CHL1  H27C  444   4.620   0.961   9.147  0.5545 -1.2969 -0.7694
    7CHL1    C3  445   0.025   0.070  10.372  0.3974  0.2912  0.4167
    7CHL1    H3  446  -0.003   0.177  10.365 -1.2439 -0.2051 -1.3269
    7CHL1    O3  447   0.059   0.044  10.504 -0.2576 -0.5321 -0.1409
    7CHL1   H3'  448   0.085  -0.049  10.508  2.0220  0.0644  0.9648
    7CHL1    C4  449  -0.090  -0.020  10.335 -0.4934  0.8297  0.2361
    7CHL1   H4A  450  -0.066  -0.123  10.367  1.1011  1.2749  0.5885
    7CHL1   H4B  451  -0.171   0.002  10.408 -0.2970  0.3649  0.5959
    7CHL1    C5  452  -0.128  -0.014  10.191 -0.6047 -0.4161 -0.0955
    7CHL1    C6  453  -0.257   0.018  10.159  0.0779  0.1897  0.8449
    7CHL1    H6  454  -0.327   0.020  10.244  0.4696 -0.9811  1.2333
    7CHL1    C7  455  -0.305   0.052  10.022 -0.8427 -0.8091 -0.8131
    7CHL1   H7A  456  -0.408   0.016   9.999 -0.9962 -0.0134 -1.4028
    7CHL1   H7B  457  -0.295   0.162  10.011 -0.6752 -0.5966  1.0643
    7CHL1    C8  458  -0.208  -0.007   9.918 -0.4339 -0.2568  0.5259
    7CHL1    H8  459  -0.217  -0.118   9.921  0.1776 -0.2881  2.0648
    7CHL1   C14  460  -0.249   0.052   9.785 -0.4071 -0.2540 -0.0896
    7CHL1   H14  461  -0.238   0.162   9.791 -0.0158 -0.2640 -0.4731
    7CHL1   C15  462  -0.392   0.027   9.732 -0.3460  0.2989 -0.2118
    7CHL1  H15A  463  -0.406  -0.082   9.750  1.8230 -0.7235 -3.6858
    7CHL1  H15B  464  -0.478   0.080   9.777  0.8180  1.3887  0.7960
    7CHL1   C16  465  -0.389   0.054   9.583  0.5916 -0.0255  0.0086
    7CHL1  H16A  466  -0.421  -0.040   9.534  1.0312  0.3959 -1.1228
    7CHL1  H16B  467  -0.447   0.144   9.553 -1.0548 -1.2947 -0.6953
    7CHL1   C17  468  -0.243   0.072   9.536 -0.2917 -0.1642 -0.1248
    7CHL1   H17  469  -0.224   0.181   9.549  0.1261 -0.2644  0.1439
    7CHL1   C13  470  -0.157   0.016   9.662  0.7683 -0.0973 -0.8608
    7CHL1   C18  471  -0.150  -0.133   9.644 -0.8454 -0.4140  0.5555
    7CHL1  H18A  472  -0.102  -0.177   9.734  0.8427  0.5562  0.1734
    7CHL1  H18B  473  -0.247  -0.184   9.628 -0.1031 -1.1860 -1.8930
    7CHL1  H18C  474  -0.089  -0.168   9.558  0.7890  2.5242  0.4096
    7CHL1   C12  475  -0.018   0.073   9.695  0.3750  0.0259  0.9884
    7CHL1  H12A  476   0.050   0.040   9.613  1.3021  0.9321  1.3828
    7CHL1  H12B  477  -0.032   0.183   9.692 -2.8721 -0.2525 -2.3066
    7CHL1   C11  478   0.034   0.019   9.829  0.3490  0.5951 -0.1539
    7CHL1  H11A  479   0.049  -0.091   9.833  2.3439  0.7753 -1.3955
    7CHL1  H11B  480   0.132   0.064   9.855  0.6485 -0.7340  1.1873
    7CHL1    C9  481  -0.065   0.037   9.950 -0.7537  0.1325 -0.6849
    7CHL1    H9  482  -0.069   0.148   9.952 -0.5936  0.1346 -0.3650
    7CHL1   C10  483  -0.012  -0.008  10.088 -0.9716 -0.2873  0.5558
    7CHL1   C19  484   0.040  -0.151  10.074 -0.5872 -0.5204 -0.6583
    7CHL1  H19A  485   0.087  -0.185  10.169  0.1719 -0.0702 -0.8626
    7CHL1  H19B  486  -0.037  -0.225  10.045 -0.1396 -1.2594 -0.0330
    7CHL1  H19C  487   0.126  -0.151  10.004  2.7451  0.4023  3.0203
    7CHL1    C1  488   0.097   0.090  10.143  0.3004 -0.1331 -0.7197
    7CHL1   H1A  489   0.184   0.081  10.074  0.2575 -1.9600 -0.5899
    7CHL1   H1B  490   0.055   0.192  10.157  0.1101 -0.3608  0.4414
    7CHL1    C2  491   0.146   0.048  10.283 -0.2401  0.3845 -0.0307
    7CHL1   H2A  492   0.228   0.109  10.326 -0.7151 -0.4339  2.1338
    7CHL1   H2B  493   0.168  -0.061  10.294 -0.2349  0.5306  1.5708
    7CHL1   C20  494  -0.217   0.022   9.392  0.5933  0.1468 -0.4364
    7CHL1   H20  495  -0.220  -0.089   9.394 -0.4165  0.1069 -2.2109
    7CHL1   C21  496  -0.079   0.072   9.347  0.0069  0.1421 -0.2070
    7CHL1  H21A  497  -0.096   0.182   9.346 -3.2827 -0.1894  2.1733
    7CHL1  H21B  498  -0.041   0.031   9.252 -0.7580 -0.2073 -0.3727
    7CHL1  H21C  499  -0.004   0.044   9.424  0.2921  0.1945 -0.4677
    7CHL1   C22  500  -0.326   0.059   9.288  0.1720  0.3034  0.2515
    7CHL1  H22A  501  -0.407  -0.016   9.307 -1.2324  1.6613 -0.1656
    7CHL1  H22B  502  -0.357   0.164   9.306  1.4099  0.4658  1.6055
    7CHL1   C23  503  -0.281   0.041   9.140 -0.0386  0.6823 -0.3342
    7CHL1  H23A  504  -0.192   0.106   9.126  0.4547  1.3628  4.2449
    7CHL1  H23B  505  -0.258  -0.066   9.127 -2.1383  0.1975 -0.4602
    7CHL1   C24  506  -0.389   0.090   9.041 -0.5359 -0.2820  0.1164
    7CHL1  H24A  507  -0.489   0.049   9.064 -0.9572 -0.5268 -1.9147
    7CHL1  H24B  508  -0.406   0.198   9.062 -0.9481 -0.3329  0.0526
    7CHL1   C25  509  -0.357   0.074   8.888  0.2386  0.0659 -0.7286
    7CHL1   H25  510  -0.337  -0.035   8.874  1.4231 -0.2515  2.6054
    7CHL1   C26  511  -0.475   0.113   8.797 -0.2036  0.5550  0.2350
    7CHL1  H26A  512  -0.567   0.064   8.836  0.6230 -0.5781  0.8473
    7CHL1  H26B  513  -0.496   0.222   8.802  1.5290  0.9478 -0.5052
    7CHL1  H26C  514  -0.456   0.093   8.689  1.5794 -0.9798  0.7877
    7CHL1   C27  515  -0.235   0.160   8.851  0.7226  0.4249  0.1068
    7CHL1  H27A  516  -0.149   0.153   8.920  2.2377 -0.5039 -1.8057
    7CHL1  H27B  517  -0.190   0.140   8.752  1.4310 -3.2837  1.0414
    7CHL1  H27C  518  -0.268   0.266   8.847 -1.3592 -0.1959 -1.0721
    8CHL1    C3  519   0.382   6.129  10.351 -0.0756 -0.2772  0.8749
    8CHL1    H3  520   0.464   6.177  10.293  0.0872 -0.9168  0.5673
    8CHL1    O3  521   0.418   6.134  10.482  0.3477  0.2430 -1.6046
    8CHL1   H3'  522   0.363   6.074  10.532  1.5031 -0.1961 -0.8344
    8CHL1    C4  523   0.250   6.210  10.317  1.0825  0.1162  0.2318
    8CHL1   H4A  524   0.177   6.171  10.392  0.0977  0.7399 -0.3829
    8CHL1   H4B  525   0.264   6.319  10.337  3.8187  0.2095 -1.7167
    8CHL1    C5  526   0.214   6.185  10.172 -0.4402 -0.1806 -0.6650
    8CHL1    C6  527   0.178   6.285  10.091  0.3332  0.4127 -0.4948
    8CHL1    H6  528   0.195   6.384  10.137 -0.8797  0.7338 -0.6999
    8CHL1    C7  529   0.130   6.275   9.945  0.1148  0.1964 -0.2250
    8CHL1   H7A  530   0.035   6.331   9.936 -0.4505 -0.2687  2.1130
    8CHL1   H7B  531   0.199   6.323   9.872  0.8458  0.0212  0.3399
    8CHL1    C8  532   0.105   6.127   9.907  0.1312  0.1559 -0.3814
    8CHL1    H8  533   0.003   6.110   9.946  0.1468  1.8120  0.4583
    8CHL1   C14  534   0.100   6.114   9.750 -0.2864 -0.5295  0.5332
    8CHL1   H14  535   0.209   6.119   9.725 -0.1075  0.0782  1.4151
    8CHL1   C15  536   0.023   6.214   9.664  0.5667  0.5218 -0.1247
    8CHL1  H15A  537  -0.076   6.235   9.709 -0.3818  0.5901 -2.1205
    8CHL1  H15B  538   0.077   6.308   9.640 -0.5487  1.1882 -0.0754
    8CHL1   C16  539  -0.022   6.137   9.536 -0.1908  0.4564 -0.1282
    8CHL1  H16A  540  -0.133   6.145   9.543 -0.2122  2.9568 -1.9267
    8CHL1  H16B  541   0.016   6.194   9.449 -0.3751 -1.2737 -1.4123
    8CHL1   C17  542   0.046   5.999   9.547 -0.4538 -0.2363 -0.0555
    8CHL1   H17  543   0.149   6.020   9.512 -0.9780 -0.0110 -1.4984
    8CHL1   C13  544   0.055   5.979   9.702  0.2858 -0.1395  0.3013
    8CHL1   C18  545  -0.080   5.931   9.769 -1.0158  0.1148 -0.0802
    8CHL1  H18A  546  -0.104   5.829   9.732 -0.5640  0.5630 -1.7176
    8CHL1  H18B  547  -0.091   5.921   9.879 -1.8203 -2.1561 -0.3180
    8CHL1  H18C  548  -0.155   6.006   9.733  1.8202  2.4547 -1.5529
    8CHL1   C12  549   0.156   5.874   9.759 -0.5309 -0.2657 -0.2817
    8CHL1  H12A  550   0.127   5.771   9.731  1.0589 -0.5666 -0.9805
    8CHL1  H12B  551   0.251   5.895   9.705  0.4194 -1.1783  0.9748
    8CHL1   C11  552   0.188   5.883   9.916 -0.3112  0.1805  0.0525
    8CHL1  H11A  553   0.108   5.824   9.966  1.0114  0.0147  2.1069
    8CHL1  H11B  554   0.285   5.833   9.933 -0.1483  0.9932  1.7830
    8CHL1    C9  555   0.204   6.031   9.967  0.0530 -0.2146 -0.5249
    8CHL1    H9  556   0.301   6.069   9.928 -0.5190  1.0197 -0.7995
    8CHL1   C10  557   0.220   6.041  10.120  0.1285 -0.8471  0.4802
    8CHL1   C19  558   0.097   5.968  10.184  0.4251  0.3537 -0.3384
    8CHL1  H19A  559   0.105   5.978  10.294 -1.5361  1.9938 -0.2876
    8CHL1  H19B  560   0.008   6.014  10.137 -0.2224 -0.2583  0.2846
    8CHL1  H19C  561   0.105   5.861  10.158 -0.3845 -0.1581  1.4183
    8CHL1    C1  562   0.347   5.962  10.167 -0.3375  0.1362 -0.4059
    8CHL1   H1A  563   0.340   5.855  10.137  1.9339  0.0705 -0.8438
    8CHL1   H1B  564   0.436   5.991  10.107  0.3825 -1.0664  0.0561
    8CHL1    C2  565   0.375   5.978  10.313  0.0325 -0.6050  0.3091
    8CHL1   H2A  566   0.481   5.947  10.324  0.3200 -0.4756 -1.7389
    8CHL1   H2B  567   0.304   5.928  10.383  1.1373 -2.7958 -0.0672
    8CHL1   C20  568  -0.021   5.890   9.460 -0.1021  0.0532  0.2315
    8CHL1   H20  569  -0.114   5.856   9.511 -0.4098  1.3045  0.5302
    8CHL1   C21  570   0.074   5.774   9.447 -0.6404 -0.1157 -0.8015
    8CHL1  H21A  571   0.048   5.712   9.359 -1.1539 -1.8986  0.5573
    8CHL1  H21B  572   0.066   5.708   9.536 -1.1760  0.0943 -0.6949
    8CHL1  H21C  573   0.181   5.803   9.437 -0.5998  0.0913  0.1256
    8CHL1   C22  574  -0.079   5.928   9.322 -0.1267 -0.4529 -0.8240
    8CHL1  H22A  575  -0.131   5.841   9.277 -2.3820  0.2386  0.3014
    8CHL1  H22B  576  -0.164   5.999   9.330 -1.2304 -1.6176 -1.7956
    8CHL1   C23  577   0.037   5.982   9.223  0.2573  0.5434 -0.9716
    8CHL1  H23A  578   0.047   6.088   9.254 -0.5034 -0.0783  1.7170
    8CHL1  H23B  579   0.138   5.938   9.236  0.0640 -0.5866 -2.9191
    8CHL1   C24  580  -0.005   5.974   9.077 -0.6327  0.0888 -1.0308
    8CHL1  H24A  581  -0.009   5.870   9.038 -0.1057 -0.1555 -0.4590
    8CHL1  H24B  582  -0.107   6.017   9.067 -1.1406 -0.8175 -0.0234
    8CHL1   C25  583   0.077   6.069   8.997  0.4178  0.2557  0.1915
    8CHL1   H25  584   0.075   6.160   9.061 -1.9084  0.2924  0.1506
    8CHL1   C26  585   0.216   6.006   8.967 -0.3039  0.6798 -0.3331
    8CHL1  H26A  586   0.200   5.931   8.887 -2.2266 -0.5888  1.1390
    8CHL1  H26B  587   0.291   6.081   8.935  0.4342  0.0174 -0.1691
    8CHL1  H26C  588   0.265   5.971   9.060 -0.7246  0.2477 -0.2708
    8CHL1   C27  589   0.011   6.096   8.857 -0.4788 -0.4331 -0.5592
    8CHL1  H27A  590  -0.088   6.145   8.874  0.6930  1.7590  0.3237
    8CHL1  H27B  591   0.073   6.157   8.787  0.9134 -0.0817  0.9278
    8CHL1  H27C  592   0.003   5.998   8.805 -0.4938 -0.0993 -1.1949
    9CHL1    C3  593   2.559   2.091  10.376  0.1946  0.0714 -0.7399
    9CHL1    H3  594   2.453   2.057  10.368 -0.3363  1.5502 -0.2630
    9CHL1    O3  595   2.590   2.095  10.513  0.3522  0.6138  0.3196
    9CHL1   H3'  596   2.660   2.161  10.505 -0.4489  1.2252 -2.6734
    9CHL1    C4  597   2.664   1.999  10.316  0.8683  0.5221  0.4367
    9CHL1   H4A  598   2.768   2.009  10.354  0.8732 -0.2884  0.6559
    9CHL1   H4B  599   2.641   1.900  10.360 -1.6433  0.5782 -0.6170
    9CHL1    C5  600   2.680   2.013  10.167 -0.3264  0.0913 -0.3099
    9CHL1    C6  601   2.692   1.900  10.091  0.0371 -0.0440  0.7846
    9CHL1    H6  602   2.684   1.803  10.142 -0.0767  0.2783  1.3911
    9CHL1    C7  603   2.724   1.890   9.947  0.8699 -0.2029  0.5275
    9CHL1   H7A  604   2.813   1.825   9.938  0.2219 -0.8464 -1.9605
    9CHL1   H7B  605   2.635   1.850   9.893  0.7120  1.1526 -0.2751
    9CHL1    C8  606   2.751   2.026   9.887  0.7253 -0.2462  0.9338
    9CHL1    H8  607   2.854   2.057   9.913  0.8776  2.5762 -2.4312
    9CHL1   C14  608   2.721   2.021   9.743  0.0026 -0.6738  0.0925
    9CHL1   H14  609   2.616   1.986   9.735 -0.0273 -0.5162 -0.2268
    9CHL1   C15  610   2.792   1.912   9.660  0.2129 -0.5413 -0.1809
    9CHL1  H15A  611   2.895   1.899   9.697  0.7042 -3.4561 -2.2249
    9CHL1  H15B  612   2.743   1.814   9.678  0.4980 -0.8543 -1.0457
    9CHL1   C16  613   2.797   1.954   9.520 -0.2273  0.4980  0.5919
    9CHL1  H16A  614   2.906   1.952   9.497  0.2682 -2.5912  2.5751
    9CHL1  H16B  615   2.735   1.894   9.450 -0.6775  0.5258  0.9606
    9CHL1   C17  616   2.743   2.103   9.515  0.3800  0.2974  0.2616
    9CHL1   H17  617   2.633   2.091   9.500  0.5246 -0.9187  0.0554
    9CHL1   C13  618   2.756   2.151   9.662 -0.3516  0.6186  0.0702
    9CHL1   C18  619   2.911   2.190   9.681 -0.2810  0.9673  0.1632
    9CHL1  H18A  620   2.948   2.274   9.618  2.1883 -0.1006  0.0707
    9CHL1  H18B  621   2.937   2.214   9.786 -1.7672  0.6734  0.6208
    9CHL1  H18C  622   2.981   2.109   9.650  1.2951  2.2201  0.3675
    9CHL1   C12  623   2.667   2.270   9.717 -0.3440 -0.0121 -0.4134
    9CHL1  H12A  624   2.684   2.373   9.680 -2.5621  0.3046 -0.7295
    9CHL1  H12B  625   2.559   2.244   9.704 -0.9484  0.3835  2.9005
    9CHL1   C11  626   2.692   2.273   9.877  0.0251  0.6917  0.6389
    9CHL1  H11A  627   2.794   2.315   9.891  0.1722  0.3640  0.5462
    9CHL1  H11B  628   2.628   2.355   9.917  1.7323  2.0647  0.6684
    9CHL1    C9  629   2.668   2.139   9.950  0.5018 -0.2221  0.2171
    9CHL1    H9  630   2.563   2.103   9.939  0.5028  0.2039 -1.4893
    9CHL1   C10  631   2.685   2.151  10.104 -0.3347 -0.6284 -0.5149
    9CHL1   C19  632   2.817   2.222  10.131 -0.3445  0.1930  0.1873
    9CHL1  H19A  633   2.894   2.176  10.066  1.3227 -0.5603  2.5522
    9CHL1  H19B  634   2.808   2.332  10.119 -2.4485  0.1787  1.0777
    9CHL1  H19C  635   2.851   2.193  10.233  0.5528 -5.2134 -1.3256
    9CHL1    C1  636   2.568   2.231  10.166  0.8270 -0.3674  0.2013
    9CHL1   H1A  637   2.565   2.332  10.121 -1.8902  0.8316  2.7276
    9CHL1   H1B  638   2.472   2.187  10.130  0.2304 -1.5269  2.9193
    9CHL1    C2  639   2.562   2.233  10.315 -0.0261 -0.3122 -0.1747
    9CHL1   H2A  640   2.488   2.301  10.361 -0.4166 -1.2392  0.6032
    9CHL1   H2B  641   2.654   2.292  10.340 -0.1022  2.0240 -4.4857
    9CHL1   C20  642   2.795   2.183   9.395  0.0068 -0.6560 -0.9416
    9CHL1   H20  643   2.883   2.246   9.422 -0.3610  0.2941 -1.8446
    9CHL1   C21  644   2.687   2.284   9.360  0.9345 -0.5136 -0.0493
    9CHL1  H21A  645   2.730   2.365   9.296 -0.2053  0.1084 -0.0473
    9CHL1  H21B  646   2.640   2.328   9.450  1.3729 -2.1996  1.0464
    9CHL1  H21C  647   2.609   2.235   9.298  1.0878 -1.2681  0.3543
    9CHL1   C22  648   2.842   2.104   9.262  0.1191  0.3158  0.7536
    9CHL1  H22A  649   2.923   2.030   9.282  0.9026  0.7967 -0.5240
    9CHL1  H22B  650   2.749   2.052   9.230  0.3515  1.3181 -1.7252
    9CHL1   C23  651   2.885   2.195   9.146  0.1602 -0.4446  0.0834
    9CHL1  H23A  652   2.798   2.261   9.125 -0.1364 -0.7083  0.4616
    9CHL1  H23B  653   2.972   2.253   9.183  0.4924 -1.1709  0.4700
    9CHL1   C24  654   2.922   2.103   9.021 -0.1381 -0.6805  0.4757
    9CHL1  H24A  655   2.946   2.178   8.942 -1.6071 -0.7805 -0.1079
    9CHL1  H24B  656   3.012   2.044   9.048  0.0436 -1.2508 -1.2363
    9CHL1   C25  657   2.816   1.999   8.968 -0.2931  0.0846  0.3354
    9CHL1   H25  658   2.787   1.942   9.059  0.9940  0.7781  1.2156
    9CHL1   C26  659   2.696   2.052   8.895  0.6852 -0.4063  0.5008
    9CHL1  H26A  660   2.715   2.115   8.805  1.0170  2.1637  2.2508
    9CHL1  H26B  661   2.623   1.974   8.867 -0.3039  1.1981 -1.7147
    9CHL1  H26C  662   2.645   2.122   8.965 -1.1097  0.3089 -1.3923
    9CHL1   C27  663   2.898   1.904   8.872 -0.0149  0.2885 -0.5251
    9CHL1  H27A  664   2.833   1.825   8.830  1.4036 -1.2976  0.1400
    9CHL1  H27B  665   2.929   1.962   8.782 -0.0022  1.2144  0.0560
    9CHL1  H27C  666   2.978   1.847   8.924  0.9817  2.2454  0.1780
   10CHL1    C3  667   3.040   5.077  10.034  0.1432  0.0844  0.7774
   10CHL1    H3  668   3.060   5.172   9.981 -1.0573 -0.8001 -1.3841
   10CHL1    O3  669   3.017   5.089  10.171 -0.8364 -0.3339  0.1215
   10CHL1   H3'  670   3.061   5.013  10.211  1.4377  0.8494  0.0573
   10CHL1    C4  671   2.905   5.016   9.971  0.0344  0.0617 -0.8007
   10CHL1   H4A  672   2.881   4.927  10.034 -1.1526  1.3959  0.6984
   10CHL1   H4B  673   2.820   5.085   9.990  0.0571 -0.3270  0.8816
   10CHL1    C5  674   2.924   4.982   9.826  0.4844 -0.0783  0.1201
   10CHL1    C6  675   2.831   5.035   9.748 -0.4756 -0.1887 -0.8209
   10CHL1    H6  676   2.751   5.096   9.793 -1.9875 -1.2804 -1.8962
   10CHL1    C7  677   2.817   5.018   9.603 -0.3889  0.1344 -0.0691
   10CHL1   H7A  678   2.715   4.983   9.578 -0.0514  0.1176 -1.5651
   10CHL1   H7B  679   2.831   5.115   9.551 -0.3593  0.4879  0.5960
   10CHL1    C8  680   2.917   4.910   9.549  0.0859 -0.0461 -1.0997
   10CHL1    H8  681   2.868   4.814   9.575 -2.4457  1.0698 -1.4982
   10CHL1   C14  682   2.940   4.912   9.404  0.3233  0.2251  1.0048
   10CHL1   H14  683   2.992   5.007   9.378  1.3964 -0.7541 -0.5799
   10CHL1   C15  684   2.816   4.914   9.313 -0.0181 -0.2847 -0.0531
   10CHL1  H15A  685   2.742   4.835   9.337 -0.0458 -0.4215 -0.5792
   10CHL1  H15B  686   2.754   5.006   9.315 -0.4968 -0.5920 -0.6690
   10CHL1   C16  687   2.871   4.880   9.175  0.1462  0.8836  0.2181
   10CHL1  H16A  688   2.815   4.789   9.144  0.9929  0.3457  0.2050
   10CHL1  H16B  689   2.862   4.960   9.098 -1.2920  1.1892  0.6878
   10CHL1   C17  690   3.019   4.838   9.191  1.0839  0.1243  0.5564
   10CHL1   H17  691   3.075   4.927   9.153  2.4718 -0.3636  1.3803
   10CHL1   C13  692   3.037   4.811   9.339 -0.5787  0.1032 -0.8807
   10CHL1   C18  693   2.997   4.662   9.368 -0.3606 -0.2069 -0.2869
   10CHL1  H18A  694   3.075   4.595   9.326  0.8917  2.7078 -3.0282
   10CHL1  H18B  695   2.970   4.642   9.474  1.3786  1.6843  0.5690
   10CHL1  H18C  696   2.904   4.634   9.314 -1.3006  0.0167  1.1450
   10CHL1   C12  697   3.172   4.842   9.402  0.5182  0.4416  0.1084
   10CHL1  H12A  698   3.244   4.767   9.362  0.7493  0.7385 -0.0377
   10CHL1  H12B  699   3.203   4.946   9.379  1.3891 -0.0644 -1.1769
   10CHL1   C11  700   3.172   4.839   9.555  0.2736 -0.1729  0.2149
   10CHL1  H11A  701   3.160   4.733   9.585  1.1997 -0.7019 -1.1910
   10CHL1  H11B  702   3.271   4.871   9.594  0.2132  1.4054 -0.8486
   10CHL1    C9  703   3.054   4.916   9.624 -0.2638 -0.3496 -0.3010
   10CHL1    H9  704   3.088   5.020   9.601  2.3310 -0.8943  0.7798
   10CHL1   C10  705   3.049   4.904   9.777 -0.2358  0.6627 -0.8595
   10CHL1   C19  706   3.045   4.757   9.816  0.3459 -0.9407  0.1204
   10CHL1  H19A  707   3.032   4.744   9.925  3.2841 -2.9711  0.3473
   10CHL1  H19B  708   2.954   4.711   9.769  0.1756 -0.7005  0.2161
   10CHL1  H19C  709   3.135   4.695   9.795  1.5328  1.0905 -1.0413
   10CHL1    C1  710   3.173   4.961   9.847 -0.2366  0.5094 -0.8620
   10CHL1   H1A  711   3.256   4.895   9.814 -0.0019 -0.6807  1.8591
   10CHL1   H1B  712   3.200   5.061   9.805 -0.4336  1.4928  1.2091
   10CHL1    C2  713   3.156   4.978  10.001  0.1061  0.2236 -0.2614
   10CHL1   H2A  714   3.249   5.007  10.053  0.6538 -0.7205 -0.6759
   10CHL1   H2B  715   3.138   4.882  10.055  0.0201  0.4966  0.1983
   10CHL1   C20  716   3.069   4.731   9.088  0.0511  0.7242  0.0225
   10CHL1   H20  717   3.023   4.632   9.111 -0.7839  0.4947 -2.3490
   10CHL1   C21  718   3.225   4.722   9.099 -0.1745 -0.3666  0.4560
   10CHL1  H21A  719   3.261   4.706   8.995  0.5287 -2.2203  0.9475
   10CHL1  H21B  720   3.255   4.637   9.164 -4.6203 -2.2325  0.4423
   10CHL1  H21C  721   3.266   4.821   9.128 -0.0520  0.8387 -3.3110
   10CHL1   C22  722   3.009   4.768   8.948  0.1869 -0.3051  0.0150
   10CHL1  H22A  723   2.902   4.799   8.949  0.9894  2.6927  1.3743
   10CHL1  H22B  724   3.070   4.850   8.907 -0.3459 -1.2910 -3.0042
   10CHL1   C23  725   3.010   4.659   8.844  0.3547  0.3293  0.2280
   10CHL1  H23A  726   3.114   4.621   8.839 -0.0508 -0.7249 -0.4445
   10CHL1  H23B  727   2.938   4.579   8.872 -0.0607  0.3505 -0.7434
   10CHL1   C24  728   2.969   4.717   8.709  0.6620 -0.2401 -0.1921
   10CHL1  H24A  729   2.880   4.783   8.706  1.3685  0.6895 -2.2329
   10CHL1  H24B  730   3.049   4.783   8.669  0.8055 -0.5424 -0.4052
   10CHL1   C25  731   2.945   4.601   8.612  0.2997 -1.1558 -0.3346
   10CHL1   H25  732   2.881   4.528   8.666 -1.5335  0.0717 -0.7598
   10CHL1   C26  733   2.888   4.654   8.477 -0.1168 -0.1415  0.6675
   10CHL1  H26A  734   2.794   4.714   8.483  0.0846  0.4116 -0.9681
   10CHL1  H26B  735   2.962   4.710   8.416  1.0524 -1.5965  0.7033
   10CHL1  H26C  736   2.853   4.565   8.420  1.2126 -0.7508  0.7707
   10CHL1   C27  737   3.074   4.520   8.570  0.5508  0.0824  0.0789
   10CHL1  H27A  738   3.152   4.592   8.537  0.2605 -0.8210 -2.8677
   10CHL1  H27B  739   3.101   4.464   8.662 -2.7722  1.3070  1.9627
   10CHL1  H27C  740   3.048   4.455   8.484 -0.9670 -0.3937  0.8677
   11CHL1    C3  741   5.077   1.933  10.187  0.3870  0.1103 -0.0655
   11CHL1    H3  742   4.968   1.940  10.167  0.4524  0.6305 -0.2451
   11CHL1    O3  743   5.103   1.866  10.307  0.6292  0.0106  0.2651
   11CHL1   H3'  744   5.192   1.893  10.332  0.2576  0.3503  1.2961
   11CHL1    C4  745   5.136   1.853  10.075 -0.0461  0.5518  0.4307
   11CHL1   H4A  746   5.238   1.821  10.106 -0.8477 -1.5415  1.0716
   11CHL1   H4B  747   5.074   1.761  10.072  3.9133 -2.3867 -2.2570
   11CHL1    C5  748   5.132   1.925   9.943 -0.1279  0.1310  0.1777
   11CHL1    C6  749   5.072   1.870   9.838 -0.9167  0.7070  1.0123
   11CHL1    H6  750   5.034   1.768   9.851 -0.2279 -0.0415 -2.1342
   11CHL1    C7  751   5.050   1.940   9.706  0.3962  0.2518  0.2216
   11CHL1   H7A  752   5.056   1.876   9.615  0.9719 -0.1876  0.5656
   11CHL1   H7B  753   4.947   1.983   9.700  0.7660  1.2038  0.4548
   11CHL1    C8  754   5.156   2.048   9.679  0.1343  0.4183 -0.3608
   11CHL1    H8  755   5.246   1.984   9.673 -1.8856 -2.5032 -1.6367
   11CHL1   C14  756   5.127   2.136   9.550  0.3345  0.6575  0.5878
   11CHL1   H14  757   5.034   2.190   9.578 -1.7859 -1.0833 -2.4351
   11CHL1   C15  758   5.096   2.068   9.413  0.0719 -1.2703 -0.0041
   11CHL1  H15A  759   5.174   1.993   9.388  2.0821  0.9863 -0.8837
   11CHL1  H15B  760   4.998   2.016   9.412 -0.0320 -1.0653 -0.7382
   11CHL1   C16  761   5.107   2.187   9.315  0.2542 -0.0631  0.2847
   11CHL1  H16A  762   5.151   2.154   9.218 -0.8854  0.5162 -0.4519
   11CHL1  H16B  763   5.007   2.232   9.296  1.7726  3.2526 -0.6267
   11CHL1   C17  764   5.192   2.302   9.386  0.5361 -0.5791  0.3776
   11CHL1   H17  765   5.109   2.372   9.412 -0.6198 -2.5845  2.4537
   11CHL1   C13  766   5.235   2.233   9.518 -0.2521 -0.3348  0.5503
   11CHL1   C18  767   5.374   2.167   9.508  0.8509  0.0805 -0.5817
   11CHL1  H18A  768   5.396   2.090   9.584  4.3069  1.0182 -0.4686
   11CHL1  H18B  769   5.378   2.115   9.411 -0.6440 -1.3413  0.0683
   11CHL1  H18C  770   5.451   2.247   9.519  1.0545  0.0423 -1.6380
   11CHL1   C12  771   5.239   2.325   9.640 -0.0939 -0.3856  0.1027
   11CHL1  H12A  772   5.317   2.404   9.647  1.0160 -1.4891  0.5919
   11CHL1  H12B  773   5.136   2.363   9.656 -2.1172 -4.4548 -1.7160
   11CHL1   C11  774   5.277   2.247   9.771 -0.0123  0.1598  0.1577
   11CHL1  H11A  775   5.379   2.206   9.762  0.0355  0.2882  0.1179
   11CHL1  H11B  776   5.266   2.326   9.850  2.8672 -0.3448  1.1808
   11CHL1    C9  777   5.170   2.139   9.804 -0.1147  0.2036 -0.0554
   11CHL1    H9  778   5.068   2.183   9.812 -1.8669 -3.4413 -0.5799
   11CHL1   C10  779   5.191   2.070   9.946  0.1436 -0.4485 -0.3055
   11CHL1   C19  780   5.341   2.051   9.976  0.3574 -0.2647  0.4095
   11CHL1  H19A  781   5.400   2.144   9.963  0.3206 -0.4437 -1.1700
   11CHL1  H19B  782   5.355   2.016  10.081  0.1126  2.1354  1.3102
   11CHL1  H19C  783   5.386   1.976   9.907  0.2832 -1.6205  1.7827
   11CHL1    C1  784   5.122   2.151  10.054  0.2101 -0.1385 -0.5922
   11CHL1   H1A  785   5.165   2.253  10.050 -0.3700  0.2318  1.3935
   11CHL1   H1B  786   5.019   2.171  10.017 -0.3361  0.2275  1.0210
   11CHL1    C2  787   5.123   2.078  10.189  0.2701  0.3020  0.3668
   11CHL1   H2A  788   5.053   2.142  10.247 -0.6175  0.7319 -1.1292
   11CHL1   H2B  789   5.228   2.085  10.224  0.5745 -1.0494 -0.2169
   11CHL1   C20  790   5.290   2.369   9.291 -0.4666  0.6485 -0.5462
   11CHL1   H20  791   5.369   2.294   9.266 -0.3821  0.0398  1.3776
   11CHL1   C21  792   5.349   2.481   9.375  0.2991  0.4679  0.3126
   11CHL1  H21A  793   5.411   2.447   9.460  0.6744  1.2481  0.3600
   11CHL1  H21B  794   5.271   2.548   9.417  2.6997  3.8881 -0.2667
   11CHL1  H21C  795   5.407   2.540   9.301 -1.7286  1.4916 -0.5284
   11CHL1   C22  796   5.235   2.433   9.158  0.0555  0.4455  0.4191
   11CHL1  H22A  797   5.153   2.365   9.128 -1.2038  0.6123  3.1695
   11CHL1  H22B  798   5.196   2.531   9.194  0.4322  0.9480 -0.4954
   11CHL1   C23  799   5.340   2.477   9.054  0.3463 -0.2368  0.2952
   11CHL1  H23A  800   5.425   2.523   9.108  0.8378  0.6789 -1.2012
   11CHL1  H23B  801   5.378   2.394   8.991  0.2131  0.5593 -0.8691
   11CHL1   C24  802   5.289   2.591   8.956 -0.0636  0.3717 -0.2178
   11CHL1  H24A  803   5.213   2.554   8.884 -0.7129  1.0707  0.0972
   11CHL1  H24B  804   5.248   2.673   9.017 -2.0750  1.7616 -3.1981
   11CHL1   C25  805   5.403   2.642   8.868  0.0629  0.0071 -0.0683
   11CHL1   H25  806   5.483   2.678   8.936 -0.5864 -0.3571  0.9003
   11CHL1   C26  807   5.464   2.529   8.771 -0.0806 -0.5247 -0.3204
   11CHL1  H26A  808   5.506   2.436   8.814 -0.9591 -0.7971 -0.0243
   11CHL1  H26B  809   5.390   2.497   8.694 -1.2295  1.1258  0.0262
   11CHL1  H26C  810   5.550   2.577   8.719 -0.5406  1.7032  0.8254
   11CHL1   C27  811   5.362   2.753   8.771  0.7875  0.5067 -0.3254
   11CHL1  H27A  812   5.276   2.715   8.712  0.0230 -2.7035  2.5563
   11CHL1  H27B  813   5.326   2.846   8.820 -1.3407  0.3397 -1.4565
   11CHL1  H27C  814   5.447   2.766   8.700  2.0267 -2.6409  0.4160
   12CHL1    C3  815   1.187   5.692  10.349 -0.4158 -0.0351 -1.0943
   12CHL1    H3  816   1.112   5.774  10.357 -0.0990  0.1367  0.4483
   12CHL1    O3  817   1.244   5.659  10.477 -0.7441 -0.4623 -0.3693
   12CHL1   H3'  818   1.179   5.686  10.542 -2.6242 -1.4740 -1.7418
   12CHL1    C4  819   1.117   5.564  10.297 -0.0871  0.4610  0.3207
   12CHL1   H4A  820   1.189   5.483  10.323 -0.4815  1.0261  3.7296
   12CHL1   H4B  821   1.027   5.555  10.362 -0.1046 -0.2085  0.2133
   12CHL1    C5  822   1.076   5.570  10.143  0.2036 -0.3112 -0.6785
   12CHL1    C6  823   0.955   5.526  10.102  0.4586  0.6754 -0.0565
   12CHL1    H6  824   0.886   5.478  10.173  1.6702 -2.0157 -0.5964
   12CHL1    C7  825   0.908   5.538   9.961  1.1185 -0.2113 -0.3737
   12CHL1   H7A  826   0.852   5.452   9.921  2.5726 -1.0450 -0.6887
   12CHL1   H7B  827   0.833   5.619   9.973 -0.4858 -1.6425 -0.4003
   12CHL1    C8  828   1.023   5.574   9.861 -0.1639 -0.0432  0.2130
   12CHL1    H8  829   1.078   5.482   9.834 -0.6957 -0.9279  1.9755
   12CHL1   C14  830   0.964   5.625   9.727  0.1228 -0.3481  0.2849
   12CHL1   H14  831   0.931   5.727   9.755 -0.0992 -0.3119 -0.0978
   12CHL1   C15  832   0.840   5.555   9.666 -0.1102 -0.2340  0.3237
   12CHL1  H15A  833   0.853   5.445   9.676  0.5145 -0.2904 -0.9160
   12CHL1  H15B  834   0.742   5.591   9.704  0.0779  0.6630 -0.0357
   12CHL1   C16  835   0.845   5.586   9.515 -0.2198  0.3917  0.3595
   12CHL1  H16A  836   0.871   5.487   9.471  0.2632 -0.1950  1.9184
   12CHL1  H16B  837   0.756   5.633   9.467  1.0723  1.0740 -1.4792
   12CHL1   C17  838   0.970   5.677   9.493 -0.2129 -0.1667 -0.3806
   12CHL1   H17  839   0.937   5.782   9.510  0.4512  0.2446 -1.4968
   12CHL1   C13  840   1.060   5.647   9.614 -0.7274 -0.8645  0.3101
   12CHL1   C18  841   1.148   5.526   9.582  0.4863  0.3572  0.7925
   12CHL1  H18A  842   1.079   5.440   9.567  0.5403  0.6072 -1.0701
   12CHL1  H18B  843   1.214   5.527   9.493  1.5288 -0.4913  1.5272
   12CHL1  H18C  844   1.208   5.496   9.671 -2.2728 -0.5739  2.4609
   12CHL1   C12  845   1.154   5.762   9.671 -0.3060  0.1760  0.3401
   12CHL1  H12A  846   1.238   5.778   9.601 -0.9957 -2.2023 -1.1735
   12CHL1  H12B  847   1.091   5.853   9.665 -0.1924  0.1828 -1.0522
   12CHL1   C11  848   1.217   5.733   9.810 -0.1699  0.0496 -0.0574
   12CHL1  H11A  849   1.297   5.656   9.803  1.4058  1.5755  0.5243
   12CHL1  H11B  850   1.267   5.828   9.838 -1.3370 -0.1309  3.0196
   12CHL1    C9  851   1.119   5.676   9.918  0.1291  0.3334  0.3472
   12CHL1    H9  852   1.046   5.758   9.935 -1.3153 -0.6574 -0.7688
   12CHL1   C10  853   1.177   5.641  10.055 -0.5078 -0.4557  0.3756
   12CHL1   C19  854   1.293   5.543  10.031  0.1873  0.1419  0.4426
   12CHL1  H19A  855   1.328   5.510  10.131 -0.9320 -1.8645  0.2231
   12CHL1  H19B  856   1.253   5.452   9.982  0.5438  0.8753 -1.2717
   12CHL1  H19C  857   1.382   5.581   9.976 -1.4315  0.6686 -2.0127
   12CHL1    C1  858   1.240   5.769  10.122  0.5611 -0.4220  0.0077
   12CHL1   H1A  859   1.320   5.811  10.057 -1.0956  1.0894 -1.1752
   12CHL1   H1B  860   1.171   5.854  10.140  0.1619 -0.7461  0.0259
   12CHL1    C2  861   1.295   5.746  10.257 -0.2800 -0.3250  0.1671
   12CHL1   H2A  862   1.318   5.848  10.294  1.6371 -0.1533 -1.3071
   12CHL1   H2B  863   1.387   5.684  10.259 -0.0716  0.0080  1.2407
   12CHL1   C20  864   1.036   5.659   9.358 -0.1500  0.4508  0.2673
   12CHL1   H20  865   1.068   5.553   9.349 -2.3885 -0.1291 -1.8013
   12CHL1   C21  866   1.152   5.752   9.323  0.1084 -0.6596 -0.1805
   12CHL1  H21A  867   1.220   5.751   9.411 -1.4562 -0.5411  1.0596
   12CHL1  H21B  868   1.126   5.856   9.293  2.0660 -0.2136 -0.5274
   12CHL1  H21C  869   1.205   5.716   9.232 -1.0059  0.5697 -1.3539
   12CHL1   C22  870   0.933   5.672   9.242  0.5339  0.1117 -0.3328
   12CHL1  H22A  871   0.853   5.596   9.254  0.3392  0.5205  1.2556
   12CHL1  H22B  872   0.906   5.780   9.241  1.3998  0.3510  0.2530
   12CHL1   C23  873   0.992   5.650   9.099 -0.1519 -0.9475 -0.0127
   12CHL1  H23A  874   0.910   5.673   9.028 -1.2374  0.3701  1.5858
   12CHL1  H23B  875   1.060   5.733   9.069 -0.3121 -0.8259 -0.0419
   12CHL1   C24  876   1.039   5.512   9.076  0.4449  0.3590  0.0980
   12CHL1  H24A  877   1.105   5.480   9.159  3.1515 -0.4817 -2.2332
   12CHL1  H24B  878   0.954   5.440   9.069 -0.4208  1.1990  1.6022
   12CHL1   C25  879   1.116   5.499   8.937 -0.4276 -0.5399 -0.7968
   12CHL1   H25  880   1.183   5.587   8.922 -1.7045  0.7089  0.5468
   12CHL1   C26  881   1.203   5.371   8.951 -0.6168 -0.7358 -0.0455
   12CHL1  H26A  882   1.145   5.279   8.972  0.9357 -1.5929  0.6551
   12CHL1  H26B  883   1.242   5.351   8.850 -1.4494  0.7633 -0.6962
   12CHL1  H26C  884   1.279   5.398   9.027 -0.8066 -0.1000 -0.0756
   12CHL1   C27  885   1.025   5.475   8.819 -0.6021  0.9474  0.1389
   12CHL1  H27A  886   1.084   5.464   8.725 -0.1181 -3.3157  0.7470
   12CHL1  H27B  887   0.987   5.372   8.835  2.7042 -0.2909  0.7111
   12CHL1  H27C  888   0.946   5.553   8.813 -0.4381  1.0948 -0.1443
   13CHL1    C3  889   1.182   0.747  10.084 -0.1725 -0.0586 -0.2506
   13CHL1    H3  890   1.280   0.707  10.051  0.6179 -0.9174  2.7746
   13CHL1    O3  891   1.170   0.757  10.230 -0.0586  0.0663  0.5163
   13CHL1   H3'  892   1.221   0.680  10.258  0.1577 -0.3270 -0.8755
   13CHL1    C4  893   1.169   0.888  10.022 -0.3354  0.0193 -0.6148
   13CHL1   H4A  894   1.078   0.938  10.060  0.1926 -0.8314  1.9813
   13CHL1   H4B  895   1.256   0.940  10.068  0.0469 -1.7575  0.7942
   13CHL1    C5  896   1.176   0.880   9.871  0.6616  0.1348 -0.3913
   13CHL1    C6  897   1.277   0.937   9.805 -0.8324 -0.0949  0.0905
   13CHL1    H6  898   1.361   0.988   9.856  0.1623  0.2984 -1.8625
   13CHL1    C7  899   1.292   0.950   9.656 -0.3675  0.1601  0.0046
   13CHL1   H7A  900   1.300   1.059   9.634 -1.8823  0.4131  0.5504
   13CHL1   H7B  901   1.384   0.902   9.617 -1.3265 -0.5612 -1.4378
   13CHL1    C8  902   1.170   0.896   9.575  0.0507 -0.2323  0.6072
   13CHL1    H8  903   1.100   0.982   9.569  1.2076  0.6188 -2.2994
   13CHL1   C14  904   1.201   0.864   9.435  0.1773 -0.5051  0.7190
   13CHL1   H14  905   1.278   0.784   9.444  0.2833 -0.2548  2.2415
   13CHL1   C15  906   1.266   0.979   9.351 -0.0620 -0.1687 -0.1391
   13CHL1  H15A  907   1.204   1.071   9.354  0.0405 -0.1084  0.1293
   13CHL1  H15B  908   1.366   1.003   9.392  0.0276  2.4098 -1.6300
   13CHL1   C16  909   1.266   0.922   9.206  0.7666  0.1482 -0.1284
   13CHL1  H16A  910   1.228   1.003   9.140 -0.9070  0.2730  0.9242
   13CHL1  H16B  911   1.369   0.890   9.181  0.3503 -1.1546 -0.2130
   13CHL1   C17  912   1.161   0.805   9.213 -0.5122  0.2267 -0.1343
   13CHL1   H17  913   1.207   0.704   9.222 -1.4397 -0.4096 -2.0183
   13CHL1   C13  914   1.091   0.808   9.348  0.6486 -0.5488  0.1705
   13CHL1   C18  915   0.978   0.906   9.335  0.2475  0.0488 -0.1115
   13CHL1  H18A  916   0.890   0.871   9.275  1.8269 -1.4851 -1.6422
   13CHL1  H18B  917   0.941   0.952   9.429 -0.3057  2.1110 -1.2590
   13CHL1  H18C  918   1.008   0.998   9.280  2.3028 -0.3313  0.3132
   13CHL1   C12  919   1.038   0.679   9.405 -0.0812 -0.8522 -0.0922
   13CHL1  H12A  920   0.954   0.646   9.340  1.0343 -1.1904 -1.4129
   13CHL1  H12B  921   1.121   0.605   9.398  0.0660 -0.8180  1.0697
   13CHL1   C11  922   1.000   0.701   9.552 -0.3884 -0.4148 -0.1637
   13CHL1  H11A  923   0.906   0.760   9.564 -0.4545 -0.7591  1.1929
   13CHL1  H11B  924   0.977   0.604   9.601  0.7184 -0.3863  0.4507
   13CHL1    C9  925   1.106   0.776   9.643 -0.0133  0.1273  0.0979
   13CHL1    H9  926   1.183   0.696   9.645 -0.7511 -0.6236 -0.4864
   13CHL1   C10  927   1.064   0.797   9.795  0.0410 -0.6759 -1.1208
   13CHL1   C19  928   0.929   0.867   9.808 -0.5455 -0.4835  0.9286
   13CHL1  H19A  929   0.918   0.915   9.908  2.0774 -0.9086  1.4774
   13CHL1  H19B  930   0.910   0.951   9.737 -0.2985 -0.0157  1.4035
   13CHL1  H19C  931   0.847   0.792   9.799 -0.8202  0.0391 -1.9559
   13CHL1    C1  932   1.065   0.659   9.871 -0.5030 -0.3622  0.7209
   13CHL1   H1A  933   0.970   0.610   9.843 -1.4009  1.5094  0.3400
   13CHL1   H1B  934   1.154   0.609   9.826 -1.1841 -0.4538 -0.5685
   13CHL1    C2  935   1.069   0.658  10.030 -0.0206 -0.4046  0.4923
   13CHL1   H2A  936   1.080   0.554  10.066  1.5194  0.2661  2.0673
   13CHL1   H2B  937   0.974   0.705  10.063  0.8469  1.8436 -0.0178
   13CHL1   C20  938   1.086   0.800   9.076  0.2367 -0.2084 -0.1373
   13CHL1   H20  939   1.035   0.898   9.074 -0.5258 -0.6001 -0.2326
   13CHL1   C21  940   0.983   0.688   9.071  0.0402 -0.2936  0.1431
   13CHL1  H21A  941   1.041   0.595   9.088  1.2393  0.4425  0.1679
   13CHL1  H21B  942   0.924   0.688   8.976 -1.4294  0.9407  1.0015
   13CHL1  H21C  943   0.910   0.696   9.155  1.0767 -0.1401  1.0413
   13CHL1   C22  944   1.173   0.796   8.947  0.0762  0.0047 -0.3666
   13CHL1  H22A  945   1.106   0.771   8.862  1.0518  1.8877 -1.7667
   13CHL1  H22B  946   1.201   0.901   8.925 -1.9307  0.2996 -1.7961
   13CHL1   C23  947   1.281   0.692   8.942  0.0809 -0.5941 -0.7785
   13CHL1  H23A  948   1.364   0.739   9.000 -1.0557 -0.7402  1.0431
   13CHL1  H23B  949   1.242   0.607   9.001 -0.3859  0.6353  0.7401
   13CHL1   C24  950   1.344   0.665   8.801 -0.0406  0.0470  0.0626
   13CHL1  H24A  951   1.429   0.597   8.823 -1.1294 -1.7179 -0.9489
   13CHL1  H24B  952   1.269   0.615   8.736 -0.6790 -0.2512  1.0236
   13CHL1   C25  953   1.391   0.791   8.724  1.3118 -0.3700  0.3171
   13CHL1   H25  954   1.310   0.867   8.723 -0.1514 -1.7690 -2.4908
   13CHL1   C26  955   1.508   0.848   8.801 -0.8381 -0.1083 -0.0872
   13CHL1  H26A  956   1.483   0.922   8.880  1.9412 -0.2629  1.0534
   13CHL1  H26B  957   1.568   0.770   8.851 -1.0237  0.5050  1.1241
   13CHL1  H26C  958   1.573   0.901   8.728 -1.1607 -0.2013 -0.4489
   13CHL1   C27  959   1.415   0.760   8.576 -0.1277 -0.0282  0.6501
   13CHL1  H27A  960   1.482   0.834   8.528 -0.0549 -0.6277 -0.1940
   13CHL1  H27B  961   1.467   0.664   8.557 -0.8711 -0.2287 -0.4668
   13CHL1  H27C  962   1.315   0.750   8.529  0.0893  1.0555 -0.0797
   14CHL1    C3  963   1.143   3.108  10.323 -0.1735 -0.9816 -0.2182
   14CHL1    H3  964   1.245   3.145  10.301 -1.1964  2.6281  0.5198
   14CHL1    O3  965   1.127   3.054  10.456  0.8965  0.6019  0.3991
   14CHL1   H3'  966   1.034   3.033  10.464  0.1314  2.5798 -1.9132
   14CHL1    C4  967   1.033   3.205  10.293 -0.4436 -0.4844  0.4700
   14CHL1   H4A  968   0.936   3.166  10.329 -0.8061 -0.5051 -0.4884
   14CHL1   H4B  969   1.044   3.290  10.364  0.4066 -1.7424  1.8984
   14CHL1    C5  970   1.026   3.258  10.148  0.0089 -0.7154 -0.1657
   14CHL1    C6  971   1.044   3.390  10.107  0.2891  0.7767  0.1425
   14CHL1    H6  972   1.054   3.464  10.188  1.2375 -2.4066  3.1967
   14CHL1    C7  973   1.028   3.438   9.959  0.4602  0.3163  0.1251
   14CHL1   H7A  974   0.963   3.528   9.950  0.3007  0.3174  1.1235
   14CHL1   H7B  975   1.129   3.474   9.930  0.4981 -0.6943 -1.0741
   14CHL1    C8  976   0.975   3.325   9.864 -0.3184 -0.2492  0.4378
   14CHL1    H8  977   0.867   3.337   9.885 -0.1434 -0.0141  1.2101
   14CHL1   C14  978   1.011   3.358   9.716 -0.2861 -0.8417 -0.8320
   14CHL1   H14  979   1.121   3.374   9.715 -0.2348 -1.1850 -1.4262
   14CHL1   C15  980   0.952   3.493   9.658  0.1131 -0.2493  0.0735
   14CHL1  H15A  981   0.845   3.508   9.686 -0.1542 -0.0171 -1.0349
   14CHL1  H15B  982   1.016   3.580   9.682 -0.1834  0.5094 -1.7102
   14CHL1   C16  983   0.971   3.469   9.507  0.6500 -0.2817  0.9202
   14CHL1  H16A  984   0.870   3.479   9.462  1.3506 -1.7954 -1.1640
   14CHL1  H16B  985   1.040   3.539   9.454 -0.9316 -0.9342 -2.2588
   14CHL1   C17  986   1.026   3.325   9.483 -0.1309 -0.2001  0.6389
   14CHL1   H17  987   1.136   3.335   9.477 -0.1043 -0.3530  0.8342
   14CHL1   C13  988   0.986   3.253   9.612  0.1008  0.4526 -0.4862
   14CHL1   C18  989   0.835   3.200   9.608  0.0906  0.0196 -0.9595
   14CHL1  H18A  990   0.805   3.171   9.711  1.1215 -2.3626 -1.2612
   14CHL1  H18B  991   0.774   3.278   9.558  1.1962  0.5250 -1.5581
   14CHL1  H18C  992   0.825   3.108   9.547 -1.3135 -0.6959  0.3141
   14CHL1   C12  993   1.069   3.132   9.649 -0.3767 -0.3115  0.2657
   14CHL1  H12A  994   1.062   3.048   9.576 -1.4639  1.3858 -1.7049
   14CHL1  H12B  995   1.172   3.172   9.662 -0.9766  1.6208 -0.5522
   14CHL1   C11  996   1.037   3.090   9.792  0.4643  0.2941  0.7244
   14CHL1  H11A  997   0.940   3.036   9.786  1.5215 -1.5481 -1.0493
   14CHL1  H11B  998   1.105   3.006   9.820 -0.8169 -1.4712 -1.0993
   14CHL1    C9  999   1.040   3.197   9.900 -0.3551  0.7003  0.0731
   14CHL1    H9 1000   1.147   3.228   9.902 -0.3179  0.5627  0.2642
   14CHL1   C10 1001   1.010   3.149  10.045 -0.3188 -0.3083 -0.0246
   14CHL1   C19 1002   0.867   3.097  10.042  0.3750 -0.5907 -0.4252
   14CHL1  H19A 1003   0.786   3.166  10.011 -0.8965 -2.2720 -1.0126
   14CHL1  H19B 1004   0.865   3.000   9.989 -0.5013 -0.5689 -0.4407
   14CHL1  H19C 1005   0.833   3.076  10.146  0.3744 -1.1534 -0.5355
   14CHL1    C1 1006   1.114   3.037  10.083  0.1756 -0.8398  0.5286
   14CHL1   H1A 1007   1.101   2.947  10.019 -1.7484  1.0538 -1.9516
   14CHL1   H1B 1008   1.217   3.070  10.059  0.5769 -0.9205  2.0400
   14CHL1    C2 1009   1.114   2.994  10.230 -0.1894 -0.0646 -0.1095
   14CHL1   H2A 1010   1.187   2.911  10.245  0.2026  0.3324  0.1873
   14CHL1   H2B 1011   1.011   2.960  10.252 -1.0574  2.4692  0.0605
   14CHL1   C20 1012   0.968   3.249   9.350 -0.1036  0.4342  0.2548
   14CHL1   H20 1013   0.915   3.153   9.368  2.4817 -1.4961 -1.6407
   14CHL1   C21 1014   1.098   3.214   9.273  0.5505  0.1344 -0.1539
   14CHL1  H21A 1015   1.084   3.174   9.171 -0.4050 -0.2251  0.1031
   14CHL1  H21B 1016   1.161   3.137   9.323  0.4278  0.7401  0.9811
   14CHL1  H21C 1017   1.169   3.300   9.270  0.9207 -0.1338  0.6068
   14CHL1   C22 1018   0.871   3.328   9.271 -0.6103 -0.2411  0.0305
   14CHL1  H22A 1019   0.781   3.365   9.326 -1.5585  0.0994 -1.6945
   14CHL1  H22B 1020   0.924   3.417   9.231 -1.1071 -0.0097 -0.1207
   14CHL1   C23 1021   0.819   3.246   9.151 -0.1345  0.1937 -0.2734
   14CHL1  H23A 1022   0.902   3.236   9.079  2.2808 -0.6119  2.4388
   14CHL1  H23B 1023   0.777   3.146   9.176 -2.0494  0.7877 -0.9052
   14CHL1   C24 1024   0.705   3.325   9.085  0.4856  0.8242 -0.0078
   14CHL1  H24A 1025   0.618   3.354   9.148  0.0035  1.7096 -1.0350
   14CHL1  H24B 1026   0.747   3.421   9.049 -0.3918  1.6208  1.0216
   14CHL1   C25 1027   0.629   3.246   8.966 -0.4399 -0.0259 -0.0940
   14CHL1   H25 1028   0.571   3.167   9.018  2.1513 -1.7901  0.3590
   14CHL1   C26 1029   0.539   3.346   8.893  0.0137  0.4786  0.6169
   14CHL1  H26A 1030   0.464   3.389   8.963 -0.3368  2.2779 -0.7836
   14CHL1  H26B 1031   0.603   3.423   8.844  0.1624  0.0888  0.1860
   14CHL1  H26C 1032   0.486   3.299   8.807 -0.8106 -0.9705  1.8635
   14CHL1   C27 1033   0.736   3.190   8.873 -0.1576 -0.5454 -0.2071
   14CHL1  H27A 1034   0.814   3.266   8.850 -0.8916  0.3985  0.3640
   14CHL1  H27B 1035   0.792   3.106   8.919 -0.0523  0.1625  0.9930
   14CHL1  H27C 1036   0.695   3.158   8.775  2.4203 -1.6274 -1.0258
   15CHL1    C3 1037   5.864   2.178  10.139  0.0730 -0.3924  0.1384
   15CHL1    H3 1038   5.790   2.096  10.122  0.3352 -0.5019 -0.4849
   15CHL1    O3 1039   5.891   2.199  10.277  0.3430  0.1756 -0.5951
   15CHL1   H3' 1040   5.804   2.199  10.318  0.4748  1.5068 -0.2694
   15CHL1    C4 1041   5.995   2.150  10.061 -0.4319 -0.5806  0.3726
   15CHL1   H4A 1042   6.064   2.237  10.067  0.2245 -1.1296  0.8791
   15CHL1   H4B 1043   6.042   2.058  10.100  1.4028  0.4881  0.7477
   15CHL1    C5 1044   5.953   2.142   9.915 -0.5490  0.2978 -0.2473
   15CHL1    C6 1045   5.955   2.028   9.847  0.2748  0.0024 -0.1642
   15CHL1    H6 1046   6.004   1.945   9.900 -0.7429 -0.2188  0.4543
   15CHL1    C7 1047   5.928   2.016   9.702  0.6646 -0.3525 -0.2082
   15CHL1   H7A 1048   5.988   1.936   9.654  2.6075 -1.0049  3.0142
   15CHL1   H7B 1049   5.824   1.977   9.693  0.5775 -0.3278  0.6416
   15CHL1    C8 1050   5.935   2.156   9.626 -0.5159 -0.2446 -0.6104
   15CHL1    H8 1051   6.040   2.192   9.614 -0.9699  1.1464 -0.5229
   15CHL1   C14 1052   5.871   2.138   9.492 -0.7442 -0.5778  0.7907
   15CHL1   H14 1053   5.767   2.105   9.514 -2.1882  2.7790 -0.2923
   15CHL1   C15 1054   5.923   2.017   9.400 -0.3463 -0.4832  0.0093
   15CHL1  H15A 1055   6.033   2.027   9.394 -0.3923  1.2046  1.0642
   15CHL1  H15B 1056   5.895   1.917   9.440 -1.2547 -0.4822 -0.5934
   15CHL1   C16 1057   5.869   2.056   9.257  0.1176  0.4897 -0.6832
   15CHL1  H16A 1058   5.962   2.078   9.202  0.2463  2.4879  0.2567
   15CHL1  H16B 1059   5.796   1.981   9.220  1.6323 -0.4836 -1.8077
   15CHL1   C17 1060   5.785   2.193   9.283 -0.5899 -0.4932 -0.1277
   15CHL1   H17 1061   5.683   2.162   9.310 -0.6158 -0.8288 -0.5978
   15CHL1   C13 1062   5.858   2.257   9.404  0.3395 -0.4504 -0.2159
   15CHL1   C18 1063   6.001   2.311   9.367 -0.6020 -0.3958 -0.0660
   15CHL1  H18A 1064   6.052   2.343   9.460  0.6551 -0.2754 -0.7712
   15CHL1  H18B 1065   6.072   2.233   9.331  1.5049  0.4457  1.9959
   15CHL1  H18C 1066   5.994   2.405   9.307  0.6626  0.2054  0.6849
   15CHL1   C12 1067   5.776   2.364   9.481  0.3635 -0.0618  0.0460
   15CHL1  H12A 1068   5.777   2.462   9.428  1.2740  0.1273  0.3885
   15CHL1  H12B 1069   5.670   2.335   9.475  0.1645  0.8435 -1.1570
   15CHL1   C11 1070   5.836   2.393   9.623  0.5242  0.6724  0.6879
   15CHL1  H11A 1071   5.935   2.439   9.602  1.8113 -1.4978  1.7013
   15CHL1  H11B 1072   5.773   2.470   9.673  0.1251 -0.0914  1.3783
   15CHL1    C9 1073   5.855   2.255   9.698 -0.3851  0.1045 -0.4685
   15CHL1    H9 1074   5.758   2.203   9.707 -0.6317  0.8086  1.1868
   15CHL1   C10 1075   5.903   2.268   9.847 -0.9658  0.5453  0.9260
   15CHL1   C19 1076   6.030   2.354   9.842  0.2859 -0.0785 -0.3299
   15CHL1  H19A 1077   6.006   2.456   9.805 -0.4179  0.0053  0.3244
   15CHL1  H19B 1078   6.072   2.383   9.941 -0.2371  0.6721 -0.3184
   15CHL1  H19C 1079   6.111   2.303   9.786  0.9501 -1.1872  1.5433
   15CHL1    C1 1080   5.794   2.322   9.936  0.9492  0.3558  0.2128
   15CHL1   H1A 1081   5.776   2.427   9.903 -1.6684 -1.0186 -3.4616
   15CHL1   H1B 1082   5.705   2.260   9.912 -1.0471  3.0460  0.2055
   15CHL1    C2 1083   5.808   2.315  10.093  0.7452  0.0884  0.2909
   15CHL1   H2A 1084   5.706   2.342  10.128  0.9629  1.8719 -0.3255
   15CHL1   H2B 1085   5.873   2.403  10.114  0.2553  1.2987 -2.7193
   15CHL1   C20 1086   5.781   2.280   9.153  0.1769  0.4016 -0.3323
   15CHL1   H20 1087   5.875   2.335   9.132 -0.3725  0.9791 -1.3367
   15CHL1   C21 1088   5.670   2.386   9.175 -0.1839 -0.2569  0.1058
   15CHL1  H21A 1089   5.706   2.479   9.224  2.6943 -2.2338  2.0899
   15CHL1  H21B 1090   5.590   2.339   9.235 -1.2461 -0.9282 -1.7516
   15CHL1  H21C 1091   5.629   2.417   9.077 -0.6198  1.7052  0.8608
   15CHL1   C22 1092   5.747   2.193   9.027  0.1624 -0.5602 -0.0909
   15CHL1  H22A 1093   5.800   2.096   9.014  0.2503 -0.3820 -1.1689
   15CHL1  H22B 1094   5.637   2.177   9.027  0.3253 -1.9492 -2.0378
   15CHL1   C23 1095   5.790   2.280   8.902 -0.5857  0.5631 -0.2311
   15CHL1  H23A 1096   5.752   2.384   8.908 -1.5570  0.3144 -1.5903
   15CHL1  H23B 1097   5.899   2.283   8.918 -0.8982 -1.5150  3.1743
   15CHL1   C24 1098   5.738   2.228   8.766  0.0138  0.1063  0.4342
   15CHL1  H24A 1099   5.789   2.131   8.746  0.4200  0.5653 -0.8157
   15CHL1  H24B 1100   5.629   2.206   8.769 -0.4895  2.2361 -0.6948
   15CHL1   C25 1101   5.768   2.320   8.650 -0.7998 -0.1434 -1.1307
   15CHL1   H25 1102   5.714   2.416   8.665 -3.2050 -1.8133  2.1367
   15CHL1   C26 1103   5.914   2.352   8.635 -0.3137  0.2494  0.7295
   15CHL1  H26A 1104   5.972   2.258   8.630  0.0976  0.3495  2.7219
   15CHL1  H26B 1105   5.932   2.411   8.542  2.8391  0.0293  1.0979
   15CHL1  H26C 1106   5.952   2.403   8.725  2.0210 -0.1997  0.0556
   15CHL1   C27 1107   5.716   2.270   8.516 -0.3719 -0.2891 -0.1666
   15CHL1  H27A 1108   5.767   2.182   8.470  0.2007  0.0419 -0.1674
   15CHL1  H27B 1109   5.610   2.237   8.522 -0.4226 -0.3970 -1.2950
   15CHL1  H27C 1110   5.723   2.360   8.451  2.2087  0.3274  0.8438
   16CHL1    C3 1111   6.334   0.917  10.395 -0.6139  0.2721 -0.2772
   16CHL1    H3 1112   6.430   0.972  10.394 -0.0221 -0.6658  1.3448
   16CHL1    O3 1113   6.293   0.885  10.528 -0.5631  0.2820  0.0412
   16CHL1   H3' 1114   6.219   0.825  10.516 -0.0179 -0.5629  0.7387
   16CHL1    C4 1115   6.217   1.009  10.340  0.1540  0.9711  0.3305
   16CHL1   H4A 1116   6.118   0.963  10.360  1.2618 -2.5507 -1.5463
   16CHL1   H4B 1117   6.215   1.094  10.412  1.0015  1.3624 -0.0876
   16CHL1    C5 1118   6.236   1.035  10.199 -0.1161  0.8240 -0.3040
   16CHL1    C6 1119   6.257   1.152  10.141 -0.6183 -0.4482  0.5530
   16CHL1    H6 1120   6.249   1.245  10.200  3.1638  0.3439  0.0377
   16CHL1    C7 1121   6.268   1.178   9.992  0.5561  0.6322 -0.0612
   16CHL1   H7A 1122   6.213   1.267   9.955  1.4461  1.7948  1.2965
   16CHL1   H7B 1123   6.377   1.186   9.970  1.0278  0.0853  1.8691
   16CHL1    C8 1124   6.221   1.057   9.908 -0.5547 -0.2036 -0.0627
   16CHL1    H8 1125   6.110   1.054   9.918 -0.4349 -2.1882  1.1538
   16CHL1   C14 1126   6.266   1.079   9.763 -0.4608  0.0007 -0.2674
   16CHL1   H14 1127   6.377   1.086   9.763 -0.3908  1.8365  3.9793
   16CHL1   C15 1128   6.224   1.210   9.693  0.0186 -0.2579  0.2371
   16CHL1  H15A 1129   6.119   1.231   9.723 -0.2560 -1.2182 -0.0249
   16CHL1  H15B 1130   6.299   1.285   9.727  2.4529 -2.6274  0.4907
   16CHL1   C16 1131   6.238   1.172   9.542 -0.8183  0.3454  0.2426
   16CHL1  H16A 1132   6.146   1.196   9.485 -1.0197 -1.5651 -0.3385
   16CHL1  H16B 1133   6.323   1.227   9.496 -2.2913  2.5544  0.0665
   16CHL1   C17 1134   6.277   1.026   9.540 -0.7294  0.0477  0.6495
   16CHL1   H17 1135   6.387   1.017   9.550 -0.7887  0.6488  2.1031
   16CHL1   C13 1136   6.221   0.975   9.673 -0.3416 -0.5308  0.0185
   16CHL1   C18 1137   6.064   0.969   9.677 -0.1417 -0.0969 -0.0963
   16CHL1  H18A 1138   6.014   1.064   9.648 -0.0982  0.6033  1.9286
   16CHL1  H18B 1139   6.027   0.892   9.607 -0.7717 -1.1445  1.3419
   16CHL1  H18C 1140   6.030   0.924   9.773 -0.1285 -1.4894 -0.7205
   16CHL1   C12 1141   6.283   0.845   9.716  0.4752 -0.3058 -0.6581
   16CHL1  H12A 1142   6.229   0.763   9.665  0.0225  0.6657 -1.7804
   16CHL1  H12B 1143   6.391   0.850   9.695  0.8041 -0.6372  0.8348
   16CHL1   C11 1144   6.258   0.815   9.866  0.0746 -0.1946  0.4520
   16CHL1  H11A 1145   6.151   0.785   9.866  0.1054 -0.3373 -0.5086
   16CHL1  H11B 1146   6.306   0.722   9.904  0.3766  0.0253  0.6159
   16CHL1    C9 1147   6.284   0.925   9.965  1.1172  0.3174 -0.2893
   16CHL1    H9 1148   6.391   0.951   9.951  1.1648  0.7684  0.8402
   16CHL1   C10 1149   6.255   0.902  10.116 -0.7114 -0.4967  0.6503
   16CHL1   C19 1150   6.125   0.826  10.119  0.3948 -0.1139 -0.0034
   16CHL1  H19A 1151   6.047   0.876  10.058 -2.1774 -1.4401  2.0091
   16CHL1  H19B 1152   6.141   0.722  10.082  0.5592  0.6041 -2.1216
   16CHL1  H19C 1153   6.075   0.806  10.215 -0.8385  0.4278 -0.5158
   16CHL1    C1 1154   6.365   0.814  10.174  0.0414  0.5718  0.5096
   16CHL1   H1A 1155   6.353   0.711  10.133 -3.2994  0.8058  0.5585
   16CHL1   H1B 1156   6.465   0.856  10.152 -0.4293  0.7295 -1.5924
   16CHL1    C2 1157   6.351   0.788  10.320  0.1731  0.1086 -0.0287
   16CHL1   H2A 1158   6.446   0.742  10.354 -0.6684 -0.7594  1.2842
   16CHL1   H2B 1159   6.270   0.716  10.346  1.1194 -0.3229  1.9457
   16CHL1   C20 1160   6.241   0.959   9.406  0.3491 -0.2829  0.1279
   16CHL1   H20 1161   6.133   0.941   9.389  0.6125 -0.7254 -1.2102
   16CHL1   C21 1162   6.315   0.822   9.401 -0.1017 -0.1182  0.0803
   16CHL1  H21A 1163   6.426   0.821   9.392 -0.0173 -0.7145  1.0385
   16CHL1  H21B 1164   6.274   0.794   9.302  0.0706 -2.5063  0.6332
   16CHL1  H21C 1165   6.279   0.753   9.480  1.0098  0.4951  1.1683
   16CHL1   C22 1166   6.291   1.049   9.286  0.6392 -0.3048  0.5541
   16CHL1  H22A 1167   6.262   1.156   9.293 -1.4882 -0.9225  2.5732
   16CHL1  H22B 1168   6.401   1.053   9.292  0.6297 -0.2810  0.7251
   16CHL1   C23 1169   6.259   1.001   9.138 -0.1339  0.4501  0.1979
   16CHL1  H23A 1170   6.311   1.075   9.073 -1.4225  2.0065  0.8819
   16CHL1  H23B 1171   6.301   0.900   9.119 -0.2184 -0.1695  2.9553
   16CHL1   C24 1172   6.106   1.001   9.103  0.5829  0.8508  0.0871
   16CHL1  H24A 1173   6.074   0.909   9.156  2.5128  0.8091  1.2362
   16CHL1  H24B 1174   6.055   1.085   9.156 -0.9011 -0.4679  0.8253
   16CHL1   C25 1175   6.072   0.992   8.953  0.8076 -0.2126 -0.3321
   16CHL1   H25 1176   6.139   1.056   8.892  1.7328 -1.1529 -0.3102
   16CHL1   C26 1177   6.068   0.844   8.903  0.2552  0.1212 -0.4100
   16CHL1  H26A 1178   6.088   0.838   8.794  0.8852  0.9575 -0.3595
   16CHL1  H26B 1179   6.146   0.774   8.939 -0.9782 -1.0940 -0.0300
   16CHL1  H26C 1180   5.973   0.795   8.932  0.3219  1.4167  2.3070
   16CHL1   C27 1181   5.936   1.064   8.923 -0.0973  0.4255  0.0487
   16CHL1  H27A 1182   5.934   1.166   8.968 -0.0732  0.6810 -0.5236
   16CHL1  H27B 1183   5.915   1.079   8.815 -2.7641  0.7603  0.5430
   16CHL1  H27C 1184   5.847   1.013   8.967 -0.3130  0.4898 -0.3094
   17CHL1    C3 1185   5.149   5.552  10.292  0.1810  0.1812  0.8254
   17CHL1    H3 1186   5.237   5.487  10.273 -1.1310 -1.7302  0.9565
   17CHL1    O3 1187   5.090   5.517  10.412  0.1010  0.1543 -0.3753
   17CHL1   H3' 1188   5.133   5.563  10.484 -0.1104  0.6763 -0.5756
   17CHL1    C4 1189   5.188   5.703  10.292 -0.3573  0.2282  0.5952
   17CHL1   H4A 1190   5.092   5.759  10.306  0.6372  2.2632 -0.3340
   17CHL1   H4B 1191   5.256   5.739  10.372  2.3435 -1.7216 -0.6932
   17CHL1    C5 1192   5.233   5.742  10.157  0.5987 -0.0527  0.1922
   17CHL1    C6 1193   5.361   5.794  10.138 -0.3406 -0.2922  0.2987
   17CHL1    H6 1194   5.424   5.820  10.225 -0.9711  1.3053  0.3087
   17CHL1    C7 1195   5.422   5.829   9.999 -0.5097  0.7290 -0.4310
   17CHL1   H7A 1196   5.485   5.919  10.011 -2.3223  2.1755 -1.2705
   17CHL1   H7B 1197   5.488   5.743   9.973  1.3104  1.3148  1.8831
   17CHL1    C8 1198   5.315   5.835   9.890  0.3784 -0.3321  0.0329
   17CHL1    H8 1199   5.257   5.927   9.911  1.6352  0.0552  2.1043
   17CHL1   C14 1200   5.377   5.844   9.751  0.2558 -0.3939  0.8782
   17CHL1   H14 1201   5.434   5.750   9.729 -0.5832 -0.6379 -0.3778
   17CHL1   C15 1202   5.473   5.955   9.718 -0.7316  0.1348  0.4150
   17CHL1  H15A 1203   5.429   6.035   9.782  1.7552  1.0207  1.1656
   17CHL1  H15B 1204   5.572   5.932   9.763 -0.1265 -0.3872 -1.1152
   17CHL1   C16 1205   5.466   5.985   9.569  0.0096  0.0203 -0.4007
   17CHL1  H16A 1206   5.439   6.092   9.554  0.8234  0.3939  0.6614
   17CHL1  H16B 1207   5.562   5.964   9.517 -1.0378 -3.8554 -1.0779
   17CHL1   C17 1208   5.363   5.889   9.512  0.1095 -0.0571 -0.1715
   17CHL1   H17 1209   5.417   5.795   9.491 -0.0082  0.0296 -0.8873
   17CHL1   C13 1210   5.272   5.854   9.633 -0.0838  0.5155 -0.4083
   17CHL1   C18 1211   5.183   5.980   9.657  0.5255  0.4575  0.2896
   17CHL1  H18A 1212   5.246   6.072   9.650 -1.2517  1.6074 -1.7501
   17CHL1  H18B 1213   5.109   5.991   9.575  0.9310  1.1247 -0.0006
   17CHL1  H18C 1214   5.139   5.978   9.759  2.5194  1.6366  1.2508
   17CHL1   C12 1215   5.198   5.720   9.644 -0.1090 -0.1302  0.5115
   17CHL1  H12A 1216   5.118   5.727   9.567 -0.2964 -0.0736  0.7140
   17CHL1  H12B 1217   5.263   5.632   9.622  0.2984  0.5041 -1.0044
   17CHL1   C11 1218   5.129   5.697   9.779  0.2782 -0.3997 -0.0168
   17CHL1  H11A 1219   5.042   5.766   9.787  0.8252  0.4717 -1.2876
   17CHL1  H11B 1220   5.094   5.591   9.779 -1.8583  0.2420  0.8197
   17CHL1    C9 1221   5.221   5.712   9.904  0.0596 -0.2062 -0.7401
   17CHL1    H9 1222   5.284   5.620   9.907  0.6464  0.1985 -0.4787
   17CHL1   C10 1223   5.140   5.707  10.041  0.2283  0.5990 -0.0659
   17CHL1   C19 1224   5.034   5.822  10.037 -0.1032  0.0952 -0.6063
   17CHL1  H19A 1225   5.079   5.918  10.005 -0.4589 -0.1475 -1.8925
   17CHL1  H19B 1226   4.953   5.795   9.966 -0.7529 -0.5003  0.3274
   17CHL1  H19C 1227   4.990   5.839  10.138 -0.7594 -0.6300 -0.7598
   17CHL1    C1 1228   5.068   5.571  10.052  0.2538  0.8433  0.4455
   17CHL1   H1A 1229   4.988   5.566   9.975  4.3565  1.8617 -4.4618
   17CHL1   H1B 1230   5.135   5.492  10.011  0.0710  1.9104 -2.0956
   17CHL1    C2 1231   5.036   5.527  10.191 -0.5166  0.1027  0.3263
   17CHL1   H2A 1232   5.011   5.420  10.179  0.6960 -0.1691  0.1318
   17CHL1   H2B 1233   4.945   5.588  10.210 -0.4384  0.5916 -0.7807
   17CHL1   C20 1234   5.296   5.926   9.378  0.2685 -0.7129 -0.4191
   17CHL1   H20 1235   5.252   6.026   9.400 -2.4494 -2.3027  1.9918
   17CHL1   C21 1236   5.193   5.831   9.330 -0.5331 -0.4547 -0.0439
   17CHL1  H21A 1237   5.103   5.841   9.394  0.0651 -0.1514  0.7659
   17CHL1  H21B 1238   5.229   5.727   9.342  0.6047 -0.0346  0.2725
   17CHL1  H21C 1239   5.162   5.848   9.224 -1.4430 -0.0965  0.2653
   17CHL1   C22 1240   5.407   5.958   9.273 -0.4140  1.1277  0.0683
   17CHL1  H22A 1241   5.351   5.997   9.185 -0.1573 -1.2209 -1.2241
   17CHL1  H22B 1242   5.474   6.035   9.317  0.0698  0.7343  0.0383
   17CHL1   C23 1243   5.489   5.833   9.232 -0.2718 -0.1749 -0.4803
   17CHL1  H23A 1244   5.561   5.809   9.313 -1.3948  0.7496  0.8337
   17CHL1  H23B 1245   5.431   5.739   9.223  1.4691 -1.3249 -0.1207
   17CHL1   C24 1246   5.578   5.852   9.111 -0.2890 -0.6646 -0.2461
   17CHL1  H24A 1247   5.633   5.947   9.129  0.8302 -1.4293  0.5034
   17CHL1  H24B 1248   5.652   5.770   9.124  0.5146 -0.0891 -1.0949
   17CHL1   C25 1249   5.503   5.841   8.973 -0.4649  0.5621 -0.7851
   17CHL1   H25 1250   5.445   5.935   8.978  1.9907  2.0920  1.0663
   17CHL1   C26 1251   5.598   5.833   8.854  0.1706  0.0547  0.0216
   17CHL1  H26A 1252   5.593   5.725   8.824  1.7036 -0.6582  2.1509
   17CHL1  H26B 1253   5.548   5.894   8.776  0.0475  0.2705  0.2687
   17CHL1  H26C 1254   5.701   5.866   8.876  0.4622 -0.5024 -0.4509
   17CHL1   C27 1255   5.399   5.724   8.966 -0.1693  0.0639  0.0091
   17CHL1  H27A 1256   5.445   5.629   9.000 -0.9539 -0.2243  0.2908
   17CHL1  H27B 1257   5.314   5.733   9.037  1.2554  0.7130  1.6873
   17CHL1  H27C 1258   5.358   5.723   8.862  0.6956  1.0657 -0.3664
   18CHL1    C3 1259   2.841   5.550  10.078 -0.7829 -0.6969 -0.2789
   18CHL1    H3 1260   2.915   5.472  10.050 -0.9807 -0.7411 -0.6787
   18CHL1    O3 1261   2.882   5.596  10.203  0.3847 -0.1795 -0.4487
   18CHL1   H3' 1262   2.954   5.655  10.179 -0.0542 -0.4810 -2.6782
   18CHL1    C4 1263   2.855   5.657   9.971 -0.3720  0.1259  0.0089
   18CHL1   H4A 1264   2.788   5.742   9.998  1.9397  1.5153  1.7039
   18CHL1   H4B 1265   2.959   5.696   9.966 -0.0913 -0.0903  2.6540
   18CHL1    C5 1266   2.815   5.606   9.830 -0.4638 -0.1985 -0.3973
   18CHL1    C6 1267   2.895   5.617   9.724 -0.5060 -0.8359  0.9213
   18CHL1    H6 1268   2.983   5.681   9.739 -1.5553  0.4151  1.9326
   18CHL1    C7 1269   2.870   5.570   9.583  0.1655  0.4123 -0.3239
   18CHL1   H7A 1270   2.882   5.654   9.512  2.3972  1.5002  1.2079
   18CHL1   H7B 1271   2.951   5.496   9.563 -0.7005 -0.0660 -2.3426
   18CHL1    C8 1272   2.725   5.527   9.571  0.4201  0.1126 -0.2880
   18CHL1    H8 1273   2.662   5.616   9.551  3.1699  1.6846 -2.7954
   18CHL1   C14 1274   2.706   5.427   9.458 -0.0190 -0.6221 -0.4326
   18CHL1   H14 1275   2.763   5.336   9.484 -1.4633 -1.4696 -0.1043
   18CHL1   C15 1276   2.760   5.473   9.323 -0.4512 -0.5538 -0.5238
   18CHL1  H15A 1277   2.731   5.580   9.313 -1.4072 -0.8083 -0.5469
   18CHL1  H15B 1278   2.870   5.488   9.328 -0.3862 -0.3996 -1.9663
   18CHL1   C16 1279   2.713   5.371   9.231  0.6325 -0.1541 -0.4100
   18CHL1  H16A 1280   2.657   5.424   9.151  2.5248  0.0988 -1.6419
   18CHL1  H16B 1281   2.785   5.307   9.175  0.1019 -2.1687  1.0845
   18CHL1   C17 1282   2.608   5.287   9.304  0.3140 -0.2982 -0.4237
   18CHL1   H17 1283   2.662   5.198   9.343 -0.0181  0.2255  1.3010
   18CHL1   C13 1284   2.568   5.375   9.431 -0.3778 -0.6638  0.2684
   18CHL1   C18 1285   2.474   5.482   9.383  0.2989 -0.1890 -0.4944
   18CHL1  H18A 1286   2.375   5.435   9.367  0.3833 -0.6286  0.2232
   18CHL1  H18B 1287   2.470   5.547   9.473 -1.2263 -0.5239 -0.2968
   18CHL1  H18C 1288   2.503   5.537   9.291  3.0464  0.7731  0.8401
   18CHL1   C12 1289   2.515   5.297   9.554 -0.2805 -0.5322 -0.4932
   18CHL1  H12A 1290   2.411   5.263   9.535 -0.0133 -1.0681 -1.0495
   18CHL1  H12B 1291   2.575   5.204   9.568 -0.8597 -0.6481  1.4476
   18CHL1   C11 1292   2.530   5.384   9.680 -0.0511  0.0311  0.2419
   18CHL1  H11A 1293   2.451   5.462   9.685 -1.5263 -1.4100  0.2539
   18CHL1  H11B 1294   2.515   5.310   9.761  2.2743 -1.4641 -0.6054
   18CHL1    C9 1295   2.673   5.444   9.697  0.1428  0.4596  0.4127
   18CHL1    H9 1296   2.750   5.365   9.706  2.0659  2.0870 -0.8079
   18CHL1   C10 1297   2.685   5.528   9.829  0.3639 -0.0607 -0.6587
   18CHL1   C19 1298   2.576   5.635   9.837  0.2592 -0.4637  0.0288
   18CHL1  H19A 1299   2.472   5.600   9.853  0.1364 -0.4707 -0.7090
   18CHL1  H19B 1300   2.600   5.706   9.918 -2.2649  2.9909 -1.9323
   18CHL1  H19C 1301   2.585   5.698   9.745  1.6750  2.1615  1.8416
   18CHL1    C1 1302   2.665   5.434   9.956  0.2586 -0.6231 -0.2388
   18CHL1   H1A 1303   2.562   5.391   9.957 -0.3271  0.6760 -1.5422
   18CHL1   H1B 1304   2.724   5.343   9.930 -0.9753 -1.9938  1.4736
   18CHL1    C2 1305   2.699   5.492  10.087  0.2472  0.0700 -0.9322
   18CHL1   H2A 1306   2.696   5.423  10.173  0.0517  0.1115 -0.9074
   18CHL1   H2B 1307   2.628   5.574  10.109 -0.9653 -0.9186 -1.0753
   18CHL1   C20 1308   2.494   5.231   9.217 -0.5089  0.4544 -0.7981
   18CHL1   H20 1309   2.419   5.312   9.201  1.5929  2.2231 -2.3246
   18CHL1   C21 1310   2.425   5.120   9.297 -0.0514 -0.1297 -0.3358
   18CHL1  H21A 1311   2.498   5.057   9.352  0.0865 -0.4364 -0.8731
   18CHL1  H21B 1312   2.366   5.052   9.232 -0.3682 -3.3492  2.9402
   18CHL1  H21C 1313   2.343   5.166   9.358  0.5553  0.7230 -0.1486
   18CHL1   C22 1314   2.532   5.172   9.084  0.0535  0.1169 -0.4916
   18CHL1  H22A 1315   2.615   5.223   9.030  0.7541 -0.1054  0.3576
   18CHL1  H22B 1316   2.572   5.069   9.096 -1.4497 -0.2338  2.0785
   18CHL1   C23 1317   2.413   5.181   8.991 -0.3511 -0.4318 -1.0366
   18CHL1  H23A 1318   2.321   5.140   9.037 -1.7986  3.8090  0.2479
   18CHL1  H23B 1319   2.382   5.282   8.957  0.2644  0.5154  1.0478
   18CHL1   C24 1320   2.457   5.105   8.871  0.1700 -0.2972  0.5826
   18CHL1  H24A 1321   2.530   5.167   8.815 -0.7212  1.5080  1.3243
   18CHL1  H24B 1322   2.497   5.008   8.907 -0.5397 -0.3447  1.2510
   18CHL1   C25 1323   2.339   5.073   8.776  0.6948  0.7960  0.0320
   18CHL1   H25 1324   2.262   5.038   8.848  0.9688  2.1862  1.0206
   18CHL1   C26 1325   2.276   5.188   8.697 -0.4217  0.8751 -0.6440
   18CHL1  H26A 1326   2.186   5.155   8.641  0.1571 -0.6826 -0.6883
   18CHL1  H26B 1327   2.231   5.267   8.762  0.0019  0.8294 -0.2922
   18CHL1  H26C 1328   2.350   5.236   8.631  0.6088 -2.7403 -2.3527
   18CHL1   C27 1329   2.380   4.961   8.674  0.4145  0.5411  0.0059
   18CHL1  H27A 1330   2.299   4.929   8.605 -2.5877 -0.8756  3.8075
   18CHL1  H27B 1331   2.464   4.998   8.611  0.9058 -0.5791 -0.0224
   18CHL1  H27C 1332   2.411   4.868   8.726 -0.1427 -0.3909 -1.2688
   19CHL1    C3 1333   0.309   1.281  10.257  0.2975 -0.0732  1.1674
   19CHL1    H3 1334   0.230   1.219  10.210  0.9533  0.4217 -0.7172
   19CHL1    O3 1335   0.314   1.279  10.398  1.0759 -0.3263  0.3748
   19CHL1   H3' 1336   0.404   1.304  10.419  0.2522  2.3821  1.0287
   19CHL1    C4 1337   0.436   1.221  10.186  0.6401 -0.5535  0.8539
   19CHL1   H4A 1338   0.523   1.277  10.226  0.1219  0.4037  0.6845
   19CHL1   H4B 1339   0.454   1.117  10.221 -0.6409 -0.6046  1.4232
   19CHL1    C5 1340   0.435   1.227  10.032  0.0933 -0.1228  0.1866
   19CHL1    C6 1341   0.459   1.115   9.961  0.6339  0.1205 -1.2927
   19CHL1    H6 1342   0.489   1.025  10.016  2.4575  1.0430 -0.7215
   19CHL1    C7 1343   0.460   1.106   9.810 -0.1056 -0.5574 -0.1073
   19CHL1   H7A 1344   0.552   1.058   9.773  1.3250  2.1207 -0.2631
   19CHL1   H7B 1345   0.362   1.064   9.779 -0.3871  0.5671 -0.8124
   19CHL1    C8 1346   0.457   1.248   9.741 -0.7932  0.8849  0.1026
   19CHL1    H8 1347   0.560   1.290   9.742 -0.5383  0.2784  0.8043
   19CHL1   C14 1348   0.401   1.237   9.600 -1.1201 -0.3504  0.0093
   19CHL1   H14 1349   0.301   1.190   9.604 -0.0537 -2.6631  1.3703
   19CHL1   C15 1350   0.480   1.138   9.505  0.7839  0.5853 -0.3143
   19CHL1  H15A 1351   0.589   1.158   9.515  0.8336 -0.5375  1.7662
   19CHL1  H15B 1352   0.470   1.035   9.545 -1.2984  1.5047  1.7116
   19CHL1   C16 1353   0.420   1.177   9.370  0.1901 -0.7904  0.0294
   19CHL1  H16A 1354   0.500   1.181   9.293 -0.0679  0.9894 -0.1826
   19CHL1  H16B 1355   0.350   1.092   9.358 -0.8429  0.2336 -1.6535
   19CHL1   C17 1356   0.337   1.314   9.390  0.0229 -0.2044 -0.6161
   19CHL1   H17 1357   0.236   1.270   9.406  1.3116 -3.0953  0.2423
   19CHL1   C13 1358   0.395   1.373   9.525  0.0024 -0.0864 -0.1257
   19CHL1   C18 1359   0.537   1.425   9.495 -0.6629  0.5824  0.0422
   19CHL1  H18A 1360   0.585   1.347   9.432  0.3812  0.9042  0.4208
   19CHL1  H18B 1361   0.539   1.514   9.429  0.0558  2.2213  2.1382
   19CHL1  H18C 1362   0.593   1.456   9.586 -0.4023 -0.6114  0.3003
   19CHL1   C12 1363   0.314   1.478   9.606 -0.1024 -0.0808  0.4354
   19CHL1  H12A 1364   0.324   1.581   9.565  1.9700 -0.4597 -0.1459
   19CHL1  H12B 1365   0.210   1.441   9.609 -1.0518  2.2399 -0.8823
   19CHL1   C11 1366   0.353   1.483   9.746  0.1788 -0.5203 -0.1758
   19CHL1  H11A 1367   0.452   1.531   9.759  0.7906 -1.1251 -2.2825
   19CHL1  H11B 1368   0.282   1.544   9.805 -0.2150 -1.3018  0.1838
   19CHL1    C9 1369   0.361   1.347   9.820 -0.2531  0.1541 -0.2816
   19CHL1    H9 1370   0.263   1.295   9.824  1.6300 -3.6051  2.2717
   19CHL1   C10 1371   0.396   1.359   9.972 -1.2898  0.1263 -0.7235
   19CHL1   C19 1372   0.525   1.442   9.990  0.2537  0.2210  0.1107
   19CHL1  H19A 1373   0.557   1.439  10.096  1.6464 -2.5555 -0.2937
   19CHL1  H19B 1374   0.610   1.415   9.924  2.2163  0.2323  2.5080
   19CHL1  H19C 1375   0.490   1.546   9.974 -0.9475 -0.0266  0.9836
   19CHL1    C1 1376   0.284   1.435  10.047 -0.1139 -0.1297  0.7097
   19CHL1   H1A 1377   0.270   1.541  10.015  0.5432  0.5488  2.5365
   19CHL1   H1B 1378   0.187   1.390  10.015 -0.8059  0.8938  1.3088
   19CHL1    C2 1379   0.290   1.427  10.206  0.0210  0.1282 -0.0602
   19CHL1   H2A 1380   0.200   1.475  10.252 -1.5419 -1.6758 -1.1226
   19CHL1   H2B 1381   0.374   1.487  10.246  0.0018 -0.8528  1.5470
   19CHL1   C20 1382   0.339   1.404   9.257 -0.1385 -0.3668  0.0161
   19CHL1   H20 1383   0.442   1.443   9.245 -1.0982  2.0792 -0.8410
   19CHL1   C21 1384   0.240   1.522   9.266  0.4208 -0.5018  0.0645
   19CHL1  H21A 1385   0.286   1.600   9.331 -0.7853 -2.0600  2.9461
   19CHL1  H21B 1386   0.143   1.487   9.308 -0.6613 -0.8677 -2.5653
   19CHL1  H21C 1387   0.223   1.565   9.165 -0.5405 -1.6339 -0.2725
   19CHL1   C22 1388   0.306   1.307   9.132 -0.2370  0.1541 -0.0232
   19CHL1  H22A 1389   0.396   1.242   9.124 -0.3961 -0.1844  0.8000
   19CHL1  H22B 1390   0.213   1.251   9.156  0.6975 -1.2522  0.4869
   19CHL1   C23 1391   0.300   1.378   8.999  0.2755  0.3613  0.2667
   19CHL1  H23A 1392   0.229   1.463   9.008 -0.1962  0.0230 -0.2175
   19CHL1  H23B 1393   0.397   1.430   8.987  0.2091  0.5126  0.3748
   19CHL1   C24 1394   0.277   1.291   8.875 -0.2733 -0.2601  0.1101
   19CHL1  H24A 1395   0.357   1.214   8.883 -1.0712 -1.2915 -1.2254
   19CHL1  H24B 1396   0.178   1.241   8.886 -1.7593  2.6012  0.6677
   19CHL1   C25 1397   0.282   1.364   8.737  0.2268 -0.0263 -0.1881
   19CHL1   H25 1398   0.379   1.418   8.732  0.4627 -0.5087 -1.0932
   19CHL1   C26 1399   0.264   1.268   8.619  0.5475 -0.8202  0.0037
   19CHL1  H26A 1400   0.351   1.202   8.601 -1.1666 -2.7246 -1.7837
   19CHL1  H26B 1401   0.175   1.205   8.639  0.1917 -0.6332 -0.9674
   19CHL1  H26C 1402   0.253   1.336   8.532  1.0624 -1.2449 -0.3962
   19CHL1   C27 1403   0.178   1.479   8.729  0.3903 -0.6035  0.3133
   19CHL1  H27A 1404   0.077   1.432   8.724  0.5086 -0.9217  0.8657
   19CHL1  H27B 1405   0.179   1.562   8.803 -0.6511  0.6717 -1.0316
   19CHL1  H27C 1406   0.182   1.539   8.636  0.0260  1.3172  1.4957
   20CHL1    C3 1407   0.728   2.164  10.345 -0.8767 -0.7805 -0.3485
   20CHL1    H3 1408   0.780   2.067  10.328 -1.6139 -1.4511  1.0184
   20CHL1    O3 1409   0.706   2.183  10.480 -0.3149  0.2467  0.2056
   20CHL1   H3' 1410   0.682   2.276  10.485  1.4454  0.7628 -0.2139
   20CHL1    C4 1411   0.802   2.282  10.283  0.0853 -0.0291  0.7711
   20CHL1   H4A 1412   0.738   2.370  10.307 -1.2776 -1.2643  1.8733
   20CHL1   H4B 1413   0.892   2.303  10.344 -0.6347  1.9345  1.2489
   20CHL1    C5 1414   0.806   2.272  10.128  0.2370  1.1951 -0.3138
   20CHL1    C6 1415   0.919   2.274  10.055 -0.4457 -0.8332 -0.6220
   20CHL1    H6 1416   1.011   2.289  10.114 -0.7943  0.9033 -0.4800
   20CHL1    C7 1417   0.920   2.270   9.908 -0.0421 -0.3035  0.6366
   20CHL1   H7A 1418   0.984   2.355   9.877 -0.4166  0.0343  0.7940
   20CHL1   H7B 1419   0.961   2.171   9.878  1.3812  0.5019 -0.1840
   20CHL1    C8 1420   0.782   2.300   9.851  0.6619 -0.2624 -0.1197
   20CHL1    H8 1421   0.761   2.408   9.868  0.6669 -0.2852  0.0361
   20CHL1   C14 1422   0.780   2.276   9.706  0.3030  0.6395  0.7829
   20CHL1   H14 1423   0.808   2.169   9.690  0.1496  0.2428  2.8824
   20CHL1   C15 1424   0.885   2.350   9.627  1.0081  0.5235 -0.1044
   20CHL1  H15A 1425   0.907   2.456   9.653  1.2526 -0.1058  2.4453
   20CHL1  H15B 1426   0.983   2.297   9.634  0.0065 -1.7097 -1.6920
   20CHL1   C16 1427   0.832   2.348   9.480  0.1490  0.5564 -0.2842
   20CHL1  H16A 1428   0.810   2.456   9.477 -0.6385  0.4109 -0.0607
   20CHL1  H16B 1429   0.916   2.326   9.411  0.7132 -1.2247  0.8865
   20CHL1   C17 1430   0.699   2.264   9.485 -0.4211 -0.5318 -0.2999
   20CHL1   H17 1431   0.735   2.159   9.492  1.7961 -0.0654 -2.8551
   20CHL1   C13 1432   0.648   2.292   9.631 -0.0230  0.4710 -0.2244
   20CHL1   C18 1433   0.590   2.435   9.643 -0.2645 -0.3681  0.2180
   20CHL1  H18A 1434   0.644   2.513   9.586 -0.5509  0.5614  1.1787
   20CHL1  H18B 1435   0.483   2.444   9.615 -0.1349 -1.5746 -0.7301
   20CHL1  H18C 1436   0.597   2.467   9.749  0.8555 -1.0517  0.3613
   20CHL1   C12 1437   0.542   2.196   9.692 -0.2046  0.0119 -0.4044
   20CHL1  H12A 1438   0.443   2.216   9.647  0.1284 -0.8583 -1.5810
   20CHL1  H12B 1439   0.570   2.089   9.675 -0.3765 -0.4482  1.8739
   20CHL1   C11 1440   0.535   2.217   9.849  0.3499 -0.6428  0.4147
   20CHL1  H11A 1441   0.498   2.321   9.863 -1.4183 -1.5033  2.8353
   20CHL1  H11B 1442   0.466   2.136   9.880  1.0933 -1.1914  0.6618
   20CHL1    C9 1443   0.679   2.211   9.921  0.6313 -0.0593 -0.0928
   20CHL1    H9 1444   0.712   2.105   9.913 -0.0578 -0.1882 -1.7302
   20CHL1   C10 1445   0.658   2.250  10.074  0.2012 -0.1324  1.1328
   20CHL1   C19 1446   0.572   2.380  10.089 -0.1427  0.2240  0.1017
   20CHL1  H19A 1447   0.471   2.376  10.043  1.0755  0.7797 -2.8769
   20CHL1  H19B 1448   0.560   2.407  10.196 -4.0614  1.8966 -0.5827
   20CHL1  H19C 1449   0.618   2.469  10.041  1.1319  0.1198  1.0869
   20CHL1    C1 1450   0.593   2.128  10.139  0.0484 -0.0399  0.4799
   20CHL1   H1A 1451   0.497   2.094  10.095  0.6070 -1.0947  0.0368
   20CHL1   H1B 1452   0.656   2.039  10.117 -0.4603  0.1073 -1.8141
   20CHL1    C2 1453   0.587   2.145  10.288 -0.0498  0.1755  0.5619
   20CHL1   H2A 1454   0.518   2.070  10.331 -1.1986  1.0479  0.2858
   20CHL1   H2B 1455   0.519   2.230  10.307 -0.5648  0.1955 -1.1696
   20CHL1   C20 1456   0.607   2.286   9.361  0.2251 -0.1596 -0.0986
   20CHL1   H20 1457   0.555   2.382   9.385 -0.0825 -0.9633  2.8078
   20CHL1   C21 1458   0.501   2.170   9.343  0.2153 -0.1121 -0.4961
   20CHL1  H21A 1459   0.412   2.203   9.285  0.6629  1.0434 -0.5663
   20CHL1  H21B 1460   0.467   2.109   9.429 -2.4588  0.0958 -1.3341
   20CHL1  H21C 1461   0.546   2.088   9.284 -1.3988 -2.0131  0.7960
   20CHL1   C22 1462   0.684   2.315   9.233 -0.2222 -0.0303  0.8808
   20CHL1  H22A 1463   0.755   2.399   9.250 -3.0760  2.7075  0.2433
   20CHL1  H22B 1464   0.741   2.220   9.223 -1.2229 -0.8363  2.3896
   20CHL1   C23 1465   0.602   2.329   9.101 -0.3177 -0.2736 -0.0996
   20CHL1  H23A 1466   0.581   2.230   9.056  1.8306 -0.5667 -0.5631
   20CHL1  H23B 1467   0.516   2.394   9.128 -3.2927 -2.3797 -3.6251
   20CHL1   C24 1468   0.689   2.406   8.999  0.3513 -0.6469 -0.3963
   20CHL1  H24A 1469   0.726   2.504   9.036 -2.5526  0.5819 -0.5161
   20CHL1  H24B 1470   0.791   2.363   8.988  1.7231  1.7469  1.7922
   20CHL1   C25 1471   0.634   2.431   8.856  0.9558 -0.4946 -0.1005
   20CHL1   H25 1472   0.629   2.333   8.804  0.5030 -0.8512  0.6020
   20CHL1   C26 1473   0.487   2.477   8.847  0.6827  0.2178 -0.1775
   20CHL1  H26A 1474   0.426   2.388   8.876  1.4391 -0.7143 -1.3668
   20CHL1  H26B 1475   0.483   2.562   8.919 -0.6697 -0.0031  0.0492
   20CHL1  H26C 1476   0.449   2.504   8.746 -0.3160  2.1464  0.6436
   20CHL1   C27 1477   0.726   2.522   8.785  0.0330 -0.4618 -0.1825
   20CHL1  H27A 1478   0.674   2.573   8.701 -0.1838 -2.6461 -1.4555
   20CHL1  H27B 1479   0.774   2.600   8.848 -1.1276 -0.3112  0.5564
   20CHL1  H27C 1480   0.802   2.460   8.734  0.2336 -0.0346 -0.4081
   21CHL1    C3 1481   0.776   6.106  10.352  0.1257 -0.1969 -0.3453
   21CHL1    H3 1482   0.669   6.086  10.372  0.7311 -2.3606  1.0467
   21CHL1    O3 1483   0.845   6.114  10.473 -0.8226 -0.0819  0.3707
   21CHL1   H3' 1484   0.938   6.101  10.453 -0.2729 -0.2321  2.6893
   21CHL1    C4 1485   0.836   5.991  10.272  0.4290 -0.4544  0.3415
   21CHL1   H4A 1486   0.944   6.007  10.250 -0.1959  3.0217 -0.7157
   21CHL1   H4B 1487   0.826   5.896  10.328 -2.0174 -0.2337  0.3781
   21CHL1    C5 1488   0.774   5.980  10.129  0.3684  0.8274  0.8023
   21CHL1    C6 1489   0.716   5.871  10.084  0.2178  0.2787  0.0800
   21CHL1    H6 1490   0.712   5.782  10.148 -0.1154 -1.0226 -1.6591
   21CHL1    C7 1491   0.648   5.858   9.951 -0.2351  0.1408  0.2609
   21CHL1   H7A 1492   0.676   5.759   9.910  0.8584  1.3340 -2.0944
   21CHL1   H7B 1493   0.537   5.862   9.951 -0.2769  0.5710  2.7521
   21CHL1    C8 1494   0.707   5.956   9.855 -0.8493  0.2206  0.1192
   21CHL1    H8 1495   0.813   5.927   9.835 -1.7026 -3.3618  0.1077
   21CHL1   C14 1496   0.632   5.963   9.719 -0.0071  0.0027 -0.2218
   21CHL1   H14 1497   0.533   5.992   9.759 -0.8944 -3.3676  0.2924
   21CHL1   C15 1498   0.607   5.840   9.637 -0.0082 -0.0316 -0.0329
   21CHL1  H15A 1499   0.703   5.795   9.606 -0.6903 -0.3797 -1.7659
   21CHL1  H15B 1500   0.552   5.779   9.712 -0.7962  2.0737  1.1997
   21CHL1   C16 1501   0.536   5.888   9.508  0.0919  0.8730 -0.2178
   21CHL1  H16A 1502   0.564   5.837   9.413 -1.4126  0.7288 -0.6136
   21CHL1  H16B 1503   0.425   5.885   9.514  0.1332 -0.5777 -0.0324
   21CHL1   C17 1504   0.572   6.043   9.497  0.1737  0.8118  0.0504
   21CHL1   H17 1505   0.477   6.094   9.520 -2.0149 -2.3505 -1.2525
   21CHL1   C13 1506   0.669   6.070   9.615  0.2134  0.8637 -0.1209
   21CHL1   C18 1507   0.808   6.042   9.561 -0.1229 -0.4395 -0.7274
   21CHL1  H18A 1508   0.817   5.947   9.505 -1.5800 -1.7955  1.2165
   21CHL1  H18B 1509   0.843   6.130   9.504  1.5673 -0.0393  0.8288
   21CHL1  H18C 1510   0.875   6.039   9.650 -0.9294 -1.9045 -0.1212
   21CHL1   C12 1511   0.656   6.203   9.678  0.4837 -0.0625  0.2726
   21CHL1  H12A 1512   0.701   6.279   9.610 -2.3453  1.3021 -0.2061
   21CHL1  H12B 1513   0.555   6.243   9.701  0.6941  0.7444 -0.1431
   21CHL1   C11 1514   0.733   6.206   9.812  0.3152  0.5567  0.0305
   21CHL1  H11A 1515   0.842   6.209   9.791  0.3670  0.0350  0.2138
   21CHL1  H11B 1516   0.713   6.304   9.860 -1.2457  0.2937 -0.0261
   21CHL1    C9 1517   0.699   6.099   9.918 -0.3869  0.2424  0.0735
   21CHL1    H9 1518   0.594   6.109   9.951 -0.1179 -0.7591  1.3539
   21CHL1   C10 1519   0.780   6.114  10.042 -0.6304 -0.2832  0.2142
   21CHL1   C19 1520   0.932   6.141  10.001  0.3152 -0.5074  0.6661
   21CHL1  H19A 1521   0.937   6.245   9.963  0.0326 -0.1680  1.5291
   21CHL1  H19B 1522   0.999   6.125  10.089  0.7008 -1.2623  0.2450
   21CHL1  H19C 1523   0.966   6.071   9.922  1.9341  2.1528 -1.1481
   21CHL1    C1 1524   0.726   6.225  10.143  0.2133 -0.1878  0.6758
   21CHL1   H1A 1525   0.730   6.322  10.089  1.1318 -0.1390  0.8128
   21CHL1   H1B 1526   0.617   6.215  10.159  0.1139  0.7276  0.6323
   21CHL1    C2 1527   0.799   6.233  10.274  0.3942  0.3826  0.1757
   21CHL1   H2A 1528   0.758   6.316  10.335 -0.6981 -0.4946  0.6817
   21CHL1   H2B 1529   0.905   6.260  10.256  0.6149 -1.3522 -1.3424
   21CHL1   C20 1530   0.601   6.096   9.359 -0.1119  0.2865 -0.1454
   21CHL1   H20 1531   0.652   6.195   9.368  0.4102 -0.0205  0.3412
   21CHL1   C21 1532   0.462   6.106   9.295  0.0887  0.0373  0.6522
   21CHL1  H21A 1533   0.410   6.012   9.268  0.2114  0.0094  0.5144
   21CHL1  H21B 1534   0.481   6.159   9.200  0.5003 -1.9123 -0.3909
   21CHL1  H21C 1535   0.383   6.156   9.356  1.4230  1.4446  1.2863
   21CHL1   C22 1536   0.698   6.014   9.262 -0.3821 -0.4611  0.1510
   21CHL1  H22A 1537   0.781   5.961   9.312 -0.3499  0.1981  0.8016
   21CHL1  H22B 1538   0.629   5.929   9.243  0.0707 -0.8276  0.1368
   21CHL1   C23 1539   0.740   6.094   9.137 -0.2635  0.2930  0.4798
   21CHL1  H23A 1540   0.651   6.104   9.071  0.2249 -3.8986 -1.1399
   21CHL1  H23B 1541   0.772   6.190   9.182  1.0952 -0.2691  0.7770
   21CHL1   C24 1542   0.850   6.036   9.046 -0.6903  0.1130  0.2063
   21CHL1  H24A 1543   0.946   6.031   9.101  0.5349 -0.7963 -1.8756
   21CHL1  H24B 1544   0.833   5.928   9.025 -0.2999 -0.5754  2.9787
   21CHL1   C25 1545   0.886   6.114   8.917  0.6998  0.6044  0.5075
   21CHL1   H25 1546   0.895   6.223   8.939  1.7375  1.0387 -1.7864
   21CHL1   C26 1547   1.031   6.080   8.864 -0.8835 -0.0808 -0.3319
   21CHL1  H26A 1548   1.097   6.094   8.952  0.4803 -0.0346 -1.3158
   21CHL1  H26B 1549   1.042   5.973   8.837 -0.5314 -0.0713 -0.2232
   21CHL1  H26C 1550   1.064   6.155   8.788 -0.2624  0.2018  0.2111
   21CHL1   C27 1551   0.788   6.104   8.804  0.3548  0.5407 -0.3792
   21CHL1  H27A 1552   0.683   6.110   8.837  0.4962 -2.2919  0.8728
   21CHL1  H27B 1553   0.821   6.174   8.724 -0.1699  1.6843  0.3795
   21CHL1  H27C 1554   0.799   6.003   8.758 -0.8715  0.4135 -0.4179
   22CHL1    C3 1555   3.988   4.306  10.060  0.8338  0.8287  0.5155
   22CHL1    H3 1556   4.047   4.213  10.042  0.3507  0.5174  0.4953
   22CHL1    O3 1557   3.959   4.297  10.197 -0.4835  0.6431 -0.2335
   22CHL1   H3' 1558   3.872   4.335  10.211 -0.9556 -0.4984  0.0949
   22CHL1    C4 1559   4.061   4.436  10.034  0.7138 -0.1320 -0.9523
   22CHL1   H4A 1560   4.015   4.522  10.088 -1.2174 -1.0433 -1.0649
   22CHL1   H4B 1561   4.153   4.430  10.097 -0.2237 -0.3145  0.4479
   22CHL1    C5 1562   4.080   4.458   9.884  0.4653  0.0654 -0.1186
   22CHL1    C6 1563   4.204   4.471   9.838  0.9024  0.0264 -0.1366
   22CHL1    H6 1564   4.284   4.492   9.911 -0.1886 -1.0387  1.4007
   22CHL1    C7 1565   4.248   4.487   9.696  0.3219  1.0491  0.0358
   22CHL1   H7A 1566   4.317   4.573   9.681  0.0963  0.9165 -2.0340
   22CHL1   H7B 1567   4.283   4.389   9.657 -0.3566  1.0749 -0.6585
   22CHL1    C8 1568   4.123   4.507   9.595 -0.7935 -0.1196  0.3747
   22CHL1    H8 1569   4.100   4.615   9.604 -0.5317  0.2024 -2.1393
   22CHL1   C14 1570   4.164   4.480   9.455 -0.1097 -0.2930  0.0583
   22CHL1   H14 1571   4.190   4.372   9.454 -1.9381 -0.8270 -2.5494
   22CHL1   C15 1572   4.285   4.555   9.394 -0.3439 -0.0101 -0.0597
   22CHL1  H15A 1573   4.277   4.664   9.415  0.9513  0.1213 -0.1508
   22CHL1  H15B 1574   4.383   4.521   9.435  1.0662  1.6630 -1.8111
   22CHL1   C16 1575   4.273   4.524   9.243 -0.5070 -0.2165  0.3621
   22CHL1  H16A 1576   4.286   4.620   9.189 -1.6247 -0.9379 -1.2641
   22CHL1  H16B 1577   4.365   4.462   9.233 -0.4254 -0.8538  3.8217
   22CHL1   C17 1578   4.134   4.452   9.217 -0.3597  0.0746 -0.0031
   22CHL1   H17 1579   4.151   4.342   9.218 -0.1516  0.0731  2.6975
   22CHL1   C13 1580   4.053   4.483   9.350 -0.3251  0.1940 -0.0339
   22CHL1   C18 1581   3.999   4.627   9.353 -0.3501 -0.2349  0.2895
   22CHL1  H18A 1582   4.072   4.700   9.313  0.5333 -0.1111  2.0218
   22CHL1  H18B 1583   3.915   4.630   9.280  1.0147  0.7368 -1.2988
   22CHL1  H18C 1584   3.953   4.660   9.449 -0.1951 -0.1245  0.3264
   22CHL1   C12 1585   3.940   4.385   9.392 -0.0336  0.1359 -0.5100
   22CHL1  H12A 1586   3.865   4.400   9.311 -2.6164 -0.9094  1.5524
   22CHL1  H12B 1587   3.970   4.279   9.380 -3.2739 -0.9584  0.1294
   22CHL1   C11 1588   3.890   4.413   9.533  0.5301 -0.0599 -0.9769
   22CHL1  H11A 1589   3.829   4.506   9.541  2.6094  1.3090 -0.0691
   22CHL1  H11B 1590   3.819   4.336   9.570  1.0674  0.1572  0.5816
   22CHL1    C9 1591   4.009   4.417   9.635  0.5191  0.9507 -0.5617
   22CHL1    H9 1592   4.052   4.315   9.637 -1.3748  0.1187 -0.1374
   22CHL1   C10 1593   3.968   4.428   9.790 -0.4010  0.7819 -0.2538
   22CHL1   C19 1594   3.864   4.549   9.796  0.4238 -0.6649 -0.7530
   22CHL1  H19A 1595   3.768   4.507   9.758  0.3671 -0.5283 -0.7608
   22CHL1  H19B 1596   3.865   4.572   9.905  0.8020 -1.1906 -0.6420
   22CHL1  H19C 1597   3.886   4.639   9.735  0.7116 -1.6933 -2.2163
   22CHL1    C1 1598   3.891   4.301   9.840  0.1308 -0.6155  0.3913
   22CHL1   H1A 1599   3.799   4.297   9.778 -1.4076  1.0563  2.3982
   22CHL1   H1B 1600   3.955   4.214   9.814 -2.3910 -1.4856 -3.6972
   22CHL1    C2 1601   3.855   4.297   9.979 -0.8230 -0.0960  0.4584
   22CHL1   H2A 1602   3.799   4.204  10.005  1.0376 -1.9138 -1.6011
   22CHL1   H2B 1603   3.780   4.370  10.014 -1.1567 -0.4094  0.4022
   22CHL1   C20 1604   4.072   4.485   9.083 -1.1152 -0.5863  0.2962
   22CHL1   H20 1605   4.035   4.588   9.100 -2.0697 -1.1041  1.4779
   22CHL1   C21 1606   3.952   4.392   9.053 -0.3153 -0.5286  0.7781
   22CHL1  H21A 1607   3.854   4.433   9.087 -0.6351 -0.8037  0.2090
   22CHL1  H21B 1608   3.975   4.291   9.093 -0.6985 -1.9104 -2.1717
   22CHL1  H21C 1609   3.937   4.387   8.943 -0.9802 -0.6892  0.8683
   22CHL1   C22 1610   4.177   4.494   8.962  0.3074 -1.0054 -0.2513
   22CHL1  H22A 1611   4.116   4.533   8.878  0.4033  1.4759  0.7235
   22CHL1  H22B 1612   4.256   4.565   8.996 -0.7119 -0.6956  1.5792
   22CHL1   C23 1613   4.237   4.362   8.909  0.3288 -0.1580 -0.3362
   22CHL1  H23A 1614   4.320   4.320   8.970 -1.5671 -1.8026  1.2424
   22CHL1  H23B 1615   4.167   4.275   8.906  2.2373 -1.8162  0.7431
   22CHL1   C24 1616   4.277   4.377   8.757 -0.2682  0.3363 -0.7725
   22CHL1  H24A 1617   4.182   4.379   8.700 -0.8514 -3.0711 -0.0989
   22CHL1  H24B 1618   4.331   4.475   8.760  0.9287 -0.3253  0.5803
   22CHL1   C25 1619   4.363   4.271   8.690  0.0037 -0.1747  0.1879
   22CHL1   H25 1620   4.458   4.255   8.745  1.5596  1.3810 -1.8819
   22CHL1   C26 1621   4.284   4.141   8.669  0.2249  0.0860 -0.4792
   22CHL1  H26A 1622   4.242   4.101   8.764 -0.9945 -0.0355 -1.0530
   22CHL1  H26B 1623   4.200   4.171   8.603  0.6007 -0.9821 -1.4918
   22CHL1  H26C 1624   4.356   4.064   8.632 -0.9172 -0.5120 -1.5235
   22CHL1   C27 1625   4.415   4.326   8.555  0.8684 -0.0807 -0.7650
   22CHL1  H27A 1626   4.449   4.431   8.568 -0.2946  0.0900  1.2646
   22CHL1  H27B 1627   4.490   4.263   8.502  1.4454 -0.4021  0.3938
   22CHL1  H27C 1628   4.336   4.332   8.478 -0.6992  0.0367  0.7951
   23CHL1    C3 1629   5.041   6.617  10.175  0.8759 -0.5170  0.1366
   23CHL1    H3 1630   5.143   6.575  10.192  1.4990  0.5876 -0.7746
   23CHL1    O3 1631   5.004   6.675  10.304 -0.5360  0.1938 -0.2463
   23CHL1   H3' 1632   4.911   6.697  10.305 -0.6404 -0.1954  1.3721
   23CHL1    C4 1633   5.041   6.729  10.068  0.2482  0.1105  0.2328
   23CHL1   H4A 1634   4.948   6.788  10.078 -0.5148 -0.7526 -1.4638
   23CHL1   H4B 1635   5.122   6.796  10.105  1.9845 -1.3434 -0.7231
   23CHL1    C5 1636   5.049   6.695   9.918  0.1568  0.2773 -0.2497
   23CHL1    C6 1637   5.144   6.756   9.843  1.2648  0.3953  0.0338
   23CHL1    H6 1638   5.215   6.823   9.894  1.0466 -0.0047  0.8889
   23CHL1    C7 1639   5.177   6.723   9.705  0.8788 -0.1357 -0.2556
   23CHL1   H7A 1640   5.186   6.802   9.627 -0.0315 -1.3715 -1.6743
   23CHL1   H7B 1641   5.267   6.657   9.698 -0.7171 -2.5148  0.5869
   23CHL1    C8 1642   5.071   6.629   9.634 -0.2656  0.6348 -0.0169
   23CHL1    H8 1643   4.991   6.698   9.600  0.6725  0.7797 -2.0741
   23CHL1   C14 1644   5.129   6.562   9.514  0.6111 -0.2015  1.2973
   23CHL1   H14 1645   5.203   6.486   9.545 -0.4995 -2.2548 -0.7858
   23CHL1   C15 1646   5.195   6.655   9.411  0.0214 -0.0328  0.0132
   23CHL1  H15A 1647   5.140   6.747   9.381  0.3188 -0.2470 -1.2603
   23CHL1  H15B 1648   5.300   6.675   9.441  0.6831 -2.2153 -0.6816
   23CHL1   C16 1649   5.190   6.562   9.286  0.5541 -0.2978  0.6821
   23CHL1  H16A 1650   5.136   6.625   9.212 -1.9388  0.0676  2.6873
   23CHL1  H16B 1651   5.297   6.551   9.258 -0.2635  0.2816 -3.2613
   23CHL1   C17 1652   5.116   6.432   9.322 -1.0444 -0.5606 -0.0497
   23CHL1   H17 1653   5.194   6.360   9.357  0.6781  0.6366 -1.2317
   23CHL1   C13 1654   5.031   6.473   9.441  0.0869  0.5971  0.2794
   23CHL1   C18 1655   4.906   6.555   9.387  0.0124  0.6874 -0.2736
   23CHL1  H18A 1656   4.940   6.643   9.328  2.0865  0.6018  0.6974
   23CHL1  H18B 1657   4.839   6.493   9.325  0.2952 -1.1612  1.1807
   23CHL1  H18C 1658   4.846   6.604   9.468 -0.2239  0.8885 -0.5688
   23CHL1   C12 1659   4.986   6.359   9.539  0.6353  0.8299 -0.1522
   23CHL1  H12A 1660   4.902   6.304   9.493  1.3045  0.6883 -1.2477
   23CHL1  H12B 1661   5.080   6.301   9.556  0.4515  1.2657  2.8511
   23CHL1   C11 1662   4.925   6.423   9.670  0.0492  0.5201  0.4380
   23CHL1  H11A 1663   4.832   6.477   9.644  0.3526  0.5412 -0.6428
   23CHL1  H11B 1664   4.907   6.336   9.738  0.8890 -0.2316 -0.2790
   23CHL1    C9 1665   5.024   6.521   9.735  0.3118  0.1529 -0.3201
   23CHL1    H9 1666   5.114   6.460   9.761  0.0845 -1.4384 -2.9052
   23CHL1   C10 1667   4.967   6.575   9.873 -0.0914  0.0095  0.0079
   23CHL1   C19 1668   4.824   6.633   9.861  0.0571  0.3604  0.7604
   23CHL1  H19A 1669   4.815   6.713   9.785  0.0859  1.1030  1.5288
   23CHL1  H19B 1670   4.743   6.558   9.844 -1.2514  1.5706  1.4906
   23CHL1  H19C 1671   4.796   6.687   9.954  0.8602  1.8755  0.1529
   23CHL1    C1 1672   4.981   6.466   9.982 -0.3080  0.3338 -1.1005
   23CHL1   H1A 1673   4.914   6.381   9.958  0.6214 -0.3233 -1.4236
   23CHL1   H1B 1674   5.086   6.431   9.991 -1.0582 -1.5214  2.6420
   23CHL1    C2 1675   4.946   6.506  10.129  0.5494  0.4729  0.3611
   23CHL1   H2A 1676   4.978   6.423  10.196 -0.2947 -1.1306 -1.1346
   23CHL1   H2B 1677   4.837   6.529  10.130  0.6639  1.0302  0.3875
   23CHL1   C20 1678   5.055   6.366   9.202 -0.0517  0.4398  0.7584
   23CHL1   H20 1679   4.961   6.417   9.170  0.1874  0.3398 -0.1196
   23CHL1   C21 1680   5.016   6.219   9.246  0.3977  0.0112 -0.0107
   23CHL1  H21A 1681   4.960   6.163   9.168 -0.5477 -0.9398  1.3129
   23CHL1  H21B 1682   4.941   6.213   9.328 -0.8647 -1.0830 -1.1817
   23CHL1  H21C 1683   5.106   6.163   9.280 -0.6976 -2.1192 -0.4345
   23CHL1   C22 1684   5.144   6.364   9.077  0.9350 -0.3273  0.7394
   23CHL1  H22A 1685   5.177   6.469   9.058 -0.3565 -0.0024  0.1761
   23CHL1  H22B 1686   5.232   6.297   9.091  1.3079 -0.2220 -0.8055
   23CHL1   C23 1687   5.067   6.320   8.942 -0.1985  0.2411  0.4116
   23CHL1  H23A 1688   5.032   6.216   8.959  1.0188 -0.2303  0.1137
   23CHL1  H23B 1689   4.977   6.380   8.916 -0.3920 -0.4409 -0.5502
   23CHL1   C24 1690   5.161   6.313   8.819 -0.1147  0.1444 -0.5103
   23CHL1  H24A 1691   5.213   6.412   8.820 -2.1543  1.2674  1.1345
   23CHL1  H24B 1692   5.228   6.224   8.819  0.2236  0.3931 -0.4019
   23CHL1   C25 1693   5.087   6.304   8.682 -0.0531 -0.2412 -0.0338
   23CHL1   H25 1694   5.034   6.400   8.665  1.1187  0.4908  0.3456
   23CHL1   C26 1695   5.192   6.280   8.568  0.1602 -0.0891 -0.1966
   23CHL1  H26A 1696   5.262   6.365   8.554  0.1160 -0.2727 -1.6402
   23CHL1  H26B 1697   5.253   6.189   8.584 -0.4182 -0.9192 -2.4427
   23CHL1  H26C 1698   5.139   6.247   8.477 -1.1548  1.7906 -0.1674
   23CHL1   C27 1699   4.995   6.183   8.676  0.4036  0.7289 -0.0649
   23CHL1  H27A 1700   4.906   6.191   8.741  0.4825  2.5580 -0.1419
   23CHL1  H27B 1701   4.967   6.156   8.572 -0.0937  3.3643 -0.6811
   23CHL1  H27C 1702   5.056   6.096   8.710 -0.4039  0.4295  0.6304
   24CHL1    C3 1703   4.157   1.288  10.284 -0.1668 -1.2247  0.2889
   24CHL1    H3 1704   4.171   1.397  10.295 -1.4645 -1.0679  0.4422
   24CHL1    O3 1705   4.107   1.243  10.406 -0.4898 -0.3628  0.4405
   24CHL1   H3' 1706   4.035   1.181  10.392 -0.0707 -0.5123 -1.2113
   24CHL1    C4 1707   4.053   1.258  10.171 -0.2234  0.3807 -0.5323
   24CHL1   H4A 1708   4.036   1.148  10.167  1.9180  0.0292 -1.0990
   24CHL1   H4B 1709   3.949   1.292  10.190 -0.6529 -1.2582  0.3048
   24CHL1    C5 1710   4.106   1.303  10.041 -0.0451 -0.9694 -0.1745
   24CHL1    C6 1711   4.040   1.377   9.949  0.7527  0.3955 -0.5380
   24CHL1    H6 1712   3.941   1.409   9.985  1.2481 -0.0725  1.4051
   24CHL1    C7 1713   4.081   1.405   9.809 -0.5685  0.3542  0.4549
   24CHL1   H7A 1714   3.998   1.417   9.736  2.0168 -0.9486 -3.0286
   24CHL1   H7B 1715   4.114   1.511   9.803 -0.6718  0.4888  1.9157
   24CHL1    C8 1716   4.203   1.320   9.762 -0.2719 -0.2379  0.0843
   24CHL1    H8 1717   4.173   1.217   9.732 -0.1755 -0.7121  1.5730
   24CHL1   C14 1718   4.266   1.380   9.639  0.2192 -0.4762  0.6365
   24CHL1   H14 1719   4.328   1.466   9.671  0.4681 -0.4490  0.0963
   24CHL1   C15 1720   4.164   1.414   9.522 -0.2004  0.2798  0.4121
   24CHL1  H15A 1721   4.091   1.332   9.503 -0.5866  0.7695 -0.2543
   24CHL1  H15B 1722   4.114   1.510   9.550 -0.5873 -0.7535  3.7519
   24CHL1   C16 1723   4.256   1.421   9.404 -0.2488 -0.6159  0.3954
   24CHL1  H16A 1724   4.230   1.340   9.333  1.1631  0.3509 -1.3171
   24CHL1  H16B 1725   4.259   1.524   9.363  0.8104 -0.3095  1.1864
   24CHL1   C17 1726   4.405   1.375   9.450  0.1068 -0.1023 -0.3982
   24CHL1   H17 1727   4.458   1.470   9.477  1.8964 -0.8508 -1.1307
   24CHL1   C13 1728   4.376   1.297   9.572  0.6154 -0.1596 -0.7028
   24CHL1   C18 1729   4.335   1.159   9.526  0.0633 -0.2794 -0.0113
   24CHL1  H18A 1730   4.425   1.101   9.496  1.6014  1.7207  0.5168
   24CHL1  H18B 1731   4.304   1.097   9.612 -1.2268  1.8799  1.1824
   24CHL1  H18C 1732   4.262   1.155   9.442 -3.2898 -0.6334  2.6905
   24CHL1   C12 1733   4.485   1.298   9.681 -0.3293  0.5434  0.0558
   24CHL1  H12A 1734   4.569   1.232   9.650 -0.0398  2.0908 -2.7663
   24CHL1  H12B 1735   4.531   1.397   9.703  1.4082 -0.0583 -0.6649
   24CHL1   C11 1736   4.442   1.245   9.819  0.3100  0.3384 -1.5536
   24CHL1  H11A 1737   4.416   1.137   9.815  1.9375 -0.2737  1.6270
   24CHL1  H11B 1738   4.528   1.237   9.888  0.6401  2.6849 -1.6211
   24CHL1    C9 1739   4.305   1.304   9.867  1.0318  0.4830 -1.0703
   24CHL1    H9 1740   4.335   1.406   9.899  1.6645 -0.0297  0.0058
   24CHL1   C10 1741   4.243   1.235   9.996 -0.0333 -0.7575  0.1003
   24CHL1   C19 1742   4.221   1.078   9.971 -0.6684 -0.6090  0.6962
   24CHL1  H19A 1743   4.167   1.047   9.879 -2.1611 -0.8270  1.6103
   24CHL1  H19B 1744   4.314   1.018   9.988  0.7251  1.8687  2.6715
   24CHL1  H19C 1745   4.158   1.048  10.057 -2.3373 -0.0005 -0.2718
   24CHL1    C1 1746   4.342   1.265  10.115 -0.6437  0.0658 -0.6549
   24CHL1   H1A 1747   4.438   1.217  10.087 -0.0379 -0.3313  1.8047
   24CHL1   H1B 1748   4.373   1.372  10.117 -2.0476  0.4870  0.5643
   24CHL1    C2 1749   4.284   1.219  10.252 -0.8244 -0.1181  0.0476
   24CHL1   H2A 1750   4.356   1.241  10.334 -0.4457 -2.4004  0.3906
   24CHL1   H2B 1751   4.271   1.109  10.256  0.9630 -0.3323  1.3571
   24CHL1   C20 1752   4.487   1.314   9.333 -0.1779 -0.3825  0.5986
   24CHL1   H20 1753   4.451   1.213   9.304  1.5722 -1.0582  0.6723
   24CHL1   C21 1754   4.636   1.295   9.382 -0.0706 -0.0276 -0.2769
   24CHL1  H21A 1755   4.642   1.217   9.461  0.2198 -1.5996 -1.7875
   24CHL1  H21B 1756   4.664   1.397   9.417  0.6007 -0.0426 -0.7452
   24CHL1  H21C 1757   4.714   1.261   9.311  1.7730  1.4601  0.9367
   24CHL1   C22 1758   4.493   1.411   9.206  0.0315  0.4413  0.1324
   24CHL1  H22A 1759   4.391   1.416   9.164  0.2087 -0.2785 -0.3913
   24CHL1  H22B 1760   4.530   1.510   9.241  0.7443 -0.2337  1.3780
   24CHL1   C23 1761   4.582   1.365   9.096  0.3678  0.6394  0.1252
   24CHL1  H23A 1762   4.686   1.342   9.128  0.3218 -2.1523 -1.4550
   24CHL1  H23B 1763   4.546   1.270   9.052 -0.0928  0.0803  1.6559
   24CHL1   C24 1764   4.591   1.474   8.990  0.8404 -0.4765  0.2918
   24CHL1  H24A 1765   4.496   1.532   8.991  0.5320 -0.9017 -1.2806
   24CHL1  H24B 1766   4.652   1.561   9.020  1.2614 -0.3552 -0.8385
   24CHL1   C25 1767   4.639   1.415   8.857 -0.3332  0.0568  0.5005
   24CHL1   H25 1768   4.598   1.313   8.845 -1.6829  0.7623 -1.5254
   24CHL1   C26 1769   4.583   1.509   8.745 -0.5125 -0.1429 -0.8023
   24CHL1  H26A 1770   4.472   1.512   8.745 -0.5491  0.3952  1.2944
   24CHL1  H26B 1771   4.633   1.607   8.761 -0.0276 -0.5088 -0.0144
   24CHL1  H26C 1772   4.615   1.466   8.648 -1.6937  0.4197 -1.4673
   24CHL1   C27 1773   4.791   1.409   8.854  0.0900 -0.3268  1.1582
   24CHL1  H27A 1774   4.830   1.352   8.941 -0.7993 -0.3843  1.5325
   24CHL1  H27B 1775   4.839   1.360   8.767 -1.0244 -0.8246  0.8125
   24CHL1  H27C 1776   4.826   1.514   8.863  0.0643 -0.0452 -1.3656
   25CHL1    C3 1777   2.060   4.021  10.420  0.6080  0.2268  0.1459
   25CHL1    H3 1778   2.044   3.915  10.390 -0.7927  1.4400 -4.1311
   25CHL1    O3 1779   2.020   4.060  10.554  0.2886  0.1701  0.2752
   25CHL1   H3' 1780   2.029   4.155  10.555  0.9168  0.1394 -0.4785
   25CHL1    C4 1781   2.210   4.061  10.384 -0.1575 -0.1608 -0.2711
   25CHL1   H4A 1782   2.230   4.167  10.408  0.4297 -0.0040 -1.3777
   25CHL1   H4B 1783   2.281   4.003  10.447 -0.6846  0.5431  1.0137
   25CHL1    C5 1784   2.227   4.026  10.234 -0.0321 -0.3800  0.5295
   25CHL1    C6 1785   2.317   3.935  10.189  0.1603 -0.0719 -0.0201
   25CHL1    H6 1786   2.383   3.886  10.263  0.0688 -1.4919 -0.8449
   25CHL1    C7 1787   2.347   3.913  10.045 -0.3550 -0.0414 -0.7905
   25CHL1   H7A 1788   2.457   3.903  10.035 -0.4146 -0.0089 -1.5249
   25CHL1   H7B 1789   2.300   3.815  10.022 -2.0330  0.8142 -1.1120
   25CHL1    C8 1790   2.307   4.023   9.948 -0.1414 -0.2998 -0.4334
   25CHL1    H8 1791   2.374   4.110   9.960  3.0959 -2.5222 -1.0425
   25CHL1   C14 1792   2.315   3.982   9.802 -0.2694  0.1388  0.1435
   25CHL1   H14 1793   2.250   3.893   9.786  1.0664 -0.3868 -2.9781
   25CHL1   C15 1794   2.456   3.937   9.752  0.3700  0.4875  0.4465
   25CHL1  H15A 1795   2.531   4.009   9.791 -0.4175  1.0101  1.0309
   25CHL1  H15B 1796   2.477   3.834   9.787 -0.9499 -0.5911 -1.6898
   25CHL1   C16 1797   2.453   3.957   9.600  0.0122  0.3235 -0.0359
   25CHL1  H16A 1798   2.536   4.025   9.571  0.2046 -1.0185 -3.0787
   25CHL1  H16B 1799   2.473   3.863   9.545  1.2376  0.3665  0.3104
   25CHL1   C17 1800   2.311   4.024   9.572  0.2338  0.3521 -0.1829
   25CHL1   H17 1801   2.243   3.936   9.562  1.3102 -0.5764  0.4833
   25CHL1   C13 1802   2.269   4.091   9.703  0.6194  0.1458 -0.0407
   25CHL1   C18 1803   2.354   4.214   9.713  0.7301 -1.7588  0.2996
   25CHL1  H18A 1804   2.320   4.300   9.651  3.8541 -0.9081 -0.3943
   25CHL1  H18B 1805   2.344   4.253   9.817 -0.7038 -0.4501 -0.2924
   25CHL1  H18C 1806   2.462   4.198   9.692  0.2767 -1.9373 -2.2359
   25CHL1   C12 1807   2.117   4.106   9.727  0.8358  0.6708 -0.2039
   25CHL1  H12A 1808   2.055   4.170   9.660 -0.9308 -0.6658  0.0683
   25CHL1  H12B 1809   2.069   4.005   9.722 -1.0924  1.5198  0.1927
   25CHL1   C11 1810   2.092   4.148   9.871 -0.4099  0.7171  0.6909
   25CHL1  H11A 1811   2.138   4.249   9.883  1.1911  0.1930 -0.6080
   25CHL1  H11B 1812   1.982   4.150   9.881 -0.4097 -0.8345  1.3384
   25CHL1    C9 1813   2.161   4.059   9.982  0.3405  0.0184 -0.5430
   25CHL1    H9 1814   2.101   3.966   9.970 -1.9944  1.2313  1.0440
   25CHL1   C10 1815   2.131   4.099  10.131 -0.3341 -0.2365  0.0838
   25CHL1   C19 1816   2.148   4.255  10.137 -0.4212 -0.0665 -0.0552
   25CHL1  H19A 1817   2.246   4.274  10.088 -0.9882 -0.2283 -1.2621
   25CHL1  H19B 1818   2.070   4.311  10.081 -1.2328 -0.1685  0.9438
   25CHL1  H19C 1819   2.149   4.293  10.242  1.9175 -0.9583  0.3123
   25CHL1    C1 1820   1.990   4.063  10.167 -0.6760 -0.1139 -0.3609
   25CHL1   H1A 1821   1.927   4.133  10.109 -0.0295  2.8911  2.2713
   25CHL1   H1B 1822   1.971   3.955  10.153 -1.2277 -0.1814  0.7944
   25CHL1    C2 1823   1.966   4.097  10.316  0.1418  1.0777 -0.2814
   25CHL1   H2A 1824   1.858   4.090  10.342  0.7366  0.3199  2.2417
   25CHL1   H2B 1825   1.995   4.203  10.329 -0.2954  1.0978  0.6078
   25CHL1   C20 1826   2.313   4.086   9.433 -0.0313  0.1440 -0.1481
   25CHL1   H20 1827   2.382   4.174   9.428  2.5849 -1.7890 -0.1839
   25CHL1   C21 1828   2.166   4.137   9.410  0.0762  0.3641  0.0744
   25CHL1  H21A 1829   2.128   4.185   9.317  0.2650 -1.5752 -1.0451
   25CHL1  H21B 1830   2.148   4.216   9.487  0.7990  0.0656  0.5622
   25CHL1  H21C 1831   2.110   4.052   9.454  1.4460  1.4499  4.4727
   25CHL1   C22 1832   2.363   3.988   9.328  0.3582  0.1787  0.3862
   25CHL1  H22A 1833   2.470   3.963   9.347  0.7548  1.4015 -0.1483
   25CHL1  H22B 1834   2.316   3.887   9.320  1.9067 -0.6531  1.1327
   25CHL1   C23 1835   2.350   4.038   9.180 -1.0190 -0.3700 -0.1943
   25CHL1  H23A 1836   2.390   3.953   9.121 -0.0285 -3.3254  4.2083
   25CHL1  H23B 1837   2.245   4.039   9.144 -0.5343 -1.6146 -1.7509
   25CHL1   C24 1838   2.430   4.172   9.161 -0.0460 -0.1030  0.1991
   25CHL1  H24A 1839   2.359   4.247   9.202  0.5205 -0.0083  1.0214
   25CHL1  H24B 1840   2.526   4.173   9.217  0.5943 -2.4150 -0.7198
   25CHL1   C25 1841   2.459   4.217   9.012  0.1720 -0.0265 -0.2554
   25CHL1   H25 1842   2.519   4.135   8.965 -0.0164  0.2840 -1.0612
   25CHL1   C26 1843   2.326   4.230   8.934  0.0642  0.0875 -0.5622
   25CHL1  H26A 1844   2.352   4.282   8.840 -2.3385  0.9523 -0.8205
   25CHL1  H26B 1845   2.286   4.129   8.911 -2.5869  0.7206  0.8835
   25CHL1  H26C 1846   2.242   4.278   8.988 -1.5860 -1.8399 -1.2813
   25CHL1   C27 1847   2.550   4.347   9.009  0.1705  1.4459 -0.1660
   25CHL1  H27A 1848   2.651   4.321   9.048  0.0001  0.1209 -0.5635
   25CHL1  H27B 1849   2.559   4.386   8.905  1.1125 -0.9486 -1.0346
   25CHL1  H27C 1850   2.525   4.429   9.081  2.1975  1.1305  0.9881
   26CHL1    C3 1851   3.459   0.146  10.187  0.0682 -0.4220  0.8528
   26CHL1    H3 1852   3.525   0.235  10.186  2.2256 -1.9272  1.5695
   26CHL1    O3 1853   3.427   0.100  10.317  0.0028 -0.2328  1.0172
   26CHL1   H3' 1854   3.429   0.004  10.316  0.3951 -0.2407 -0.3725
   26CHL1    C4 1855   3.326   0.179  10.120 -0.0574 -0.3792  0.6767
   26CHL1   H4A 1856   3.255   0.094  10.130  0.3903 -0.9298 -0.5699
   26CHL1   H4B 1857   3.282   0.266  10.174 -0.4786 -0.4226  0.4176
   26CHL1    C5 1858   3.330   0.219   9.978 -0.2158 -0.1600  0.5234
   26CHL1    C6 1859   3.287   0.335   9.927  0.1565 -0.0361  1.3077
   26CHL1    H6 1860   3.239   0.408   9.994 -0.5116  1.5464 -0.7526
   26CHL1    C7 1861   3.289   0.373   9.782 -0.2933 -0.2338  0.0523
   26CHL1   H7A 1862   3.189   0.402   9.744  0.7179  0.9720 -1.8616
   26CHL1   H7B 1863   3.370   0.449   9.773 -0.6032  0.5360  2.8332
   26CHL1    C8 1864   3.327   0.249   9.690 -0.4840  0.8002  0.3420
   26CHL1    H8 1865   3.231   0.193   9.681 -1.2946  1.8167  1.9498
   26CHL1   C14 1866   3.370   0.296   9.549 -1.1308 -0.2018 -0.1932
   26CHL1   H14 1867   3.462   0.352   9.576  0.2114 -1.5530 -1.7533
   26CHL1   C15 1868   3.294   0.403   9.474 -0.3887 -0.6375 -0.0823
   26CHL1  H15A 1869   3.184   0.384   9.470 -0.6463  0.3681  1.5170
   26CHL1  H15B 1870   3.307   0.501   9.524 -0.9411  0.3713 -1.8318
   26CHL1   C16 1871   3.354   0.402   9.336 -0.2815  0.1682 -0.1503
   26CHL1  H16A 1872   3.273   0.389   9.261  0.0135  1.5911 -0.7465
   26CHL1  H16B 1873   3.407   0.494   9.303  0.6802 -0.7087 -1.1338
   26CHL1   C17 1874   3.449   0.275   9.326 -0.2603 -0.5303 -0.1286
   26CHL1   H17 1875   3.547   0.315   9.358 -1.3090  1.6511  0.5855
   26CHL1   C13 1876   3.409   0.187   9.447  0.7340 -0.3254  0.0320
   26CHL1   C18 1877   3.274   0.105   9.408  0.0205 -0.0142  0.2350
   26CHL1  H18A 1878   3.241   0.057   9.503  0.4186  0.2940  0.5364
   26CHL1  H18B 1879   3.201   0.178   9.366 -1.9382 -0.0567  3.2358
   26CHL1  H18C 1880   3.304   0.024   9.339 -0.3615 -1.5198  1.7680
   26CHL1   C12 1881   3.512   0.102   9.519 -0.7120 -0.1594 -0.2044
   26CHL1  H12A 1882   3.558   0.022   9.456  0.6764  1.7932 -1.8219
   26CHL1  H12B 1883   3.605   0.162   9.536 -0.4965 -1.2299  3.0480
   26CHL1   C11 1884   3.468   0.046   9.655 -0.3000 -0.2097 -0.3314
   26CHL1  H11A 1885   3.385  -0.024   9.632 -0.6031  0.0238  0.0520
   26CHL1  H11B 1886   3.557  -0.009   9.693 -0.9842 -1.5485 -0.5892
   26CHL1    C9 1887   3.439   0.167   9.751  0.4483 -0.3427 -0.4668
   26CHL1    H9 1888   3.533   0.225   9.758  0.8686 -1.2152  2.7768
   26CHL1   C10 1889   3.407   0.115   9.893 -0.0111 -0.2323 -0.0620
   26CHL1   C19 1890   3.310  -0.002   9.887  0.1185  0.0669 -1.3245
   26CHL1  H19A 1891   3.268  -0.041   9.982  0.4769  1.0418 -0.7465
   26CHL1  H19B 1892   3.215   0.032   9.839  1.3212  1.6295 -2.7321
   26CHL1  H19C 1893   3.334  -0.084   9.816  0.6656 -2.1463  1.2807
   26CHL1    C1 1894   3.547   0.072   9.957  0.0100  0.1753  0.0789
   26CHL1   H1A 1895   3.583  -0.012   9.893 -2.4595  0.0255 -1.2463
   26CHL1   H1B 1896   3.612   0.161   9.949  0.2968 -0.0287  0.0994
   26CHL1    C2 1897   3.526   0.035  10.111 -0.4821  0.0911 -0.4943
   26CHL1   H2A 1898   3.631   0.023  10.146 -0.3167 -0.1936 -1.0578
   26CHL1   H2B 1899   3.479  -0.065  10.124 -1.8497  0.9162  1.3059
   26CHL1   C20 1900   3.459   0.218   9.187  1.1362  0.6304  0.3263
   26CHL1   H20 1901   3.356   0.187   9.160  1.9625 -0.8030 -1.4518
   26CHL1   C21 1902   3.550   0.090   9.175 -0.2112  0.2698 -0.1476
   26CHL1  H21A 1903   3.504   0.008   9.236 -1.3434  1.4033  0.5712
   26CHL1  H21B 1904   3.654   0.110   9.208  0.3116 -0.4866 -1.2770
   26CHL1  H21C 1905   3.546   0.053   9.070 -2.3543 -1.3274  0.3968
   26CHL1   C22 1906   3.489   0.334   9.082  0.3824  0.5606 -0.9295
   26CHL1  H22A 1907   3.416   0.419   9.083  0.0202  0.3258 -2.8228
   26CHL1  H22B 1908   3.585   0.382   9.109  0.1939  0.6609 -0.4344
   26CHL1   C23 1909   3.515   0.284   8.938  0.1888 -0.2394  0.0029
   26CHL1  H23A 1910   3.593   0.206   8.922  1.6418  1.5742 -2.4983
   26CHL1  H23B 1911   3.418   0.247   8.896 -0.5457  1.3813  0.2012
   26CHL1   C24 1912   3.549   0.407   8.852 -0.3007 -0.5222 -0.6102
   26CHL1  H24A 1913   3.466   0.481   8.854 -0.3776 -0.6149  0.5052
   26CHL1  H24B 1914   3.642   0.436   8.905  0.1627 -0.9253 -1.1902
   26CHL1   C25 1915   3.588   0.347   8.714 -0.2466  0.3409  0.0755
   26CHL1   H25 1916   3.648   0.254   8.728  0.5596  0.5708 -1.6185
   26CHL1   C26 1917   3.467   0.298   8.634  0.3530  0.0539  0.5291
   26CHL1  H26A 1918   3.399   0.234   8.693 -1.0824  0.3877 -0.7078
   26CHL1  H26B 1919   3.399   0.378   8.598  0.2474 -1.3708 -2.7857
   26CHL1  H26C 1920   3.506   0.240   8.547 -0.0752 -0.7985  0.8930
   26CHL1   C27 1921   3.675   0.443   8.631 -0.7874 -0.6737  0.6805
   26CHL1  H27A 1922   3.767   0.465   8.690 -0.1646  2.3336 -1.2265
   26CHL1  H27B 1923   3.707   0.403   8.533 -0.2706 -0.5698  0.8010
   26CHL1  H27C 1924   3.633   0.545   8.621  2.4174  0.5700 -1.8718
   27CHL1    C3 1925   1.091   5.085  10.371  0.2808 -0.3002  0.2879
   27CHL1    H3 1926   0.985   5.054  10.385 -0.7967  1.7190 -2.2671
   27CHL1    O3 1927   1.137   5.121  10.499  0.0061  0.2305  0.0646
   27CHL1   H3' 1928   1.231   5.138  10.487  0.2773 -1.0823  0.1429
   27CHL1    C4 1929   1.171   4.965  10.306 -0.0136  0.1878 -0.2271
   27CHL1   H4A 1930   1.279   4.981  10.324 -0.1576  1.1359 -0.1703
   27CHL1   H4B 1931   1.133   4.874  10.358  0.2825  0.7466  1.0051
   27CHL1    C5 1932   1.145   4.949  10.157 -0.4359 -0.4223 -0.3149
   27CHL1    C6 1933   1.107   4.829  10.102  0.5768  0.0310  0.2738
   27CHL1    H6 1934   1.085   4.736  10.156 -0.8613  0.8636  1.1919
   27CHL1    C7 1935   1.091   4.815   9.951  0.1571 -0.1192 -0.3288
   27CHL1   H7A 1936   1.105   4.714   9.907  3.2033  0.7058 -1.4672
   27CHL1   H7B 1937   0.987   4.843   9.924 -0.4972 -1.5169  0.5942
   27CHL1    C8 1938   1.174   4.914   9.871  0.1711  0.1682  0.2276
   27CHL1    H8 1939   1.282   4.888   9.876 -0.1422 -0.9165  2.8897
   27CHL1   C14 1940   1.145   4.903   9.719 -0.4756 -0.2176  0.0484
   27CHL1   H14 1941   1.034   4.908   9.713 -0.4113  1.1972 -0.2316
   27CHL1   C15 1942   1.184   4.772   9.645 -0.3651  0.2049  0.4771
   27CHL1  H15A 1943   1.290   4.751   9.670 -0.2506  1.6832  1.3817
   27CHL1  H15B 1944   1.109   4.692   9.661 -0.5364 -0.0081 -1.2398
   27CHL1   C16 1945   1.161   4.807   9.500 -0.3342  0.6488  0.9251
   27CHL1  H16A 1946   1.231   4.746   9.439 -2.6904  0.9375 -2.3230
   27CHL1  H16B 1947   1.063   4.771   9.463  0.0206  4.3304 -4.8715
   27CHL1   C17 1948   1.163   4.962   9.482 -0.4530  0.1668  0.1305
   27CHL1   H17 1949   1.059   5.001   9.483  0.1787  1.9490  0.8900
   27CHL1   C13 1950   1.199   5.016   9.624  0.0165  0.4472  0.2000
   27CHL1   C18 1951   1.350   5.032   9.639  0.4218 -0.1819 -0.9280
   27CHL1  H18A 1952   1.379   5.123   9.581 -0.7186  0.8421  0.0400
   27CHL1  H18B 1953   1.381   5.049   9.744 -0.5976  1.5152 -0.8491
   27CHL1  H18C 1954   1.404   4.944   9.598 -0.9260 -0.3559 -2.4219
   27CHL1   C12 1955   1.123   5.141   9.676 -0.4616  0.2846  0.0764
   27CHL1  H12A 1956   1.140   5.229   9.610 -2.0005  0.5836  0.0349
   27CHL1  H12B 1957   1.013   5.124   9.678 -0.8472  2.4896  0.7808
   27CHL1   C11 1958   1.167   5.171   9.825  0.3557 -0.5078  0.1011
   27CHL1  H11A 1959   1.273   5.205   9.829 -0.0220  0.8598 -0.7953
   27CHL1  H11B 1960   1.106   5.257   9.860 -1.8380 -0.9733 -2.3080
   27CHL1    C9 1961   1.141   5.050   9.926  0.2788 -0.3744 -0.8192
   27CHL1    H9 1962   1.030   5.055   9.920  0.1941  2.3623  0.8964
   27CHL1   C10 1963   1.177   5.078  10.074  0.4584 -0.0085  0.0805
   27CHL1   C19 1964   1.325   5.124  10.076 -0.2138 -0.1655 -0.6357
   27CHL1  H19A 1965   1.392   5.058  10.018  1.9548  2.3145 -1.1340
   27CHL1  H19B 1966   1.328   5.222  10.023  2.7839 -0.2912 -0.8533
   27CHL1  H19C 1967   1.341   5.138  10.185  0.1548  2.1195 -0.9328
   27CHL1    C1 1968   1.075   5.186  10.135  0.0819 -0.4753 -0.3039
   27CHL1   H1A 1969   1.084   5.284  10.083  0.3915  0.4874  1.4582
   27CHL1   H1B 1970   0.972   5.146  10.127  1.6549 -4.9737 -1.2111
   27CHL1    C2 1971   1.100   5.210  10.288 -0.2354 -1.1682 -0.1563
   27CHL1   H2A 1972   1.040   5.294  10.328 -0.3207  0.0966 -2.7059
   27CHL1   H2B 1973   1.202   5.252  10.303 -1.0575  1.3343 -1.1590
   27CHL1   C20 1974   1.238   5.022   9.354 -0.0814 -0.2927 -0.2051
   27CHL1   H20 1975   1.347   5.010   9.371  0.1741 -0.2229 -1.6892
   27CHL1   C21 1976   1.204   5.172   9.354  0.7420 -0.0396 -0.6388
   27CHL1  H21A 1977   1.252   5.220   9.442  0.6717 -0.6451 -0.2597
   27CHL1  H21B 1978   1.094   5.186   9.348  0.6656 -0.6722 -0.8158
   27CHL1  H21C 1979   1.243   5.218   9.261 -0.0108 -0.5056 -1.1930
   27CHL1   C22 1980   1.212   4.949   9.226 -0.1719  0.1159 -0.1850
   27CHL1  H22A 1981   1.211   4.839   9.241  2.3641  0.2353  1.4922
   27CHL1  H22B 1982   1.106   4.961   9.196  0.0650 -1.1062 -1.6497
   27CHL1   C23 1983   1.308   5.000   9.124  0.1917 -0.1729 -0.3132
   27CHL1  H23A 1984   1.321   5.110   9.120  1.5908 -0.3791 -2.4154
   27CHL1  H23B 1985   1.414   4.969   9.139  1.0772  2.1033 -1.4439
   27CHL1   C24 1986   1.250   4.955   8.984 -0.0112  0.1949 -0.4498
   27CHL1  H24A 1987   1.247   4.845   9.001  1.4616  0.3229  0.8810
   27CHL1  H24B 1988   1.142   4.978   8.991 -0.4863 -1.5720 -1.2880
   27CHL1   C25 1989   1.316   4.999   8.856 -0.1511  0.3565 -0.3379
   27CHL1   H25 1990   1.269   5.096   8.831  1.7519  1.9436  1.8717
   27CHL1   C26 1991   1.465   5.025   8.876 -0.0900 -0.1850  0.8642
   27CHL1  H26A 1992   1.505   5.059   8.778 -1.2501 -0.2042  0.3664
   27CHL1  H26B 1993   1.490   5.105   8.950 -1.5930  0.9319  0.2168
   27CHL1  H26C 1994   1.512   4.926   8.895  0.0287 -0.4482 -0.7271
   27CHL1   C27 1995   1.298   4.890   8.751 -0.1468  0.7470  0.5553
   27CHL1  H27A 1996   1.191   4.881   8.722  0.0520  1.0516 -0.3019
   27CHL1  H27B 1997   1.358   4.910   8.660  0.8401 -1.2023  0.7190
   27CHL1  H27C 1998   1.336   4.795   8.796 -0.7817  1.3830  2.5478
   28CHL1    C3 1999   1.430   2.558  10.074  0.3872 -0.6073 -0.4849
   28CHL1    H3 2000   1.521   2.621  10.074 -0.7167  1.0524 -0.2528
   28CHL1    O3 2001   1.403   2.519  10.211 -0.3150 -0.2729  0.3181
   28CHL1   H3' 2002   1.464   2.448  10.234 -1.5908 -1.0519  1.4899
   28CHL1    C4 2003   1.314   2.640  10.026 -0.2257  0.1070 -0.0771
   28CHL1   H4A 2004   1.221   2.580  10.041  0.4407 -0.6810  1.0872
   28CHL1   H4B 2005   1.310   2.724  10.098  0.3495  0.8424 -0.8793
   28CHL1    C5 2006   1.329   2.679   9.875  0.7287  0.1468 -0.2798
   28CHL1    C6 2007   1.327   2.811   9.842  0.4199 -0.0292 -0.3885
   28CHL1    H6 2008   1.305   2.888   9.917  1.3281 -0.3930  0.2802
   28CHL1    C7 2009   1.348   2.846   9.690  0.1388 -0.5702  0.0064
   28CHL1   H7A 2010   1.267   2.916   9.662  0.2864  0.1794  1.3331
   28CHL1   H7B 2011   1.447   2.892   9.671  0.0126  1.0091  2.5416
   28CHL1    C8 2012   1.343   2.727   9.588  0.6461 -0.0466 -0.0909
   28CHL1    H8 2013   1.237   2.702   9.566  0.2669  0.6667  0.8516
   28CHL1   C14 2014   1.401   2.766   9.453 -0.1086  0.1251  0.2687
   28CHL1   H14 2015   1.509   2.784   9.475  0.1669 -1.1704  0.0760
   28CHL1   C15 2016   1.350   2.898   9.397 -0.3055  0.0632  0.6733
   28CHL1  H15A 2017   1.239   2.901   9.401 -0.2519  1.7911  1.8732
   28CHL1  H15B 2018   1.405   2.974   9.457  1.3597 -0.3209 -0.2967
   28CHL1   C16 2019   1.403   2.892   9.254 -0.4383 -0.4997  0.2886
   28CHL1  H16A 2020   1.307   2.896   9.197 -1.7501  0.0310  2.4098
   28CHL1  H16B 2021   1.470   2.976   9.226 -1.1442 -0.3229 -0.9826
   28CHL1   C17 2022   1.455   2.753   9.227  0.0343 -0.0311 -0.1978
   28CHL1   H17 2023   1.565   2.750   9.244 -0.1293 -1.6836  0.7974
   28CHL1   C13 2024   1.389   2.668   9.343 -0.0160  0.4657 -0.4444
   28CHL1   C18 2025   1.244   2.635   9.308 -0.0682 -0.3752  0.9449
   28CHL1  H18A 2026   1.238   2.564   9.223  2.6973  0.8465 -0.3846
   28CHL1  H18B 2027   1.198   2.582   9.395  1.2477 -0.6496  1.4913
   28CHL1  H18C 2028   1.179   2.722   9.282 -0.0648  0.4306  3.3416
   28CHL1   C12 2029   1.471   2.549   9.392 -0.3124 -0.7033 -0.4013
   28CHL1  H12A 2030   1.464   2.460   9.326 -2.6388 -0.9185  0.0541
   28CHL1  H12B 2031   1.578   2.574   9.406 -0.8693  1.0564  1.2731
   28CHL1   C11 2032   1.425   2.501   9.531  0.4425 -0.9847  0.0570
   28CHL1  H11A 2033   1.322   2.465   9.512 -0.3274  0.7035  0.8242
   28CHL1  H11B 2034   1.497   2.417   9.545  0.9332 -0.3624  1.3568
   28CHL1    C9 2035   1.416   2.609   9.639  0.4856  0.4833 -0.2579
   28CHL1    H9 2036   1.521   2.641   9.659  0.7001 -1.4790  2.1345
   28CHL1   C10 2037   1.366   2.562   9.776 -0.3227 -0.5677 -0.7981
   28CHL1   C19 2038   1.237   2.484   9.761 -0.5352 -0.2518 -0.1867
   28CHL1  H19A 2039   1.265   2.390   9.708  2.6436  0.1407  0.5970
   28CHL1  H19B 2040   1.196   2.465   9.862 -2.3311 -0.1704 -0.8486
   28CHL1  H19C 2041   1.160   2.538   9.701 -0.5856 -1.5869 -1.3992
   28CHL1    C1 2042   1.474   2.474   9.843 -0.1464 -0.0903 -0.8597
   28CHL1   H1A 2043   1.484   2.378   9.789 -4.4559  0.0225 -2.2714
   28CHL1   H1B 2044   1.575   2.519   9.845  0.8973 -2.2920  1.5092
   28CHL1    C2 2045   1.444   2.435   9.995  0.4310  0.1011  0.7429
   28CHL1   H2A 2046   1.528   2.380  10.042  1.4778 -0.1279 -1.2894
   28CHL1   H2B 2047   1.353   2.371   9.999  0.9446 -0.9029 -1.6006
   28CHL1   C20 2048   1.428   2.705   9.080  0.5285 -0.0312 -0.9947
   28CHL1   H20 2049   1.322   2.691   9.051  0.0319  1.0910  0.1684
   28CHL1   C21 2050   1.490   2.561   9.059  0.4625  0.1366  0.1597
   28CHL1  H21A 2051   1.460   2.516   8.962 -0.1606  2.2137 -0.6503
   28CHL1  H21B 2052   1.448   2.495   9.138 -0.5447  1.2403  0.5816
   28CHL1  H21C 2053   1.600   2.551   9.064  0.3545 -2.0428 -0.6366
   28CHL1   C22 2054   1.484   2.801   8.976 -0.0470 -0.7107 -0.5334
   28CHL1  H22A 2055   1.438   2.902   8.989 -0.7000 -1.3522  3.3864
   28CHL1  H22B 2056   1.593   2.820   8.980 -0.2477  0.9174 -1.8290
   28CHL1   C23 2057   1.463   2.751   8.836 -0.3897  0.3185  0.0682
   28CHL1  H23A 2058   1.527   2.661   8.825 -1.4526 -0.3966 -0.3860
   28CHL1  H23B 2059   1.357   2.719   8.826  0.1069 -1.1360 -0.7884
   28CHL1   C24 2060   1.512   2.848   8.732 -0.3007  0.3518 -0.1888
   28CHL1  H24A 2061   1.443   2.935   8.723 -2.4259 -1.2279  0.2324
   28CHL1  H24B 2062   1.616   2.879   8.756 -0.0266 -0.0493 -0.8240
   28CHL1   C25 2063   1.520   2.787   8.587  0.1072 -0.8105 -0.1339
   28CHL1   H25 2064   1.415   2.770   8.555  0.0588 -2.8504  0.9884
   28CHL1   C26 2065   1.590   2.903   8.499  0.5581  0.9121  0.6684
   28CHL1  H26A 2066   1.690   2.928   8.540  1.2593 -0.1193 -0.3457
   28CHL1  H26B 2067   1.592   2.862   8.396  0.5638 -0.5838  1.2334
   28CHL1  H26C 2068   1.521   2.990   8.500 -0.4374  0.1566 -0.1904
   28CHL1   C27 2069   1.596   2.659   8.575 -0.3551  0.8732  0.1381
   28CHL1  H27A 2070   1.692   2.668   8.631  0.2802  0.1242 -0.7909
   28CHL1  H27B 2071   1.538   2.579   8.627  0.3492  0.8334  0.8949
   28CHL1  H27C 2072   1.612   2.627   8.470 -0.2205 -0.6496  0.5908
   29CHL1    C3 2073   4.818   0.342   6.995 -0.1536 -0.0114 -0.1024
   29CHL1    H3 2074   4.835   0.452   6.995 -1.7113  0.2574 -0.9177
   29CHL1    O3 2075   4.786   0.321   6.858  0.0037 -0.4157 -0.2858
   29CHL1   H3' 2076   4.771   0.226   6.857 -2.4867 -0.0708 -0.7199
   29CHL1    C4 2077   4.955   0.269   7.024 -0.3046 -0.4493 -0.1259
   29CHL1   H4A 2078   4.931   0.163   7.000  0.8699 -0.4694 -1.2424
   29CHL1   H4B 2079   5.023   0.317   6.952 -0.3429  0.5582  0.4844
   29CHL1    C5 2080   5.003   0.295   7.164 -0.0668  0.0982  0.2492
   29CHL1    C6 2081   5.115   0.352   7.192 -0.0903  0.1243 -0.1626
   29CHL1    H6 2082   5.182   0.384   7.111  0.1605 -1.6289 -0.6831
   29CHL1    C7 2083   5.167   0.370   7.330 -0.8316  0.5698 -0.4964
   29CHL1   H7A 2084   5.273   0.340   7.340 -0.8640  0.7894  0.6785
   29CHL1   H7B 2085   5.172   0.478   7.355  0.8266 -0.0521  2.3865
   29CHL1    C8 2086   5.084   0.295   7.439 -0.0612  0.1017 -0.6382
   29CHL1    H8 2087   5.122   0.192   7.427  0.6812  0.1948  0.6692
   29CHL1   C14 2088   5.113   0.335   7.582  0.2670  0.2708  0.0481
   29CHL1   H14 2089   5.071   0.437   7.598  0.8501  0.2514  2.0253
   29CHL1   C15 2090   5.261   0.359   7.610  0.9314  0.0193 -0.9690
   29CHL1  H15A 2091   5.316   0.264   7.590 -0.7783 -1.8417  2.3216
   29CHL1  H15B 2092   5.317   0.442   7.561 -0.1026  0.6331 -1.1412
   29CHL1   C16 2093   5.256   0.362   7.766 -0.4212 -0.0307 -0.1801
   29CHL1  H16A 2094   5.335   0.295   7.806  0.6165  0.8620 -0.6720
   29CHL1  H16B 2095   5.283   0.462   7.806  1.7588 -0.2772 -0.9478
   29CHL1   C17 2096   5.115   0.317   7.817  0.2023 -0.3686 -0.1617
   29CHL1   H17 2097   5.048   0.406   7.819 -0.3796 -0.7472 -1.2495
   29CHL1   C13 2098   5.048   0.251   7.686  0.0778  0.3195 -1.0052
   29CHL1   C18 2099   5.087   0.098   7.676  0.3747  0.3599  0.3809
   29CHL1  H18A 2100   5.045   0.061   7.580  2.7116  0.1667 -0.6415
   29CHL1  H18B 2101   5.197   0.083   7.666  0.0058 -1.6678 -1.5991
   29CHL1  H18C 2102   5.043   0.044   7.762 -1.0103  0.3101 -0.3346
   29CHL1   C12 2103   4.890   0.262   7.669 -0.6669  0.0051 -0.8263
   29CHL1  H12A 2104   4.849   0.194   7.746 -1.0971 -0.5907 -1.5707
   29CHL1  H12B 2105   4.861   0.364   7.704 -0.7951 -0.2524 -0.1752
   29CHL1   C11 2106   4.851   0.234   7.525 -0.7491  0.2988 -0.1894
   29CHL1  H11A 2107   4.862   0.124   7.512 -0.7549  0.2346  0.3382
   29CHL1  H11B 2108   4.744   0.262   7.521 -0.9524  0.0334  2.0855
   29CHL1    C9 2109   4.932   0.310   7.414 -0.7309  0.0983  0.3440
   29CHL1    H9 2110   4.897   0.414   7.427  1.5666  1.1284 -0.9866
   29CHL1   C10 2111   4.892   0.259   7.273 -0.4713  0.5465 -0.2031
   29CHL1   C19 2112   4.883   0.102   7.273 -0.2089 -0.5660 -0.2706
   29CHL1  H19A 2113   4.873   0.064   7.169 -0.7992 -1.3110  0.0472
   29CHL1  H19B 2114   4.967   0.060   7.332  0.0126  0.3913  0.1263
   29CHL1  H19C 2115   4.783   0.079   7.316  0.0105  0.2911  0.7380
   29CHL1    C1 2116   4.755   0.320   7.229  0.2072 -0.0015 -0.1126
   29CHL1   H1A 2117   4.673   0.278   7.292  1.3617 -0.1882  1.3070
   29CHL1   H1B 2118   4.761   0.430   7.242 -1.1566  0.4795 -2.7808
   29CHL1    C2 2119   4.706   0.298   7.088  0.5953  0.6702 -0.0616
   29CHL1   H2A 2120   4.610   0.350   7.068  1.5300  2.3704 -0.2464
   29CHL1   H2B 2121   4.683   0.190   7.072 -0.3254  0.7418  0.6797
   29CHL1   C20 2122   5.107   0.247   7.947  0.4318 -0.1712 -1.0139
   29CHL1   H20 2123   5.124   0.140   7.924  1.1580 -0.3353  0.1788
   29CHL1   C21 2124   4.965   0.268   8.016 -0.5980  0.1886  0.2634
   29CHL1  H21A 2125   4.957   0.216   8.114 -1.6705  2.2859  1.3509
   29CHL1  H21B 2126   4.876   0.246   7.953 -0.2278  1.1900 -0.6375
   29CHL1  H21C 2127   4.948   0.376   8.033 -0.7608  0.3534 -0.9033
   29CHL1   C22 2128   5.205   0.284   8.060  0.2801  1.0238  0.6345
   29CHL1  H22A 2129   5.194   0.211   8.144  0.1223 -0.3884 -0.5581
   29CHL1  H22B 2130   5.301   0.266   8.006  0.4305  0.3802  1.0961
   29CHL1   C23 2131   5.204   0.434   8.105  0.0477 -0.0737  0.4505
   29CHL1  H23A 2132   5.217   0.488   8.009  0.9281 -1.1644 -0.0571
   29CHL1  H23B 2133   5.108   0.469   8.149 -0.4151 -0.2617 -0.3838
   29CHL1   C24 2134   5.320   0.474   8.191 -0.0369  0.4980 -0.0543
   29CHL1  H24A 2135   5.404   0.452   8.122  0.5653  0.2172  0.7595
   29CHL1  H24B 2136   5.325   0.580   8.224 -1.7194  0.9050 -0.9638
   29CHL1   C25 2137   5.323   0.410   8.332  0.6859 -0.2949 -0.4729
   29CHL1   H25 2138   5.282   0.307   8.325 -2.6522  0.7604  1.1989
   29CHL1   C26 2139   5.456   0.410   8.385 -0.7038  0.2611  0.0139
   29CHL1  H26A 2140   5.535   0.366   8.319  0.4553 -1.8510  2.6237
   29CHL1  H26B 2141   5.480   0.518   8.395  0.1564  0.2259 -1.3845
   29CHL1  H26C 2142   5.473   0.368   8.486  3.5265  1.0210 -0.2245
   29CHL1   C27 2143   5.236   0.475   8.439 -0.0186  0.8086  0.9180
   29CHL1  H27A 2144   5.144   0.513   8.391  0.0658 -0.4168 -0.2673
   29CHL1  H27B 2145   5.199   0.411   8.522 -0.4098  0.2460  0.3243
   29CHL1  H27C 2146   5.285   0.566   8.479  0.4980  2.0709 -2.3324
   30CHL1    C3 2147   3.695   0.220   7.086 -0.6313 -0.1898  0.0485
   30CHL1    H3 2148   3.677   0.329   7.095 -0.3446 -0.2599  1.8120
   30CHL1    O3 2149   3.642   0.176   6.965 -0.1350  0.5891 -0.6983
   30CHL1   H3' 2150   3.651   0.081   6.973 -2.2592  0.4372  0.4605
   30CHL1    C4 2151   3.847   0.194   7.096 -0.2997  0.0008 -1.0168
   30CHL1   H4A 2152   3.870   0.087   7.078  2.0952  0.6376 -2.1297
   30CHL1   H4B 2153   3.901   0.261   7.027 -0.4111  2.6852  1.3402
   30CHL1    C5 2154   3.896   0.234   7.243 -0.3311 -0.5128  0.2913
   30CHL1    C6 2155   4.000   0.316   7.263 -0.4595 -0.4379 -0.0907
   30CHL1    H6 2156   4.048   0.368   7.179  0.0941  0.5743  0.8265
   30CHL1    C7 2157   4.054   0.355   7.398  0.1863 -0.6138 -0.2495
   30CHL1   H7A 2158   4.164   0.365   7.399  0.4277 -2.0299  3.4773
   30CHL1   H7B 2159   4.016   0.458   7.417  0.6849 -0.2263 -1.3059
   30CHL1    C8 2160   4.011   0.254   7.508 -0.4914 -0.3869 -0.9139
   30CHL1    H8 2161   4.067   0.161   7.485  1.6427  0.4921  0.4554
   30CHL1   C14 2162   4.035   0.317   7.644 -0.1757 -0.0346 -0.0026
   30CHL1   H14 2163   3.962   0.399   7.656 -0.7713 -0.4998 -0.3897
   30CHL1   C15 2164   4.180   0.367   7.689  0.0436 -0.8514  0.3924
   30CHL1  H15A 2165   4.248   0.298   7.634  0.1013 -1.0986  0.7706
   30CHL1  H15B 2166   4.196   0.472   7.656  2.0431 -1.5103 -0.9365
   30CHL1   C16 2167   4.188   0.352   7.843 -0.5648 -0.0802  0.6314
   30CHL1  H16A 2168   4.269   0.276   7.853 -0.9332 -0.2638  2.4889
   30CHL1  H16B 2169   4.222   0.448   7.886  0.3057  0.9155 -2.0442
   30CHL1   C17 2170   4.050   0.292   7.884  0.2051 -0.3003 -0.1117
   30CHL1   H17 2171   3.992   0.386   7.894  0.2354 -0.4471  1.8375
   30CHL1   C13 2172   4.001   0.218   7.757  0.4315  0.0234  0.0013
   30CHL1   C18 2173   4.092   0.091   7.749 -0.5153  0.1667 -0.3890
   30CHL1  H18A 2174   4.201   0.109   7.737 -0.1858 -1.8168 -0.7493
   30CHL1  H18B 2175   4.085   0.029   7.841  1.7292  0.2563 -0.0971
   30CHL1  H18C 2176   4.058   0.036   7.659  0.5110 -2.3921  0.6993
   30CHL1   C12 2177   3.848   0.182   7.753 -0.4642 -0.2218  0.0077
   30CHL1  H12A 2178   3.820   0.099   7.822  0.9919  0.9677  2.1298
   30CHL1  H12B 2179   3.797   0.274   7.791  0.9925  1.4630 -1.8681
   30CHL1   C11 2180   3.803   0.142   7.616 -0.5556 -0.0033  0.0786
   30CHL1  H11A 2181   3.825   0.033   7.615 -0.4370  0.0003  1.1084
   30CHL1  H11B 2182   3.694   0.162   7.614 -0.6427 -0.3416  0.8756
   30CHL1    C9 2183   3.864   0.213   7.492 -0.0530 -0.1423  0.3286
   30CHL1    H9 2184   3.817   0.314   7.493  1.2811  0.5814  3.3687
   30CHL1   C10 2185   3.824   0.159   7.355  0.1091  0.1374  0.6889
   30CHL1   C19 2186   3.865   0.008   7.343  0.4878  0.1247 -0.5405
   30CHL1  H19A 2187   3.863  -0.045   7.245 -1.0295 -1.6176  0.3390
   30CHL1  H19B 2188   3.964  -0.003   7.391  1.6678  2.8648 -2.1426
   30CHL1  H19C 2189   3.792  -0.054   7.400  1.1511  0.6777  0.9567
   30CHL1    C1 2190   3.680   0.188   7.338 -0.0669 -0.9233 -0.2136
   30CHL1   H1A 2191   3.620   0.124   7.408 -1.6587  0.0565 -0.6442
   30CHL1   H1B 2192   3.646   0.288   7.372 -0.3626 -1.4148  1.0163
   30CHL1    C2 2193   3.623   0.152   7.195 -0.0283  0.5916 -0.1832
   30CHL1   H2A 2194   3.513   0.168   7.191 -0.2568 -1.0073 -0.8233
   30CHL1   H2B 2195   3.642   0.043   7.189 -0.1334  0.6404 -1.7494
   30CHL1   C20 2196   4.034   0.228   8.026 -0.2824 -0.5631 -0.8559
   30CHL1   H20 2197   3.944   0.162   8.027 -1.1087  0.3801  2.9377
   30CHL1   C21 2198   3.994   0.334   8.130  0.5706 -0.0409  0.4478
   30CHL1  H21A 2199   4.076   0.405   8.156  1.2633  0.0831 -1.8350
   30CHL1  H21B 2200   3.955   0.289   8.224 -0.8883  1.9635  0.8683
   30CHL1  H21C 2201   3.913   0.399   8.089  0.0835 -0.5216  0.6472
   30CHL1   C22 2202   4.158   0.159   8.086 -0.5631 -0.1362  0.1474
   30CHL1  H22A 2203   4.200   0.093   8.006 -1.0452 -2.4125  1.6772
   30CHL1  H22B 2204   4.235   0.234   8.114  0.0659 -2.1369  4.5107
   30CHL1   C23 2205   4.143   0.059   8.200 -0.7751  0.4693 -0.5602
   30CHL1  H23A 2206   4.094   0.120   8.278  0.8845  0.7822  0.2924
   30CHL1  H23B 2207   4.092  -0.034   8.167 -2.7339  1.2565  0.1345
   30CHL1   C24 2208   4.270   0.021   8.286 -0.1136  0.1232  0.4318
   30CHL1  H24A 2209   4.343  -0.034   8.223 -1.1554 -0.4448 -0.3106
   30CHL1  H24B 2210   4.313   0.122   8.302 -1.8519  1.5098 -2.6229
   30CHL1   C25 2211   4.241  -0.058   8.414 -0.0857  0.1232  0.6496
   30CHL1   H25 2212   4.172   0.012   8.465  0.3865  2.9416 -2.2920
   30CHL1   C26 2213   4.176  -0.197   8.403  0.8852  0.2263  0.5434
   30CHL1  H26A 2214   4.250  -0.263   8.354 -1.0142  0.1384 -2.4339
   30CHL1  H26B 2215   4.144  -0.242   8.499 -0.4978  0.5582  0.2558
   30CHL1  H26C 2216   4.087  -0.197   8.337  1.4846 -0.7824 -0.3070
   30CHL1   C27 2217   4.376  -0.070   8.495  1.1074 -0.6395 -0.0505
   30CHL1  H27A 2218   4.434   0.024   8.502  0.1754 -0.1748  2.1546
   30CHL1  H27B 2219   4.344  -0.098   8.597 -1.8060  1.4818 -0.2666
   30CHL1  H27C 2220   4.440  -0.152   8.455  2.4760  0.0060  0.7378
   31CHL1    C3 2221   2.871   2.654   6.796  0.4381  0.2979  0.1474
   31CHL1    H3 2222   2.775   2.650   6.852 -0.4312  1.1851 -1.2157
   31CHL1    O3 2223   2.838   2.707   6.664 -0.2633 -0.6201 -0.1288
   31CHL1   H3' 2224   2.839   2.633   6.603  2.7104  0.0025 -1.0063
   31CHL1    C4 2225   2.970   2.761   6.874  0.5982  0.1284  0.5833
   31CHL1   H4A 2226   3.052   2.760   6.799  0.5322 -1.9084  0.4906
   31CHL1   H4B 2227   2.908   2.853   6.879  3.2694  2.0260  0.9661
   31CHL1    C5 2228   3.013   2.697   7.004 -0.5063 -0.1708  0.6080
   31CHL1    C6 2229   2.989   2.758   7.121 -0.2731  0.0897 -0.0619
   31CHL1    H6 2230   2.923   2.846   7.124 -2.4541 -1.4338  3.8718
   31CHL1    C7 2231   3.035   2.715   7.257  0.0033  0.1484 -1.0163
   31CHL1   H7A 2232   3.078   2.799   7.316 -0.6391  1.3240 -2.1929
   31CHL1   H7B 2233   2.947   2.675   7.312  0.2092  0.1389 -0.6902
   31CHL1    C8 2234   3.135   2.603   7.246 -0.1662 -1.0599 -0.6967
   31CHL1    H8 2235   3.225   2.659   7.213 -1.4760  0.2644 -2.1732
   31CHL1   C14 2236   3.177   2.538   7.379  0.3939  0.3939 -1.0341
   31CHL1   H14 2237   3.083   2.501   7.425  0.4308  1.1071 -0.3519
   31CHL1   C15 2238   3.226   2.629   7.496 -0.6290 -0.3188 -0.5183
   31CHL1  H15A 2239   3.293   2.712   7.467 -1.7422  0.8918  0.2245
   31CHL1  H15B 2240   3.131   2.679   7.527 -0.1000  1.3410 -1.5203
   31CHL1   C16 2241   3.293   2.540   7.595  0.4349  0.5814  0.0157
   31CHL1  H16A 2242   3.394   2.586   7.600  0.2501  0.8772  1.2023
   31CHL1  H16B 2243   3.242   2.523   7.692 -2.1456  0.3628 -1.2843
   31CHL1   C17 2244   3.304   2.401   7.526 -0.0589  0.6198  0.2971
   31CHL1   H17 2245   3.217   2.345   7.565  1.4163 -1.3236  0.9214
   31CHL1   C13 2246   3.271   2.421   7.372 -0.7929 -0.1052 -0.4145
   31CHL1   C18 2247   3.403   2.475   7.304  0.2663  0.4591 -0.3192
   31CHL1  H18A 2248   3.475   2.392   7.286  2.5656  2.3577 -0.3701
   31CHL1  H18B 2249   3.383   2.521   7.205 -4.7891  1.2195  0.7901
   31CHL1  H18C 2250   3.455   2.540   7.377  1.0746  1.9346 -2.1312
   31CHL1   C12 2251   3.198   2.305   7.292  0.9328 -1.3782  0.8255
   31CHL1  H12A 2252   3.268   2.219   7.274  0.3759 -1.5370 -0.6905
   31CHL1  H12B 2253   3.106   2.281   7.349 -1.1029  2.6517 -0.4645
   31CHL1   C11 2254   3.164   2.358   7.151 -0.6537  0.2410 -0.3311
   31CHL1  H11A 2255   3.258   2.372   7.094 -1.5177 -0.2525 -1.9406
   31CHL1  H11B 2256   3.112   2.277   7.095  0.0207 -1.3083  1.1909
   31CHL1    C9 2257   3.093   2.494   7.141  0.4225 -0.3582 -0.3305
   31CHL1    H9 2258   2.991   2.464   7.174  0.7049 -2.6798 -1.3878
   31CHL1   C10 2259   3.084   2.562   6.992  0.0562  0.0463 -0.3940
   31CHL1   C19 2260   3.225   2.583   6.931 -0.8555  0.3441 -0.4242
   31CHL1  H19A 2261   3.275   2.486   6.913 -2.8171 -1.0929  1.3247
   31CHL1  H19B 2262   3.208   2.634   6.833 -2.0576 -0.5458 -0.6988
   31CHL1  H19C 2263   3.286   2.647   6.999  0.2261  0.0147 -1.0728
   31CHL1    C1 2264   2.998   2.464   6.906  0.1066  0.0148 -0.1799
   31CHL1   H1A 2265   3.057   2.377   6.871 -1.3606 -1.6372  1.2669
   31CHL1   H1B 2266   2.915   2.418   6.965  1.7414 -0.6663  1.7086
   31CHL1    C2 2267   2.938   2.521   6.769  0.2982  0.3118  0.3654
   31CHL1   H2A 2268   2.868   2.447   6.724 -1.5289  1.9788  0.3439
   31CHL1   H2B 2269   3.024   2.546   6.702  0.8967 -0.7480  0.7004
   31CHL1   C20 2270   3.427   2.320   7.574 -0.0635  0.3244  0.3968
   31CHL1   H20 2271   3.524   2.354   7.533  1.4277  0.1238  3.4910
   31CHL1   C21 2272   3.408   2.181   7.521 -0.0267  0.3438 -0.8663
   31CHL1  H21A 2273   3.487   2.115   7.563  0.4491  2.0769  1.0819
   31CHL1  H21B 2274   3.418   2.192   7.411  2.3925  1.0347 -0.6388
   31CHL1  H21C 2275   3.309   2.137   7.546  0.0986  1.1117  1.1559
   31CHL1   C22 2276   3.448   2.322   7.724 -0.1943  0.5021 -0.2435
   31CHL1  H22A 2277   3.442   2.424   7.768 -1.2570 -0.2853  1.5863
   31CHL1  H22B 2278   3.363   2.265   7.768 -1.7991  0.4975 -3.0899
   31CHL1   C23 2279   3.581   2.253   7.774 -0.1102  0.2126 -0.1993
   31CHL1  H23A 2280   3.567   2.144   7.762  1.3998  0.2005 -2.5032
   31CHL1  H23B 2281   3.647   2.289   7.692 -0.6995 -0.3460 -0.9322
   31CHL1   C24 2282   3.618   2.300   7.913 -0.3860 -0.9410  0.1953
   31CHL1  H24A 2283   3.648   2.406   7.898  0.4360 -1.2810 -0.6734
   31CHL1  H24B 2284   3.525   2.305   7.973  0.4205  0.6785  1.3841
   31CHL1   C25 2285   3.712   2.207   7.985 -0.8295 -0.0087 -0.2992
   31CHL1   H25 2286   3.682   2.101   7.992  1.4974 -0.6455  1.7482
   31CHL1   C26 2287   3.842   2.203   7.905 -0.3193 -0.5362  0.2619
   31CHL1  H26A 2288   3.879   2.308   7.899 -1.6607 -0.0186  0.7230
   31CHL1  H26B 2289   3.918   2.145   7.961  0.2599  0.9378  1.0623
   31CHL1  H26C 2290   3.821   2.170   7.801 -1.3031  0.0502  0.2580
   31CHL1   C27 2291   3.744   2.251   8.130 -0.8438 -0.0609  0.3649
   31CHL1  H27A 2292   3.819   2.181   8.172 -1.8488 -1.3002  0.1686
   31CHL1  H27B 2293   3.657   2.250   8.199 -0.3859  0.6893  0.9601
   31CHL1  H27C 2294   3.783   2.355   8.129 -0.2965 -0.2471 -1.3779
   32CHL1    C3 2295   3.343   1.195   6.835  0.2931  0.2223  0.3427
   32CHL1    H3 2296   3.264   1.169   6.909  0.3392  0.2935  0.4161
   32CHL1    O3 2297   3.288   1.191   6.706  0.2631 -0.1123  0.2126
   32CHL1   H3' 2298   3.360   1.199   6.643 -0.1360 -1.2548 -0.4052
   32CHL1    C4 2299   3.394   1.331   6.868 -0.1134 -0.7082 -0.4568
   32CHL1   H4A 2300   3.484   1.360   6.810 -0.0729  2.5760  1.0246
   32CHL1   H4B 2301   3.318   1.410   6.847  0.4975 -0.1186 -0.4857
   32CHL1    C5 2302   3.449   1.333   7.013 -0.2482 -0.1688  0.9822
   32CHL1    C6 2303   3.389   1.410   7.107 -0.6242 -0.0972 -0.5803
   32CHL1    H6 2304   3.318   1.491   7.082  0.6171  1.3081  0.2516
   32CHL1    C7 2305   3.428   1.415   7.255 -0.3177 -0.2907  0.1038
   32CHL1   H7A 2306   3.426   1.517   7.300  0.3268 -0.4641  0.5237
   32CHL1   H7B 2307   3.349   1.361   7.311  0.6273 -1.0294  0.7334
   32CHL1    C8 2308   3.563   1.338   7.269  0.1220 -1.0065  0.5625
   32CHL1    H8 2309   3.645   1.400   7.227  0.2461 -2.3064 -1.2225
   32CHL1   C14 2310   3.569   1.314   7.424 -1.1713 -0.2687 -0.6078
   32CHL1   H14 2311   3.479   1.253   7.448 -1.5014 -0.1532 -1.4924
   32CHL1   C15 2312   3.545   1.439   7.517  0.0927  0.1989 -0.5485
   32CHL1  H15A 2313   3.598   1.526   7.473 -2.0987  1.5498 -0.6602
   32CHL1  H15B 2314   3.439   1.471   7.523 -0.1109 -0.2923 -1.3505
   32CHL1   C16 2315   3.598   1.393   7.656  0.0465 -0.0807 -0.0430
   32CHL1  H16A 2316   3.677   1.460   7.695 -1.1656  0.3869  1.7247
   32CHL1  H16B 2317   3.510   1.384   7.723  0.2505  1.2591  0.4244
   32CHL1   C17 2318   3.663   1.252   7.633  0.1842  0.1252  0.3048
   32CHL1   H17 2319   3.578   1.185   7.656  1.2828 -0.9862  1.2938
   32CHL1   C13 2320   3.691   1.246   7.480  0.1330 -0.3842  0.2877
   32CHL1   C18 2321   3.820   1.327   7.451  0.4215 -0.1408  0.3209
   32CHL1  H18A 2322   3.819   1.425   7.502 -1.6004 -0.0946  0.2630
   32CHL1  H18B 2323   3.915   1.278   7.481  0.6516 -0.3773 -0.7538
   32CHL1  H18C 2324   3.830   1.347   7.342 -1.8880  0.2971  0.1507
   32CHL1   C12 2325   3.697   1.112   7.401 -0.2258 -0.4727  0.1297
   32CHL1  H12A 2326   3.785   1.049   7.426  0.6099 -0.0169 -1.5209
   32CHL1  H12B 2327   3.602   1.060   7.427 -0.2075 -0.6112 -0.0766
   32CHL1   C11 2328   3.691   1.127   7.238 -0.1953 -0.0914  0.1347
   32CHL1  H11A 2329   3.790   1.173   7.215 -1.5543  2.4071 -1.2313
   32CHL1  H11B 2330   3.691   1.022   7.201 -1.1071 -0.1421  0.2490
   32CHL1    C9 2331   3.567   1.206   7.189 -0.0645 -0.3569 -0.6164
   32CHL1    H9 2332   3.474   1.153   7.218 -1.0668  2.2002  1.3035
   32CHL1   C10 2333   3.556   1.224   7.037  0.3109 -0.5209  0.3929
   32CHL1   C19 2334   3.691   1.267   6.972 -0.0235  1.0545  0.2999
   32CHL1  H19A 2335   3.763   1.184   6.983 -1.9796 -0.4544  2.9798
   32CHL1  H19B 2336   3.680   1.300   6.867  1.6045 -0.7495 -0.4853
   32CHL1  H19C 2337   3.730   1.355   7.028 -1.4622  2.7120 -1.1608
   32CHL1    C1 2338   3.520   1.082   6.978  0.2617 -0.0303  0.5492
   32CHL1   H1A 2339   3.605   1.010   6.982  1.5866  1.5197  1.7991
   32CHL1   H1B 2340   3.430   1.044   7.030 -0.3810  1.6513  0.7344
   32CHL1    C2 2341   3.462   1.099   6.840  0.1614  0.0089 -0.0840
   32CHL1   H2A 2342   3.428   1.005   6.792 -1.9413  1.1206 -0.9059
   32CHL1   H2B 2343   3.543   1.130   6.771  1.6274 -2.4032  0.4348
   32CHL1   C20 2344   3.788   1.231   7.728 -0.2126  0.2677  0.1046
   32CHL1   H20 2345   3.860   1.313   7.707 -0.7469  0.7729  0.2365
   32CHL1   C21 2346   3.844   1.095   7.693  0.3285  0.4509  0.4360
   32CHL1  H21A 2347   3.766   1.016   7.690 -0.7412  1.4219  1.3743
   32CHL1  H21B 2348   3.932   1.076   7.757  1.4336  1.0315 -0.8632
   32CHL1  H21C 2349   3.896   1.092   7.595 -1.3876  1.8951 -0.5986
   32CHL1   C22 2350   3.740   1.231   7.875  0.0178 -0.3583 -0.4144
   32CHL1  H22A 2351   3.643   1.278   7.902 -0.0260 -1.0892  0.7613
   32CHL1  H22B 2352   3.718   1.124   7.895  2.0935 -1.1371 -1.9243
   32CHL1   C23 2353   3.857   1.287   7.976  0.1234  0.5907  0.0681
   32CHL1  H23A 2354   3.923   1.199   7.992 -1.7874 -0.9959 -0.3907
   32CHL1  H23B 2355   3.918   1.365   7.924  0.6665 -0.6228 -1.1894
   32CHL1   C24 2356   3.806   1.315   8.114 -0.1557 -0.7380  0.2913
   32CHL1  H24A 2357   3.720   1.385   8.116 -0.1306 -0.7111  0.4022
   32CHL1  H24B 2358   3.775   1.220   8.162  0.4266 -3.0198 -3.4406
   32CHL1   C25 2359   3.905   1.365   8.219  0.2897 -1.2358  0.2436
   32CHL1   H25 2360   3.962   1.451   8.178  0.2427 -0.6506  1.3896
   32CHL1   C26 2361   3.829   1.416   8.346  0.6034  0.2493  0.2910
   32CHL1  H26A 2362   3.753   1.492   8.317 -1.4690 -0.6095  3.0774
   32CHL1  H26B 2363   3.765   1.331   8.378  0.3094 -0.1147 -1.1793
   32CHL1  H26C 2364   3.902   1.441   8.425  1.3074  2.3011 -0.9312
   32CHL1   C27 2365   4.015   1.265   8.245  0.1940 -0.1727 -0.4318
   32CHL1  H27A 2366   4.079   1.270   8.336  0.5428  2.6937 -0.7555
   32CHL1  H27B 2367   3.962   1.167   8.250 -2.3968  1.0994 -1.2494
   32CHL1  H27C 2368   4.084   1.238   8.162 -1.0059 -0.7275 -1.2784
   33CHL1    C3 2369   5.550   0.195   6.895 -0.1530  0.4910 -0.2606
   33CHL1    H3 2370   5.634   0.265   6.915  1.8540 -1.2226 -2.1690
   33CHL1    O3 2371   5.541   0.206   6.756 -0.8062 -0.1508 -0.2696
   33CHL1   H3' 2372   5.501   0.126   6.721  0.6470 -0.6759 -0.7892
   33CHL1    C4 2373   5.600   0.046   6.931 -0.8479 -0.2348 -0.3822
   33CHL1   H4A 2374   5.520  -0.025   6.902  0.0555 -2.3621  1.9260
   33CHL1   H4B 2375   5.688   0.038   6.863  0.4552 -1.1548  1.3309
   33CHL1    C5 2376   5.640   0.031   7.074 -0.7368  0.1328  0.1904
   33CHL1    C6 2377   5.770   0.010   7.108 -0.0882  0.5841 -0.3390
   33CHL1    H6 2378   5.842   0.004   7.026  0.7841 -1.8101  0.5185
   33CHL1    C7 2379   5.817  -0.011   7.254  0.0448  0.0283  0.4804
   33CHL1   H7A 2380   5.867  -0.108   7.275  1.8908  0.5298 -1.2653
   33CHL1   H7B 2381   5.884   0.073   7.281  2.5861 -0.5031 -3.3480
   33CHL1    C8 2382   5.695  -0.019   7.347 -0.1677 -0.2287 -0.4685
   33CHL1    H8 2383   5.655  -0.122   7.336 -1.0707 -0.0323  0.6762
   33CHL1   C14 2384   5.737   0.004   7.498  1.6237  0.1852  0.4313
   33CHL1   H14 2385   5.748   0.115   7.499 -0.0331  0.5364 -3.1538
   33CHL1   C15 2386   5.863  -0.070   7.552 -0.2123 -0.3706 -0.5209
   33CHL1  H15A 2387   5.869  -0.172   7.510  2.0579  0.1521 -1.6642
   33CHL1  H15B 2388   5.954  -0.022   7.510 -1.3183  0.6607 -1.8145
   33CHL1   C16 2389   5.852  -0.055   7.702 -0.8605 -0.1521 -0.8011
   33CHL1  H16A 2390   5.847  -0.155   7.750  0.3565  0.5315  0.8424
   33CHL1  H16B 2391   5.936  -0.012   7.760 -2.5033 -0.0500  1.6415
   33CHL1   C17 2392   5.713   0.016   7.727  0.3050  0.1587  0.3233
   33CHL1   H17 2393   5.748   0.121   7.721  1.8450 -0.3471 -0.1263
   33CHL1   C13 2394   5.627  -0.022   7.598 -0.3372 -0.1964 -0.3504
   33CHL1   C18 2395   5.591  -0.174   7.602 -0.4924  0.5994 -0.2368
   33CHL1  H18A 2396   5.544  -0.206   7.507 -0.7223  0.8606 -0.2122
   33CHL1  H18B 2397   5.682  -0.232   7.628 -0.2638  1.3847  0.7946
   33CHL1  H18C 2398   5.526  -0.193   7.690  0.8117 -2.4570  0.1938
   33CHL1   C12 2399   5.497   0.061   7.564  0.5909 -0.0591 -0.3780
   33CHL1  H12A 2400   5.413   0.034   7.632  0.0508  0.0873 -0.9815
   33CHL1  H12B 2401   5.521   0.167   7.588  1.3507 -0.7599  2.3114
   33CHL1   C11 2402   5.457   0.050   7.413  0.7421 -0.1836 -0.5398
   33CHL1  H11A 2403   5.419  -0.053   7.403 -0.3929  0.1199  0.4448
   33CHL1  H11B 2404   5.374   0.123   7.401 -1.0897 -2.0796  0.0786
   33CHL1    C9 2405   5.568   0.071   7.311  0.6077 -0.2475 -1.1758
   33CHL1    H9 2406   5.606   0.175   7.321  0.3133 -0.1368 -1.2160
   33CHL1   C10 2407   5.520   0.055   7.167 -0.7530 -0.3631 -0.2169
   33CHL1   C19 2408   5.413  -0.058   7.151  0.2788  0.3498  0.8160
   33CHL1  H19A 2409   5.464  -0.156   7.166  1.8451  0.4200 -3.0739
   33CHL1  H19B 2410   5.333  -0.056   7.228 -0.7728 -3.6639  0.0869
   33CHL1  H19C 2411   5.368  -0.050   7.050  0.4909  5.0241  0.8703
   33CHL1    C1 2412   5.459   0.192   7.121  0.2630  0.3353 -0.1676
   33CHL1   H1A 2413   5.366   0.198   7.182  2.2300  0.2751  3.0195
   33CHL1   H1B 2414   5.515   0.284   7.149 -1.0631  0.6119  1.7458
   33CHL1    C2 2415   5.424   0.223   6.976  0.3932  0.8120  0.3015
   33CHL1   H2A 2416   5.389   0.328   6.970  0.6073  0.9202  0.8956
   33CHL1   H2B 2417   5.345   0.151   6.943  3.3907 -3.0897  0.8819
   33CHL1   C20 2418   5.647  -0.008   7.867  0.5402  0.3258  0.4420
   33CHL1   H20 2419   5.596  -0.107   7.872  0.1680  0.3643 -1.5140
   33CHL1   C21 2420   5.533   0.088   7.900 -0.3375 -0.0336  0.2059
   33CHL1  H21A 2421   5.445   0.072   7.835 -1.7354  1.1984  1.6984
   33CHL1  H21B 2422   5.566   0.193   7.884  0.0049  0.1319  1.7868
   33CHL1  H21C 2423   5.504   0.071   8.006  0.7674 -2.9859  0.1289
   33CHL1   C22 2424   5.749  -0.016   7.983  0.5229  0.7868  0.1205
   33CHL1  H22A 2425   5.708  -0.058   8.078  2.5783 -0.2689  0.6149
   33CHL1  H22B 2426   5.826  -0.092   7.956 -0.4269 -0.6548  1.2828
   33CHL1   C23 2427   5.810   0.122   8.018  0.2752 -0.3425 -0.0751
   33CHL1  H23A 2428   5.863   0.177   7.938 -0.8519  1.8164  0.5742
   33CHL1  H23B 2429   5.735   0.193   8.059  0.9798  1.0249 -1.0863
   33CHL1   C24 2430   5.923   0.101   8.119  0.4939  0.7784  0.4575
   33CHL1  H24A 2431   5.889   0.025   8.193  2.7392 -0.8622 -0.0460
   33CHL1  H24B 2432   6.019   0.074   8.069 -0.0633  0.8920 -0.6939
   33CHL1   C25 2433   5.953   0.215   8.214 -0.1232 -0.2223 -0.3263
   33CHL1   H25 2434   5.992   0.306   8.163 -0.9555  0.5410  0.3481
   33CHL1   C26 2435   5.824   0.252   8.288  0.5314 -0.0974 -0.0622
   33CHL1  H26A 2436   5.754   0.182   8.337  0.7069  1.4158  2.5324
   33CHL1  H26B 2437   5.850   0.327   8.366  0.8449 -0.0417 -0.2170
   33CHL1  H26C 2438   5.745   0.300   8.226 -0.5718 -2.0179 -0.2203
   33CHL1   C27 2439   6.057   0.170   8.315  0.4180  0.3240  1.0608
   33CHL1  H27A 2440   6.000   0.090   8.368 -2.9310  0.8599 -1.4390
   33CHL1  H27B 2441   6.148   0.131   8.263 -1.2597 -0.2083 -1.6708
   33CHL1  H27C 2442   6.079   0.254   8.384 -0.0880  2.2163 -1.0035
   34CHL1    C3 2443   6.584   5.177   7.175 -0.1348  0.3615 -0.6694
   34CHL1    H3 2444   6.534   5.258   7.231 -2.2506 -0.6478 -0.9815
   34CHL1    O3 2445   6.577   5.203   7.034 -0.5802  0.1163 -0.1100
   34CHL1   H3' 2446   6.614   5.127   6.988 -0.4934  1.2829 -2.0914
   34CHL1    C4 2447   6.739   5.174   7.211 -0.0215 -0.2242  0.3018
   34CHL1   H4A 2448   6.797   5.109   7.142  1.1992 -1.3581  2.2966
   34CHL1   H4B 2449   6.774   5.275   7.183  1.2574 -0.7914 -0.2397
   34CHL1    C5 2450   6.768   5.132   7.357 -0.7321  1.0341  0.0758
   34CHL1    C6 2451   6.845   5.205   7.440 -0.0303  0.2520 -0.1222
   34CHL1    H6 2452   6.900   5.292   7.403 -1.6624  1.7507  0.8356
   34CHL1    C7 2453   6.880   5.176   7.578 -0.0252 -0.0229 -0.0095
   34CHL1   H7A 2454   6.991   5.183   7.586  0.3924 -2.4523 -2.0738
   34CHL1   H7B 2455   6.825   5.251   7.639  0.4380  1.3197 -1.1878
   34CHL1    C8 2456   6.840   5.030   7.613 -0.3762 -0.3315  0.5914
   34CHL1    H8 2457   6.917   4.969   7.562 -0.3127  0.2205  0.0054
   34CHL1   C14 2458   6.842   5.001   7.761 -0.2129 -1.5426  0.9500
   34CHL1   H14 2459   6.773   5.074   7.806  2.6422  1.0491  1.4555
   34CHL1   C15 2460   6.979   5.034   7.828 -0.0110  1.1784 -0.3888
   34CHL1  H15A 2461   7.065   4.992   7.772  0.7073 -0.6460  1.9018
   34CHL1  H15B 2462   7.002   5.140   7.850  1.2570  0.8538 -0.0860
   34CHL1   C16 2463   6.961   4.962   7.971 -0.1087  0.1264  0.9622
   34CHL1  H16A 2464   7.035   4.879   7.978  0.2895  0.2977 -0.7907
   34CHL1  H16B 2465   6.971   5.034   8.054 -0.5159  0.6882  0.5292
   34CHL1   C17 2466   6.821   4.895   7.968 -0.2045 -0.5832 -0.1909
   34CHL1   H17 2467   6.751   4.976   7.999  1.4872  2.1744 -2.8737
   34CHL1   C13 2468   6.796   4.867   7.817  0.3559  0.1900 -0.3966
   34CHL1   C18 2469   6.890   4.755   7.763 -0.5480  0.5252  0.0742
   34CHL1  H18A 2470   6.876   4.744   7.653  2.4067  0.3141 -0.3584
   34CHL1  H18B 2471   6.998   4.769   7.786 -0.2601  1.5444 -1.6827
   34CHL1  H18C 2472   6.856   4.671   7.827 -0.6423 -0.2244 -0.9473
   34CHL1   C12 2473   6.652   4.843   7.765 -0.1051  0.3383  0.1783
   34CHL1  H12A 2474   6.612   4.742   7.787 -2.5410  0.8425 -1.5515
   34CHL1  H12B 2475   6.602   4.928   7.817 -1.2190 -1.2000  1.7385
   34CHL1   C11 2476   6.643   4.857   7.611  0.0507  0.4757  0.4364
   34CHL1  H11A 2477   6.706   4.774   7.573 -0.7537  0.9964 -2.2906
   34CHL1  H11B 2478   6.541   4.829   7.576  0.2970  0.7779 -0.5565
   34CHL1    C9 2479   6.706   4.990   7.553  0.5064 -0.8651  0.0776
   34CHL1    H9 2480   6.639   5.072   7.588 -0.9473 -2.0919  0.3051
   34CHL1   C10 2481   6.703   5.003   7.402 -0.3114  0.2260  0.4087
   34CHL1   C19 2482   6.776   4.884   7.331 -0.0319  0.6211  0.1553
   34CHL1  H19A 2483   6.778   4.883   7.220  1.0904  0.1699  0.1577
   34CHL1  H19B 2484   6.877   4.883   7.378 -0.7294  0.9388  1.7372
   34CHL1  H19C 2485   6.719   4.791   7.353 -0.8884  0.9349 -0.6971
   34CHL1    C1 2486   6.551   4.997   7.360 -0.0470 -0.4104 -0.6765
   34CHL1   H1A 2487   6.517   4.893   7.383 -0.1039 -0.0628  0.9919
   34CHL1   H1B 2488   6.490   5.063   7.425  0.3138 -1.4203  0.7569
   34CHL1    C2 2489   6.521   5.041   7.216  0.6078 -0.2320 -0.1791
   34CHL1   H2A 2490   6.412   5.039   7.195  0.7952 -3.1807 -1.3602
   34CHL1   H2B 2491   6.560   4.966   7.143 -0.2110  3.1709 -4.5798
   34CHL1   C20 2492   6.820   4.784   8.067 -0.1744 -0.2828  0.7419
   34CHL1   H20 2493   6.901   4.715   8.037  0.4156  0.0605  1.4981
   34CHL1   C21 2494   6.697   4.701   8.045 -0.2989 -0.0401  0.1007
   34CHL1  H21A 2495   6.675   4.639   8.134 -0.4795  2.0979  1.6212
   34CHL1  H21B 2496   6.714   4.635   7.957  1.1564 -0.4768  0.6927
   34CHL1  H21C 2497   6.612   4.773   8.041  0.7922  1.2646 -0.5654
   34CHL1   C22 2498   6.843   4.828   8.212 -0.4334 -0.7235 -0.4182
   34CHL1  H22A 2499   6.821   4.748   8.286 -2.0005  3.1993  3.8322
   34CHL1  H22B 2500   6.950   4.857   8.221 -0.2028 -1.4863 -0.6205
   34CHL1   C23 2501   6.759   4.945   8.279  0.5119 -0.2993  0.7563
   34CHL1  H23A 2502   6.745   5.027   8.206  1.2905 -0.6221  0.2329
   34CHL1  H23B 2503   6.663   4.902   8.317 -0.1006  2.0320  2.0188
   34CHL1   C24 2504   6.824   4.995   8.398 -0.1819  0.4195 -1.0310
   34CHL1  H24A 2505   6.865   4.906   8.450 -1.5451  0.4285  0.1422
   34CHL1  H24B 2506   6.912   5.058   8.373  0.5747 -1.2704 -2.9034
   34CHL1   C25 2507   6.737   5.088   8.487 -1.0535  0.2357 -1.0684
   34CHL1   H25 2508   6.648   5.025   8.509 -1.1138  0.2014 -1.4108
   34CHL1   C26 2509   6.810   5.114   8.621 -0.3477  0.4578 -0.0920
   34CHL1  H26A 2510   6.744   5.160   8.698 -0.9856 -2.3841  1.1788
   34CHL1  H26B 2511   6.853   5.018   8.658  0.9078  0.1841 -2.0959
   34CHL1  H26C 2512   6.888   5.191   8.606  1.0214 -1.0932 -1.3054
   34CHL1   C27 2513   6.712   5.213   8.417  0.7849 -0.5730  1.2627
   34CHL1  H27A 2514   6.802   5.275   8.396  1.0557 -0.6262  2.2283
   34CHL1  H27B 2515   6.661   5.181   8.324  2.0529  0.9020  0.0028
   34CHL1  H27C 2516   6.634   5.271   8.472 -0.3959 -1.0931  0.1827
   35CHL1    C3 2517   1.321   6.219   7.329  0.7007 -0.1147 -0.0420
   35CHL1    H3 2518   1.211   6.202   7.335  0.6581 -0.9763 -2.1935
   35CHL1    O3 2519   1.335   6.259   7.198  0.0218  0.8538  0.2984
   35CHL1   H3' 2520   1.409   6.320   7.190 -0.1598  1.1808  1.0310
   35CHL1    C4 2521   1.387   6.336   7.414  0.3409 -0.2367 -0.5924
   35CHL1   H4A 2522   1.488   6.360   7.377  0.3549  0.1758 -0.2917
   35CHL1   H4B 2523   1.324   6.427   7.402  0.4315  0.1915  1.8012
   35CHL1    C5 2524   1.391   6.291   7.560 -0.2841  0.1747 -0.0474
   35CHL1    C6 2525   1.339   6.365   7.653  0.2729  0.4424  0.2785
   35CHL1    H6 2526   1.292   6.460   7.623 -0.5687 -0.2240 -0.5818
   35CHL1    C7 2527   1.351   6.344   7.801 -0.4208  0.1696 -0.2126
   35CHL1   H7A 2528   1.387   6.438   7.849 -3.2074  0.7061  1.0289
   35CHL1   H7B 2529   1.250   6.327   7.846 -1.3109  0.6423 -1.9422
   35CHL1    C8 2530   1.450   6.231   7.840  0.6471 -0.4086  0.0697
   35CHL1    H8 2531   1.557   6.260   7.834  0.5353 -0.2321 -1.6295
   35CHL1   C14 2532   1.417   6.189   7.977 -0.4370 -0.4304  0.2347
   35CHL1   H14 2533   1.313   6.150   7.969 -0.4298 -0.2193 -1.0653
   35CHL1   C15 2534   1.431   6.297   8.080  0.8467 -0.3182 -1.1103
   35CHL1  H15A 2535   1.531   6.344   8.077  1.0494 -0.1777  2.5992
   35CHL1  H15B 2536   1.358   6.380   8.077  0.6616 -0.4453 -0.4104
   35CHL1   C16 2537   1.421   6.221   8.216 -0.4686  0.3237  0.7458
   35CHL1  H16A 2538   1.500   6.261   8.283  1.7863  2.4912 -2.8432
   35CHL1  H16B 2539   1.321   6.244   8.259 -1.0355 -0.3439 -0.1928
   35CHL1   C17 2540   1.439   6.071   8.170  0.7167 -0.1194 -0.7018
   35CHL1   H17 2541   1.336   6.031   8.160 -0.1240  0.4064  3.6612
   35CHL1   C13 2542   1.496   6.069   8.027  0.2459  0.0539 -0.0743
   35CHL1   C18 2543   1.648   6.103   8.042 -0.5395  0.3782  0.5272
   35CHL1  H18A 2544   1.698   6.148   7.953  1.0033  0.0110  1.1850
   35CHL1  H18B 2545   1.678   6.182   8.114  2.0639 -0.3234  0.3216
   35CHL1  H18C 2546   1.703   6.010   8.067  0.0187 -0.4660 -3.2259
   35CHL1   C12 2547   1.479   5.941   7.939 -0.5588  0.2300  0.4357
   35CHL1  H12A 2548   1.543   5.857   7.971 -1.3024 -1.3252 -1.8736
   35CHL1  H12B 2549   1.372   5.914   7.948 -0.2641 -1.2172 -0.1066
   35CHL1   C11 2550   1.493   5.980   7.787  0.1125 -0.2801 -0.5456
   35CHL1  H11A 2551   1.600   5.986   7.758  0.3307 -2.2095 -0.3122
   35CHL1  H11B 2552   1.456   5.891   7.731  1.5388 -0.5809 -1.0384
   35CHL1    C9 2553   1.427   6.116   7.741 -0.7677 -0.1033 -0.5559
   35CHL1    H9 2554   1.318   6.097   7.748 -1.0702  0.8801 -2.1710
   35CHL1   C10 2555   1.454   6.155   7.597 -0.4358  0.4113 -0.5932
   35CHL1   C19 2556   1.609   6.161   7.569 -0.8823 -0.3509 -0.7874
   35CHL1  H19A 2557   1.652   6.226   7.648  1.0358  0.2304 -2.2392
   35CHL1  H19B 2558   1.663   6.064   7.574  1.3965  0.8893 -0.3102
   35CHL1  H19C 2559   1.634   6.213   7.474  0.4070  1.4613  0.4735
   35CHL1    C1 2560   1.393   6.042   7.506  0.3958  0.1703  0.7750
   35CHL1   H1A 2561   1.457   5.952   7.511  1.4352  0.8444 -0.1469
   35CHL1   H1B 2562   1.292   6.015   7.546  0.1021 -0.4354 -0.3513
   35CHL1    C2 2563   1.389   6.084   7.357 -0.0775  0.6767  0.2264
   35CHL1   H2A 2564   1.356   5.998   7.295  0.6733  1.6554 -1.6304
   35CHL1   H2B 2565   1.493   6.086   7.317  0.3460 -0.6087  1.2018
   35CHL1   C20 2566   1.500   5.987   8.278  0.4333  0.0634  0.4634
   35CHL1   H20 2567   1.603   6.026   8.293  0.7265  0.4030 -2.0272
   35CHL1   C21 2568   1.492   5.837   8.255 -0.0800  0.5072  0.7593
   35CHL1  H21A 2569   1.523   5.772   8.340 -2.1232 -2.2194 -0.4235
   35CHL1  H21B 2570   1.556   5.819   8.166  1.3086  0.6259  1.7056
   35CHL1  H21C 2571   1.390   5.802   8.230  0.1113 -1.4424  2.4603
   35CHL1   C22 2572   1.432   6.011   8.417  0.2759  0.1029 -0.1055
   35CHL1  H22A 2573   1.334   6.060   8.402  0.0616  0.8102  2.8260
   35CHL1  H22B 2574   1.396   5.914   8.458 -0.1360  0.1065 -0.4563
   35CHL1   C23 2575   1.525   6.064   8.530 -0.1297  0.1288  0.1222
   35CHL1  H23A 2576   1.625   6.015   8.525  0.1426  0.7349 -0.4360
   35CHL1  H23B 2577   1.547   6.169   8.503  1.1011 -0.4256 -1.1857
   35CHL1   C24 2578   1.473   6.061   8.678  0.2115 -0.7897  0.1412
   35CHL1  H24A 2579   1.542   6.113   8.748 -0.9323 -0.1686  0.8189
   35CHL1  H24B 2580   1.378   6.119   8.675  0.5018 -0.3065  0.1425
   35CHL1   C25 2581   1.437   5.920   8.735 -0.2985 -0.3150 -0.2790
   35CHL1   H25 2582   1.354   5.879   8.674  1.0379 -1.0524 -1.6881
   35CHL1   C26 2583   1.557   5.826   8.718  1.1777  0.0190 -0.6735
   35CHL1  H26A 2584   1.576   5.804   8.611 -3.6007 -1.7602 -1.3896
   35CHL1  H26B 2585   1.649   5.872   8.762  0.8497  0.2383 -0.2088
   35CHL1  H26C 2586   1.545   5.725   8.762  2.5213  0.2687  0.3732
   35CHL1   C27 2587   1.396   5.936   8.883 -0.1443 -0.0390 -0.2113
   35CHL1  H27A 2588   1.368   5.839   8.929 -0.7693 -1.0661 -2.6061
   35CHL1  H27B 2589   1.315   6.012   8.896  0.8240  0.5827  3.3854
   35CHL1  H27C 2590   1.486   5.959   8.945  1.1128 -3.1641 -0.7237
   36CHL1    C3 2591   2.372   2.987   6.991  0.4838 -0.0590  0.3786
   36CHL1    H3 2592   2.339   3.091   7.011 -1.3550 -0.6180  0.5019
   36CHL1    O3 2593   2.307   2.934   6.876 -0.3609  0.3156 -0.7264
   36CHL1   H3' 2594   2.320   2.841   6.893 -0.7097  0.3834 -0.0143
   36CHL1    C4 2595   2.518   2.979   6.952 -0.2239  0.3586 -0.5683
   36CHL1   H4A 2596   2.535   2.873   6.921 -2.2440 -0.1794  0.0411
   36CHL1   H4B 2597   2.532   3.045   6.864 -1.5045  0.2654 -0.8532
   36CHL1    C5 2598   2.620   3.002   7.067  1.3418  0.1187 -0.1028
   36CHL1    C6 2599   2.720   3.090   7.054  0.2273 -0.1435 -0.0777
   36CHL1    H6 2600   2.735   3.152   6.965 -0.3861 -0.9287 -0.7483
   36CHL1    C7 2601   2.805   3.135   7.171 -0.3912  0.5725  0.0595
   36CHL1   H7A 2602   2.914   3.142   7.148 -0.3834 -1.5927 -0.7934
   36CHL1   H7B 2603   2.762   3.234   7.198 -0.3886  0.3282  1.0028
   36CHL1    C8 2604   2.790   3.041   7.299  0.6610 -0.0583  0.7799
   36CHL1    H8 2605   2.835   2.946   7.261 -1.5500  0.1186 -2.6872
   36CHL1   C14 2606   2.854   3.103   7.419 -0.0960 -0.3270 -0.2081
   36CHL1   H14 2607   2.806   3.203   7.433  2.4891  0.8450  0.9416
   36CHL1   C15 2608   3.002   3.156   7.410  0.4368 -0.4973  0.4676
   36CHL1  H15A 2609   3.067   3.085   7.356 -1.7177 -0.9177 -1.7667
   36CHL1  H15B 2610   2.998   3.258   7.366  2.0093 -0.0281  1.3487
   36CHL1   C16 2611   3.037   3.186   7.555 -0.0508  0.2824 -0.0126
   36CHL1  H16A 2612   3.129   3.135   7.590 -1.6510 -1.4588  1.9112
   36CHL1  H16B 2613   3.041   3.297   7.564  0.8492  0.2516 -0.0146
   36CHL1   C17 2614   2.919   3.127   7.648 -0.4168 -0.3327  0.1863
   36CHL1   H17 2615   2.851   3.212   7.670 -0.3702 -0.2719  0.0999
   36CHL1   C13 2616   2.840   3.033   7.553 -0.2187 -0.8475  0.1566
   36CHL1   C18 2617   2.908   2.895   7.537  0.1603 -0.3831  0.2058
   36CHL1  H18A 2618   2.857   2.834   7.460  1.3428  0.5091 -1.3295
   36CHL1  H18B 2619   3.015   2.900   7.506  0.0312  1.9228 -0.0683
   36CHL1  H18C 2620   2.901   2.841   7.634  1.6335 -1.1568 -0.0848
   36CHL1   C12 2621   2.696   3.016   7.582  0.3539 -0.3645 -0.7801
   36CHL1  H12A 2622   2.691   2.942   7.665 -2.0789 -0.4924 -0.9669
   36CHL1  H12B 2623   2.650   3.112   7.614  1.3953  0.0005 -0.3365
   36CHL1   C11 2624   2.626   2.954   7.461  0.1001 -0.2468 -0.1969
   36CHL1  H11A 2625   2.661   2.848   7.459  1.4084  0.1420 -2.9360
   36CHL1  H11B 2626   2.516   2.952   7.477  0.0875  1.6917  0.1984
   36CHL1    C9 2627   2.647   3.015   7.321  0.1957 -0.9757  0.0605
   36CHL1    H9 2628   2.596   3.113   7.327 -0.6421 -1.2898 -1.5349
   36CHL1   C10 2629   2.584   2.939   7.204  0.2274 -0.3680  0.4241
   36CHL1   C19 2630   2.628   2.793   7.202  0.0653 -0.8245  0.0952
   36CHL1  H19A 2631   2.594   2.746   7.107  0.8848 -0.7346 -0.2540
   36CHL1  H19B 2632   2.736   2.769   7.204 -0.2904 -2.5232  0.6835
   36CHL1  H19C 2633   2.584   2.739   7.288 -0.4789 -1.1401 -0.3714
   36CHL1    C1 2634   2.428   2.952   7.227  0.4329  0.5271 -0.2930
   36CHL1   H1A 2635   2.397   2.897   7.318 -0.0339 -0.6889 -1.1707
   36CHL1   H1B 2636   2.408   3.060   7.244 -1.6564 -0.0019  0.9162
   36CHL1    C2 2637   2.348   2.899   7.114 -0.0375  1.2356  0.4225
   36CHL1   H2A 2638   2.244   2.901   7.151  0.1927 -0.9242  1.3177
   36CHL1   H2B 2639   2.372   2.795   7.083 -0.6909  1.2484 -0.1192
   36CHL1   C20 2640   2.979   3.071   7.784 -0.1067 -0.1869  0.9529
   36CHL1   H20 2641   3.041   2.981   7.760  3.6443  2.3402  0.2953
   36CHL1   C21 2642   2.873   3.037   7.884 -0.4943 -0.1674 -0.5488
   36CHL1  H21A 2643   2.900   3.015   7.989 -0.3455  0.1271 -0.5246
   36CHL1  H21B 2644   2.806   2.955   7.850 -1.5582  0.2605  0.4535
   36CHL1  H21C 2645   2.793   3.114   7.892  0.1793  0.4159  0.8554
   36CHL1   C22 2646   3.068   3.181   7.848  0.2464 -0.4599 -0.8124
   36CHL1  H22A 2647   3.147   3.214   7.777  0.2461  1.0807 -0.1413
   36CHL1  H22B 2648   3.002   3.266   7.876  1.1032 -0.1086  0.2432
   36CHL1   C23 2649   3.149   3.141   7.972 -0.4445 -0.2264 -0.4032
   36CHL1  H23A 2650   3.092   3.096   8.055 -0.6696 -0.3712 -0.6352
   36CHL1  H23B 2651   3.209   3.055   7.933  0.9536  0.2831  0.5244
   36CHL1   C24 2652   3.246   3.254   8.014 -0.5969 -0.3626 -0.5402
   36CHL1  H24A 2653   3.280   3.285   7.913 -0.1342  0.0992 -0.2395
   36CHL1  H24B 2654   3.193   3.342   8.056  1.9516  0.6009  0.8139
   36CHL1   C25 2655   3.359   3.203   8.102 -1.1005  0.1362  0.5556
   36CHL1   H25 2656   3.376   3.094   8.088 -1.0177 -0.0536  2.0402
   36CHL1   C26 2657   3.491   3.273   8.071  0.3543  0.6328 -0.0708
   36CHL1  H26A 2658   3.478   3.375   8.114 -0.3236  0.4372  0.2155
   36CHL1  H26B 2659   3.579   3.235   8.126  1.3047  0.2571 -1.7793
   36CHL1  H26C 2660   3.514   3.270   7.962 -0.1356 -0.6361 -0.1564
   36CHL1   C27 2661   3.322   3.226   8.250 -0.0164  0.3706 -0.4320
   36CHL1  H27A 2662   3.408   3.190   8.310  0.8424 -3.0849 -3.3851
   36CHL1  H27B 2663   3.309   3.335   8.266 -1.8639  0.2151 -0.6823
   36CHL1  H27C 2664   3.230   3.169   8.275  1.1043 -1.4330 -0.1677
   37CHL1    C3 2665   5.602   6.377   7.052 -0.3711 -0.6737  0.1026
   37CHL1    H3 2666   5.615   6.485   7.074 -0.8969 -0.1978 -1.7213
   37CHL1    O3 2667   5.549   6.362   6.926 -0.2045 -0.4497 -0.0669
   37CHL1   H3' 2668   5.619   6.346   6.863  0.2253  1.8897 -0.2439
   37CHL1    C4 2669   5.745   6.317   7.055  0.0447  0.4750 -0.1068
   37CHL1   H4A 2670   5.740   6.210   7.023  3.3918 -0.3057  1.5032
   37CHL1   H4B 2671   5.808   6.369   6.981  0.1104 -0.7069 -0.9152
   37CHL1    C5 2672   5.804   6.311   7.195  0.5995  0.5740 -0.4279
   37CHL1    C6 2673   5.919   6.366   7.218 -0.0127  0.4054 -0.0424
   37CHL1    H6 2674   5.971   6.407   7.130 -1.7238  2.1360 -0.3373
   37CHL1    C7 2675   5.993   6.358   7.352 -0.6456 -0.1792  0.8065
   37CHL1   H7A 2676   6.100   6.332   7.337 -0.9346 -0.9052 -0.1021
   37CHL1   H7B 2677   5.987   6.460   7.397 -2.2143  0.1445 -0.0468
   37CHL1    C8 2678   5.922   6.260   7.452 -0.0989  0.2743  0.3836
   37CHL1    H8 2679   5.938   6.157   7.413 -2.8763  0.4395 -1.5527
   37CHL1   C14 2680   5.976   6.283   7.590  0.5938 -0.6536  0.9559
   37CHL1   H14 2681   5.950   6.389   7.610  2.0014 -0.2502  0.6999
   37CHL1   C15 2682   6.127   6.279   7.612  0.3875 -0.4682 -0.3491
   37CHL1  H15A 2683   6.169   6.196   7.550  0.2218 -0.5861 -0.3056
   37CHL1  H15B 2684   6.177   6.375   7.588  0.5426 -0.2145  0.9238
   37CHL1   C16 2685   6.147   6.242   7.763 -0.3368 -0.1862  0.4587
   37CHL1  H16A 2686   6.199   6.146   7.778 -2.3165 -1.2665  0.7674
   37CHL1  H16B 2687   6.196   6.321   7.824 -3.0169  0.5342  1.8453
   37CHL1   C17 2688   6.005   6.234   7.820  0.4148 -0.2657 -0.2559
   37CHL1   H17 2689   5.984   6.342   7.840  0.3009  0.1953 -2.6362
   37CHL1   C13 2690   5.914   6.195   7.697 -0.1314  0.3837  0.0223
   37CHL1   C18 2691   5.937   6.045   7.674  0.4321  0.1213  0.0257
   37CHL1  H18A 2692   5.869   6.005   7.595 -0.7207 -1.6273  1.7962
   37CHL1  H18B 2693   6.045   6.026   7.656  0.8036  3.1919 -1.6812
   37CHL1  H18C 2694   5.896   5.988   7.761 -0.3880  1.2826  0.4249
   37CHL1   C12 2695   5.768   6.230   7.710 -0.2055 -0.6032  0.3873
   37CHL1  H12A 2696   5.720   6.155   7.776  1.0237 -0.7811  1.0892
   37CHL1  H12B 2697   5.765   6.336   7.742  1.2977  0.6599 -3.1243
   37CHL1   C11 2698   5.693   6.225   7.575 -0.2414  0.0989  0.8485
   37CHL1  H11A 2699   5.657   6.121   7.557 -0.0841  0.3380 -1.0162
   37CHL1  H11B 2700   5.608   6.292   7.600 -1.3999  0.0911 -2.5403
   37CHL1    C9 2701   5.770   6.286   7.452  0.3479  0.0255 -0.1293
   37CHL1    H9 2702   5.755   6.396   7.453  0.4832  0.0540  1.4654
   37CHL1   C10 2703   5.708   6.252   7.311 -0.7009  0.1692 -0.5045
   37CHL1   C19 2704   5.708   6.095   7.290 -0.1228 -0.2284  0.0097
   37CHL1  H19A 2705   5.812   6.057   7.288 -0.0298  0.0385 -0.3056
   37CHL1  H19B 2706   5.653   6.049   7.375  1.4952 -1.7295  0.3042
   37CHL1  H19C 2707   5.667   6.068   7.190  3.1311  0.2527 -1.5742
   37CHL1    C1 2708   5.564   6.312   7.294  0.1231 -0.1473  0.2902
   37CHL1   H1A 2709   5.493   6.255   7.358 -2.1127  1.7562 -0.3721
   37CHL1   H1B 2710   5.561   6.418   7.329  0.6587 -0.2077  0.5284
   37CHL1    C2 2711   5.516   6.309   7.148  0.0144 -0.4654 -0.5113
   37CHL1   H2A 2712   5.416   6.358   7.150  1.1260  2.1059 -2.1309
   37CHL1   H2B 2713   5.489   6.207   7.114  0.9482 -1.1085  0.6010
   37CHL1   C20 2714   5.986   6.163   7.953  0.0227  0.3337 -0.3552
   37CHL1   H20 2715   5.971   6.054   7.937  1.7782 -0.0436  0.2993
   37CHL1   C21 2716   5.864   6.236   8.020  0.4884 -0.0785 -0.1870
   37CHL1  H21A 2717   5.768   6.233   7.965 -1.3410  0.2787  2.8025
   37CHL1  H21B 2718   5.888   6.344   8.026 -0.3144  0.0146  2.7094
   37CHL1  H21C 2719   5.846   6.185   8.117 -2.3909  0.3978 -0.4018
   37CHL1   C22 2720   6.114   6.169   8.040 -0.6561  0.1602  0.6183
   37CHL1  H22A 2721   6.193   6.111   7.989  1.4568  1.7506  1.9200
   37CHL1  H22B 2722   6.145   6.275   8.045 -1.2228  0.2906  1.7634
   37CHL1   C23 2723   6.101   6.104   8.171  0.4691  0.0289 -0.1197
   37CHL1  H23A 2724   6.011   6.149   8.220 -0.4280 -0.5650 -1.1767
   37CHL1  H23B 2725   6.074   5.997   8.157 -0.0193  0.3071 -1.3743
   37CHL1   C24 2726   6.210   6.130   8.274 -0.6825 -0.4422  0.0468
   37CHL1  H24A 2727   6.315   6.126   8.236 -0.2007  0.3751  1.2295
   37CHL1  H24B 2728   6.198   6.237   8.299 -3.0169 -0.3830 -1.0949
   37CHL1   C25 2729   6.193   6.032   8.393 -0.2414  0.2519 -0.3905
   37CHL1   H25 2730   6.258   6.063   8.478 -0.3570 -1.0435  0.1863
   37CHL1   C26 2731   6.054   6.046   8.465  1.2282  0.5245 -1.0328
   37CHL1  H26A 2732   5.988   5.978   8.408  0.3373  0.2781  0.2699
   37CHL1  H26B 2733   6.066   6.014   8.570 -1.7995 -0.7728 -0.9790
   37CHL1  H26C 2734   6.011   6.149   8.465 -1.8643 -0.6416  0.4783
   37CHL1   C27 2735   6.218   5.881   8.363  1.3093 -0.4073 -0.5101
   37CHL1  H27A 2736   6.133   5.837   8.308 -0.6233 -0.3010  2.2184
   37CHL1  H27B 2737   6.313   5.871   8.305  0.8209 -1.1810 -1.2032
   37CHL1  H27C 2738   6.224   5.827   8.460  0.3070  2.0160  0.9799
   38CHL1    C3 2739   3.493   2.705   6.716  0.0353  0.2341  0.2287
   38CHL1    H3 2740   3.441   2.615   6.755 -2.2980  0.6824 -1.6181
   38CHL1    O3 2741   3.508   2.693   6.579  0.0494  0.0205  0.1248
   38CHL1   H3' 2742   3.562   2.771   6.565  0.2039  0.6036  3.3342
   38CHL1    C4 2743   3.432   2.838   6.753 -0.1429 -0.5270  0.2538
   38CHL1   H4A 2744   3.485   2.921   6.701 -0.6973  0.5263  1.3134
   38CHL1   H4B 2745   3.330   2.836   6.709  0.1812  2.7325 -0.9830
   38CHL1    C5 2746   3.433   2.874   6.903  0.4932  0.4403 -0.2831
   38CHL1    C6 2747   3.324   2.904   6.972 -0.2759  0.7072  0.9989
   38CHL1    H6 2748   3.231   2.915   6.915 -0.5010  2.8529  1.6983
   38CHL1    C7 2749   3.318   2.941   7.118 -0.1298  0.0855  0.4666
   38CHL1   H7A 2750   3.253   3.030   7.133 -0.1157 -0.3779  4.0976
   38CHL1   H7B 2751   3.277   2.859   7.180  1.8688 -1.2229  0.1706
   38CHL1    C8 2752   3.458   2.959   7.182  0.7565  0.7069 -0.5257
   38CHL1    H8 2753   3.474   3.068   7.168 -1.3608  1.3898  1.6213
   38CHL1   C14 2754   3.451   2.938   7.330 -1.1113  0.4568 -0.4110
   38CHL1   H14 2755   3.443   2.828   7.349 -1.4445  0.9280  2.8283
   38CHL1   C15 2756   3.328   2.996   7.403 -0.1019 -0.4627 -0.3343
   38CHL1  H15A 2757   3.313   3.099   7.365  0.2925 -0.7684 -1.3520
   38CHL1  H15B 2758   3.233   2.940   7.393 -0.0034 -1.4818  3.1586
   38CHL1   C16 2759   3.380   3.008   7.552  0.1007 -0.9323 -0.3372
   38CHL1  H16A 2760   3.385   3.114   7.584  0.8491 -0.8187 -0.8145
   38CHL1  H16B 2761   3.315   2.949   7.621 -0.2175 -0.5328 -0.2913
   38CHL1   C17 2762   3.524   2.955   7.552 -0.1336 -0.1051  0.8232
   38CHL1   H17 2763   3.525   2.846   7.572 -1.3939 -0.4266 -0.7283
   38CHL1   C13 2764   3.576   2.971   7.407  0.6114  0.2015 -0.4927
   38CHL1   C18 2765   3.611   3.127   7.390  0.5908 -0.4140 -0.1368
   38CHL1  H18A 2766   3.612   3.159   7.284  2.5958 -2.4471 -0.7870
   38CHL1  H18B 2767   3.541   3.193   7.446 -1.8351 -2.2781 -0.8043
   38CHL1  H18C 2768   3.711   3.149   7.432  0.1762  0.3160  0.5060
   38CHL1   C12 2769   3.695   2.882   7.351 -0.2919 -0.0472  0.0078
   38CHL1  H12A 2770   3.791   2.928   7.384 -1.1972  0.8179  1.5329
   38CHL1  H12B 2771   3.689   2.778   7.387 -1.7960 -0.2782 -0.7961
   38CHL1   C11 2772   3.699   2.879   7.191  0.4612  0.3826 -1.0816
   38CHL1  H11A 2773   3.735   2.979   7.160 -1.7853  0.7068 -2.9508
   38CHL1  H11B 2774   3.763   2.794   7.159 -2.0623 -2.2635  0.3392
   38CHL1    C9 2775   3.564   2.866   7.123 -0.6522 -0.5614  1.1224
   38CHL1    H9 2776   3.539   2.764   7.160  2.2876 -1.3266  1.1882
   38CHL1   C10 2777   3.570   2.856   6.971  0.1574  0.1827 -0.1457
   38CHL1   C19 2778   3.657   2.974   6.913 -0.5142  0.1112  0.1757
   38CHL1  H19A 2779   3.759   2.961   6.956  0.0033 -1.0237 -1.2991
   38CHL1  H19B 2780   3.674   2.953   6.806 -0.5591  0.7969  0.0358
   38CHL1  H19C 2781   3.629   3.081   6.916  2.0226  0.9436 -2.0716
   38CHL1    C1 2782   3.629   2.719   6.923 -0.0236  0.4055 -0.8274
   38CHL1   H1A 2783   3.720   2.699   6.983 -1.6958 -1.4120  1.2820
   38CHL1   H1B 2784   3.559   2.639   6.957 -0.8268  1.0246 -0.9887
   38CHL1    C2 2785   3.631   2.698   6.776  0.3915 -0.0197 -0.1981
   38CHL1   H2A 2786   3.681   2.602   6.753  0.3995  0.0824 -0.6093
   38CHL1   H2B 2787   3.693   2.774   6.723 -1.6782 -0.4726 -3.5914
   38CHL1   C20 2788   3.611   3.023   7.650 -0.0502  0.4384 -0.1961
   38CHL1   H20 2789   3.625   3.132   7.639  1.6273  0.2273 -0.5406
   38CHL1   C21 2790   3.771   2.977   7.645 -0.4420  0.7246  0.3502
   38CHL1  H21A 2791   3.820   3.010   7.739 -0.4031 -0.6243  0.8122
   38CHL1  H21B 2792   3.819   3.038   7.565  1.4512  2.3618  2.5767
   38CHL1  H21C 2793   3.783   2.867   7.635  1.4364  1.0167 -1.2204
   38CHL1   C22 2794   3.553   3.017   7.793 -0.0144 -0.5642  0.3600
   38CHL1  H22A 2795   3.610   3.092   7.852  0.6551 -1.2487  0.6029
   38CHL1  H22B 2796   3.448   3.052   7.793 -0.5922 -2.2259 -0.0368
   38CHL1   C23 2797   3.570   2.888   7.865 -0.1302 -0.1282 -0.3642
   38CHL1  H23A 2798   3.525   2.803   7.811 -0.9363 -2.3231  3.4317
   38CHL1  H23B 2799   3.677   2.859   7.868 -0.0347  0.2418  0.0294
   38CHL1   C24 2800   3.514   2.877   8.010  0.2229 -0.5783 -0.6612
   38CHL1  H24A 2801   3.577   2.949   8.066  1.4059  0.2675 -2.9457
   38CHL1  H24B 2802   3.409   2.913   8.009  1.2913  2.9473  0.4364
   38CHL1   C25 2803   3.502   2.736   8.075  0.2376  0.4772 -0.0837
   38CHL1   H25 2804   3.448   2.667   8.007 -0.7124  0.0609  1.0532
   38CHL1   C26 2805   3.647   2.684   8.092  0.1400 -0.1477 -0.1124
   38CHL1  H26A 2806   3.694   2.668   7.992 -1.3046  1.3476 -1.0730
   38CHL1  H26B 2807   3.713   2.749   8.153 -1.3061  3.2547 -1.9440
   38CHL1  H26C 2808   3.647   2.579   8.130 -0.3294 -1.0731 -2.5292
   38CHL1   C27 2809   3.429   2.752   8.217  0.1034 -0.0100 -0.4329
   38CHL1  H27A 2810   3.439   2.656   8.272 -0.4878  0.1685 -0.0119
   38CHL1  H27B 2811   3.484   2.821   8.285  1.0717 -3.4130  2.5644
   38CHL1  H27C 2812   3.326   2.791   8.201  0.2360  2.0598  2.8193
   39CHL1    C3 2813   4.129   1.442   6.974 -0.6499  0.0363 -0.6210
   39CHL1    H3 2814   4.086   1.544   6.972 -0.1365  0.2821  0.4955
   39CHL1    O3 2815   4.111   1.403   6.835  0.1561  0.0944 -0.3817
   39CHL1   H3' 2816   4.162   1.458   6.776  0.3197 -1.1218 -1.4124
   39CHL1    C4 2817   4.280   1.471   6.996 -0.2648  1.1272  0.5253
   39CHL1   H4A 2818   4.342   1.384   6.964 -1.0973  1.0334 -0.9405
   39CHL1   H4B 2819   4.299   1.552   6.923 -1.3040  1.1142  0.2208
   39CHL1    C5 2820   4.307   1.510   7.135 -0.3618  0.7381 -0.5100
   39CHL1    C6 2821   4.379   1.624   7.166  1.2613  0.2180  0.1229
   39CHL1    H6 2822   4.406   1.689   7.082 -0.6197  2.1873  0.9290
   39CHL1    C7 2823   4.424   1.663   7.307  0.0583  0.9490  0.1378
   39CHL1   H7A 2824   4.535   1.673   7.296 -0.0449  2.4907  0.3048
   39CHL1   H7B 2825   4.379   1.756   7.348 -0.6706 -0.1663  1.9668
   39CHL1    C8 2826   4.390   1.556   7.415 -0.1932 -0.0048 -0.0301
   39CHL1    H8 2827   4.462   1.476   7.390  0.2472  0.2019  0.5531
   39CHL1   C14 2828   4.394   1.605   7.560 -0.0649  0.0080 -0.3559
   39CHL1   H14 2829   4.298   1.660   7.571 -0.1548 -0.2711  0.3823
   39CHL1   C15 2830   4.502   1.709   7.604 -0.9283  0.1689  0.9852
   39CHL1  H15A 2831   4.597   1.660   7.575 -0.4065  1.7158 -0.0365
   39CHL1  H15B 2832   4.490   1.809   7.558  0.7317  0.1234  0.3742
   39CHL1   C16 2833   4.489   1.712   7.755  1.0263  0.0439  0.1551
   39CHL1  H16A 2834   4.585   1.681   7.803  0.3239 -1.0527  0.8986
   39CHL1  H16B 2835   4.461   1.811   7.798  0.6536 -0.4971  1.1684
   39CHL1   C17 2836   4.385   1.596   7.793 -0.4038 -0.6573 -0.5927
   39CHL1   H17 2837   4.288   1.652   7.793  0.5777  1.1896  1.1645
   39CHL1   C13 2838   4.384   1.501   7.670  0.0184 -0.1222  0.2588
   39CHL1   C18 2839   4.494   1.392   7.670 -0.3015 -0.2755  0.3625
   39CHL1  H18A 2840   4.502   1.330   7.762  2.4910 -0.1542  0.3005
   39CHL1  H18B 2841   4.487   1.328   7.580 -1.7819  2.0277 -1.2620
   39CHL1  H18C 2842   4.589   1.448   7.654 -0.0862 -0.1430  1.9128
   39CHL1   C12 2843   4.249   1.434   7.653 -0.2037 -0.1549 -0.2010
   39CHL1  H12A 2844   4.235   1.353   7.728 -0.1878  1.6867  1.9299
   39CHL1  H12B 2845   4.179   1.517   7.677  1.6769  2.2334 -2.3886
   39CHL1   C11 2846   4.237   1.379   7.509 -0.2258 -0.0706 -0.2803
   39CHL1  H11A 2847   4.312   1.300   7.488  0.9010  1.6541 -3.5249
   39CHL1  H11B 2848   4.135   1.338   7.490  0.8322 -3.0967  0.0569
   39CHL1    C9 2849   4.258   1.476   7.391 -0.6882 -0.4159 -0.2486
   39CHL1    H9 2850   4.170   1.544   7.388 -1.9798 -2.0532 -1.4260
   39CHL1   C10 2851   4.250   1.417   7.250 -0.6731 -0.4509  0.7937
   39CHL1   C19 2852   4.327   1.279   7.236  0.3417  0.3164  0.2962
   39CHL1  H19A 2853   4.435   1.287   7.262  0.4504 -0.3862  0.0748
   39CHL1  H19B 2854   4.281   1.207   7.307 -4.1981  0.1522 -2.4555
   39CHL1  H19C 2855   4.301   1.234   7.138 -0.3596 -1.0974  1.1050
   39CHL1    C1 2856   4.098   1.392   7.225 -0.1611 -0.0014 -1.0412
   39CHL1   H1A 2857   4.062   1.313   7.295 -0.3310 -0.8987 -2.1021
   39CHL1   H1B 2858   4.039   1.483   7.246  0.4859  0.2163 -0.1279
   39CHL1    C2 2859   4.070   1.345   7.074  0.1932  0.0078 -0.1845
   39CHL1   H2A 2860   3.961   1.338   7.058 -0.2880  0.7335  2.3102
   39CHL1   H2B 2861   4.117   1.247   7.051  1.6395  0.3533  1.1379
   39CHL1   C20 2862   4.424   1.545   7.937  0.6734 -0.5383  0.3738
   39CHL1   H20 2863   4.520   1.489   7.939  1.0292  0.0838  1.0325
   39CHL1   C21 2864   4.315   1.445   7.983  0.5866  0.1016  0.4435
   39CHL1  H21A 2865   4.321   1.411   8.088  2.7512  1.2543  0.7423
   39CHL1  H21B 2866   4.311   1.352   7.921  0.8469  1.0450 -1.0316
   39CHL1  H21C 2867   4.218   1.499   7.983 -0.2557 -1.3486  1.3475
   39CHL1   C22 2868   4.430   1.658   8.038 -0.7711 -0.1210 -0.3043
   39CHL1  H22A 2869   4.484   1.747   8.000 -1.2590  0.1076 -0.4666
   39CHL1  H22B 2870   4.328   1.695   8.062  0.1352  0.6963  2.7684
   39CHL1   C23 2871   4.493   1.622   8.172  0.0759 -0.4116  0.0581
   39CHL1  H23A 2872   4.429   1.538   8.207  0.0532 -1.0511 -1.4670
   39CHL1  H23B 2873   4.594   1.584   8.145  0.3664  1.5833 -1.9300
   39CHL1   C24 2874   4.503   1.731   8.283  0.6414 -0.7175  0.3398
   39CHL1  H24A 2875   4.557   1.687   8.370  0.3641  0.6284  1.2241
   39CHL1  H24B 2876   4.564   1.821   8.259 -0.6693  0.2893  0.6375
   39CHL1   C25 2877   4.373   1.776   8.338 -0.1494  0.1038 -0.4869
   39CHL1   H25 2878   4.310   1.803   8.251  2.0558  3.3964 -1.2346
   39CHL1   C26 2879   4.305   1.669   8.429  0.3423  0.0577  0.2228
   39CHL1  H26A 2880   4.385   1.620   8.489  0.1388 -0.2893  0.2096
   39CHL1  H26B 2881   4.219   1.702   8.491 -0.4057 -0.3922 -0.5568
   39CHL1  H26C 2882   4.282   1.579   8.369 -2.4865 -0.2251  1.5647
   39CHL1   C27 2883   4.402   1.904   8.420 -0.0147  0.1953 -0.3375
   39CHL1  H27A 2884   4.447   1.982   8.356 -1.4693 -1.1164 -3.1550
   39CHL1  H27B 2885   4.298   1.933   8.446 -0.0395  0.4524 -0.7280
   39CHL1  H27C 2886   4.466   1.887   8.510  3.4383  0.7992 -2.5018
   40CHL1    C3 2887   5.715   0.656   7.014 -0.0049 -0.4329  0.3364
   40CHL1    H3 2888   5.824   0.668   7.032  0.2078  2.0429 -2.0203
   40CHL1    O3 2889   5.699   0.646   6.876 -0.3220 -0.3198 -0.2229
   40CHL1   H3' 2890   5.607   0.622   6.859 -1.0927  1.7065  0.7240
   40CHL1    C4 2891   5.657   0.538   7.087  0.5761  1.1134  0.0207
   40CHL1   H4A 2892   5.554   0.531   7.047  1.0150  3.4517 -1.7804
   40CHL1   H4B 2893   5.712   0.446   7.061 -0.6824  0.5101 -0.5953
   40CHL1    C5 2894   5.648   0.544   7.234  0.0211 -0.8143  0.2601
   40CHL1    C6 2895   5.694   0.450   7.315 -0.8722 -0.3796  0.6827
   40CHL1    H6 2896   5.733   0.358   7.269 -0.4445 -0.1613  0.6029
   40CHL1    C7 2897   5.680   0.441   7.460 -0.2114 -0.3761  0.3642
   40CHL1   H7A 2898   5.628   0.346   7.484  1.1381 -0.9020  1.3368
   40CHL1   H7B 2899   5.785   0.423   7.494 -0.5139 -1.6370  0.6596
   40CHL1    C8 2900   5.609   0.565   7.521  0.1995  0.1240  0.0216
   40CHL1    H8 2901   5.501   0.543   7.522  0.3179 -0.7060 -1.6006
   40CHL1   C14 2902   5.657   0.592   7.664  0.5653  0.4903 -0.5108
   40CHL1   H14 2903   5.767   0.599   7.656  0.9876 -3.4893 -0.0609
   40CHL1   C15 2904   5.651   0.473   7.757  0.5274 -0.5481 -0.0884
   40CHL1  H15A 2905   5.558   0.411   7.748  0.0578 -0.0350  0.9790
   40CHL1  H15B 2906   5.740   0.408   7.749  0.8052 -0.2472  0.4952
   40CHL1   C16 2907   5.649   0.532   7.897 -0.0221 -0.2292 -0.3553
   40CHL1  H16A 2908   5.551   0.512   7.946 -0.9378  4.5481  0.2559
   40CHL1  H16B 2909   5.733   0.500   7.963  0.7279  1.3043 -0.5118
   40CHL1   C17 2910   5.657   0.689   7.875  0.5097 -0.1377  0.5633
   40CHL1   H17 2911   5.761   0.726   7.866  0.7138 -0.9690 -0.8043
   40CHL1   C13 2912   5.597   0.712   7.739  0.4739  0.5696  0.1447
   40CHL1   C18 2913   5.439   0.689   7.757 -0.7736 -0.2204  0.1403
   40CHL1  H18A 2914   5.417   0.624   7.844  0.2237  0.5712  0.9973
   40CHL1  H18B 2915   5.387   0.786   7.770  0.3286  0.2800  0.9383
   40CHL1  H18C 2916   5.395   0.643   7.665 -0.0862 -1.2081  0.2807
   40CHL1   C12 2917   5.632   0.837   7.657 -0.3413 -0.4722  0.3630
   40CHL1  H12A 2918   5.574   0.923   7.696 -0.1083 -0.6750  1.1708
   40CHL1  H12B 2919   5.742   0.853   7.662 -0.5900  1.0992  4.2203
   40CHL1   C11 2920   5.583   0.822   7.506 -0.1454 -0.2619 -0.2700
   40CHL1  H11A 2921   5.472   0.822   7.511 -0.1200 -2.1497  1.5663
   40CHL1  H11B 2922   5.612   0.917   7.457  1.3007  0.3183  1.5743
   40CHL1    C9 2923   5.636   0.692   7.437 -0.3244 -0.0869 -0.4107
   40CHL1    H9 2924   5.746   0.702   7.442 -0.3734 -0.1081  1.4112
   40CHL1   C10 2925   5.591   0.679   7.290 -0.3898 -0.1973  1.5282
   40CHL1   C19 2926   5.435   0.680   7.279  0.0523  0.1591  0.1644
   40CHL1  H19A 2927   5.383   0.775   7.301  0.7547  0.5767  0.0207
   40CHL1  H19B 2928   5.398   0.659   7.176  2.0102  1.8608 -0.9470
   40CHL1  H19C 2929   5.401   0.594   7.341  0.6837 -0.4275 -0.2812
   40CHL1    C1 2930   5.644   0.798   7.207 -0.2905  0.4556  0.2700
   40CHL1   H1A 2931   5.599   0.894   7.241 -0.3112  0.3267  0.6161
   40CHL1   H1B 2932   5.751   0.810   7.237  0.2349 -0.3755 -1.1781
   40CHL1    C2 2933   5.637   0.779   7.053  0.5166  1.3770  0.1053
   40CHL1   H2A 2934   5.674   0.870   7.001  2.3914 -0.4881 -2.0390
   40CHL1   H2B 2935   5.528   0.773   7.028  0.6988  1.4716 -0.7427
   40CHL1   C20 2936   5.589   0.769   7.996 -0.1728  0.9280  0.1398
   40CHL1   H20 2937   5.480   0.752   8.010  0.0835  1.1726  3.2174
   40CHL1   C21 2938   5.606   0.921   7.969 -0.4954 -0.7410  0.0229
   40CHL1  H21A 2939   5.532   0.954   7.892 -0.7478  0.5735  0.7922
   40CHL1  H21B 2940   5.706   0.953   7.933 -0.5894 -0.9355 -0.4155
   40CHL1  H21C 2941   5.580   0.976   8.062 -0.2244 -0.9749  0.2364
   40CHL1   C22 2942   5.640   0.734   8.142 -0.4770  0.5784  0.3447
   40CHL1  H22A 2943   5.614   0.627   8.157  2.6584 -0.6078 -1.8139
   40CHL1  H22B 2944   5.750   0.742   8.149 -0.4779  0.3014  0.7277
   40CHL1   C23 2945   5.568   0.813   8.258 -1.2446 -0.9865 -0.4605
   40CHL1  H23A 2946   5.564   0.923   8.244  1.9808 -0.7042  0.0220
   40CHL1  H23B 2947   5.460   0.785   8.256 -1.1013 -1.6681  0.5071
   40CHL1   C24 2948   5.623   0.789   8.406 -0.1260  0.1843 -0.2459
   40CHL1  H24A 2949   5.614   0.682   8.437 -0.5531  1.1651  3.5018
   40CHL1  H24B 2950   5.730   0.816   8.415  0.7456 -3.1280  0.6339
   40CHL1   C25 2951   5.557   0.886   8.508  0.2992  0.4823 -0.3042
   40CHL1   H25 2952   5.564   0.993   8.480 -1.3624  0.3810 -1.2352
   40CHL1   C26 2953   5.410   0.855   8.511  0.0576  0.5195 -0.1878
   40CHL1  H26A 2954   5.398   0.745   8.501  1.9089  0.2221  0.4581
   40CHL1  H26B 2955   5.364   0.887   8.607  0.5684 -0.6148  0.4582
   40CHL1  H26C 2956   5.347   0.907   8.436 -1.1424  0.7095  0.9268
   40CHL1   C27 2957   5.610   0.882   8.651 -0.4120 -0.1356  0.2604
   40CHL1  H27A 2958   5.589   0.782   8.695 -0.5776 -0.3781 -0.3642
   40CHL1  H27B 2959   5.715   0.918   8.653 -0.7780  1.0317 -0.5090
   40CHL1  H27C 2960   5.554   0.956   8.713  0.3957  0.5048  0.2414
   41CHL1    C3 2961   6.378   1.823   6.892  0.3936  0.0833  0.6142
   41CHL1    H3 2962   6.398   1.931   6.876 -0.3769  0.1688  0.1689
   41CHL1    O3 2963   6.310   1.768   6.771 -0.1641 -0.5004 -0.7422
   41CHL1   H3' 2964   6.371   1.700   6.742 -0.5091 -1.2912  0.3130
   41CHL1    C4 2965   6.513   1.753   6.923  0.0958 -0.4611  0.2945
   41CHL1   H4A 2966   6.492   1.644   6.912 -1.3604 -0.0599 -1.4993
   41CHL1   H4B 2967   6.586   1.759   6.840 -0.4146 -1.0696 -0.2166
   41CHL1    C5 2968   6.582   1.765   7.059  0.3649  0.0106  0.3948
   41CHL1    C6 2969   6.713   1.793   7.071 -0.2417  0.0750 -0.4332
   41CHL1    H6 2970   6.768   1.805   6.977 -0.3368 -0.0933 -0.5107
   41CHL1    C7 2971   6.779   1.811   7.205 -0.4992  0.2760  0.1646
   41CHL1   H7A 2972   6.874   1.755   7.202 -1.1848 -0.8782 -0.4912
   41CHL1   H7B 2973   6.808   1.919   7.209 -0.7178  0.4155 -1.2115
   41CHL1    C8 2974   6.696   1.770   7.324  0.5080  0.3353 -0.0373
   41CHL1    H8 2975   6.705   1.661   7.337  3.7240  0.4036 -0.9054
   41CHL1   C14 2976   6.757   1.837   7.446 -0.2507  0.0455 -0.4339
   41CHL1   H14 2977   6.745   1.945   7.424  2.5451  0.4454 -0.3380
   41CHL1   C15 2978   6.911   1.813   7.474  0.2538 -0.8954 -0.1499
   41CHL1  H15A 2979   6.933   1.704   7.464  3.9110 -0.1374 -2.5864
   41CHL1  H15B 2980   6.981   1.859   7.400 -1.1178  2.2627  0.3695
   41CHL1   C16 2981   6.921   1.859   7.612 -0.1385 -1.0926 -0.1822
   41CHL1  H16A 2982   6.982   1.794   7.677 -1.8362 -1.5918  1.0005
   41CHL1  H16B 2983   6.975   1.956   7.611  1.8269 -2.1525  0.3556
   41CHL1   C17 2984   6.778   1.871   7.673 -0.1019  0.1527  0.9208
   41CHL1   H17 2985   6.750   1.977   7.658  3.8115  1.3345  0.7840
   41CHL1   C13 2986   6.682   1.804   7.577 -0.3940 -0.2395 -0.6891
   41CHL1   C18 2987   6.680   1.648   7.603 -0.1257 -0.4269 -0.2496
   41CHL1  H18A 2988   6.782   1.604   7.596  0.1174  0.3083 -2.1006
   41CHL1  H18B 2989   6.637   1.624   7.702 -0.8114  1.0592 -0.1555
   41CHL1  H18C 2990   6.619   1.590   7.530  0.4673 -1.6895  0.2271
   41CHL1   C12 2991   6.539   1.857   7.561 -0.4943  0.2143 -0.1196
   41CHL1  H12A 2992   6.476   1.833   7.650  0.3286  0.2989  0.4940
   41CHL1  H12B 2993   6.554   1.964   7.536  1.4982 -0.2068 -0.8796
   41CHL1   C11 2994   6.463   1.808   7.436  0.1918 -0.3479 -0.2055
   41CHL1  H11A 2995   6.420   1.708   7.460 -1.5003  0.7476  1.7262
   41CHL1  H11B 2996   6.367   1.863   7.433  0.6655  0.4875 -0.3522
   41CHL1    C9 2997   6.549   1.822   7.307 -0.0342  0.2554  0.4715
   41CHL1    H9 2998   6.558   1.932   7.292 -2.2532  0.2860 -1.2250
   41CHL1   C10 2999   6.483   1.762   7.178 -0.0738  0.0668  0.1775
   41CHL1   C19 3000   6.453   1.615   7.209  0.2844 -0.2069  0.0804
   41CHL1  H19A 3001   6.545   1.555   7.221 -0.3462 -1.3692 -0.6440
   41CHL1  H19B 3002   6.383   1.604   7.295 -0.4214 -0.3937 -0.5035
   41CHL1  H19C 3003   6.396   1.565   7.127 -0.4575  1.9960 -0.8328
   41CHL1    C1 3004   6.357   1.849   7.136 -0.8372 -0.5270 -0.6511
   41CHL1   H1A 3005   6.290   1.835   7.223 -0.7252 -0.4256 -0.5478
   41CHL1   H1B 3006   6.385   1.956   7.120 -0.6055 -0.3536  0.7731
   41CHL1    C2 3007   6.283   1.804   7.005  0.4502  0.1023 -0.2409
   41CHL1   H2A 3008   6.189   1.861   6.994 -0.6963 -1.4609  0.9596
   41CHL1   H2B 3009   6.260   1.695   7.006  0.1501  0.1533  1.9933
   41CHL1   C20 3010   6.776   1.843   7.823 -0.0643 -0.1163  0.0415
   41CHL1   H20 3011   6.812   1.739   7.837 -0.0980 -0.3722 -1.6180
   41CHL1   C21 3012   6.636   1.844   7.881  0.3231 -0.1667 -0.0929
   41CHL1  H21A 3013   6.581   1.749   7.864 -0.2719 -0.1018  1.3711
   41CHL1  H21B 3014   6.577   1.925   7.832  2.1889  0.0611 -2.1093
   41CHL1  H21C 3015   6.629   1.857   7.991  1.9534 -0.8401  0.1173
   41CHL1   C22 3016   6.863   1.940   7.906 -0.0867  0.3301 -0.7304
   41CHL1  H22A 3017   6.955   1.945   7.845 -0.2389 -1.3065 -1.1431
   41CHL1  H22B 3018   6.811   2.038   7.907 -2.3256 -0.7945  0.3365
   41CHL1   C23 3019   6.906   1.881   8.048 -0.8472  0.0471 -0.1465
   41CHL1  H23A 3020   6.819   1.882   8.117  0.9299  0.8243  2.2044
   41CHL1  H23B 3021   6.927   1.776   8.019 -1.1257  0.7249 -3.1277
   41CHL1   C24 3022   7.010   1.974   8.112  0.6190  0.3067 -0.0214
   41CHL1  H24A 3023   7.105   1.989   8.056  1.4835  1.1603  1.5916
   41CHL1  H24B 3024   6.967   2.076   8.114  0.3728  0.1890  1.1037
   41CHL1   C25 3025   7.044   1.932   8.265  0.2165 -0.5518 -0.1804
   41CHL1   H25 3026   6.948   1.899   8.310  0.4217 -0.8825  0.0188
   41CHL1   C26 3027   7.128   1.807   8.264 -0.2177 -0.4388  0.1495
   41CHL1  H26A 3028   7.164   1.777   8.365 -0.7058 -3.8776 -0.5704
   41CHL1  H26B 3029   7.064   1.728   8.220 -3.0328  1.5298  0.4833
   41CHL1  H26C 3030   7.217   1.822   8.199 -0.3351 -1.5906 -0.3046
   41CHL1   C27 3031   7.078   2.060   8.345  0.6003  0.3423 -0.3162
   41CHL1  H27A 3032   7.107   2.042   8.450  1.6278 -1.0313 -0.8085
   41CHL1  H27B 3033   7.163   2.105   8.289 -0.4493 -0.2763 -2.5450
   41CHL1  H27C 3034   7.001   2.140   8.343 -0.4700 -0.6760 -1.0269
   42CHL1    C3 3035   0.883   2.866   7.150 -0.7302  0.7075 -0.8843
   42CHL1    H3 3036   0.787   2.824   7.186  0.8236  0.3221  3.5265
   42CHL1    O3 3037   0.894   2.856   7.009  0.4272 -0.0236 -0.1285
   42CHL1   H3' 3038   0.874   2.765   6.990 -0.4383  0.0198  0.5099
   42CHL1    C4 3039   0.899   3.016   7.193 -0.2159  0.4350  0.3402
   42CHL1   H4A 3040   0.974   3.057   7.122 -0.4027  0.5681  0.2197
   42CHL1   H4B 3041   0.808   3.066   7.154 -0.9922 -2.3999 -1.8664
   42CHL1    C5 3042   0.927   3.050   7.333  0.1950  0.2441  0.0830
   42CHL1    C6 3043   0.863   3.145   7.404  0.2914  0.0499 -1.1571
   42CHL1    H6 3044   0.785   3.203   7.352  0.6140  0.0004 -1.7002
   42CHL1    C7 3045   0.903   3.184   7.547 -0.6695  0.5438  0.7663
   42CHL1   H7A 3046   0.910   3.293   7.568  0.1442  0.5359  0.5459
   42CHL1   H7B 3047   0.829   3.144   7.620 -0.0600 -1.5281  0.3018
   42CHL1    C8 3048   1.043   3.117   7.595  0.5180  0.5135 -0.5224
   42CHL1    H8 3049   1.122   3.178   7.547 -0.2590  2.1285  0.1788
   42CHL1   C14 3050   1.055   3.119   7.747 -0.0109  0.2173  0.4513
   42CHL1   H14 3051   0.958   3.075   7.777 -1.0093  1.2321 -1.1735
   42CHL1   C15 3052   1.067   3.260   7.813 -0.3913 -0.4126 -0.0752
   42CHL1  H15A 3053   1.136   3.323   7.753 -2.6929  1.9055 -0.4954
   42CHL1  H15B 3054   0.964   3.303   7.815 -0.3580 -0.3620  0.9606
   42CHL1   C16 3055   1.123   3.223   7.953  0.5732  0.2196 -0.7468
   42CHL1  H16A 3056   1.222   3.270   7.967  1.0241 -0.8594 -0.1575
   42CHL1  H16B 3057   1.051   3.252   8.033  0.9926 -0.0255 -0.2768
   42CHL1   C17 3058   1.153   3.072   7.956  0.3445  1.0164 -0.0441
   42CHL1   H17 3059   1.073   3.010   8.002  2.3985  0.3162  2.9061
   42CHL1   C13 3060   1.160   3.025   7.807  0.3741 -0.7592  0.3771
   42CHL1   C18 3061   1.299   3.068   7.751 -0.5012  0.2501 -0.0349
   42CHL1  H18A 3062   1.302   3.054   7.641 -1.0172  0.2728 -0.0514
   42CHL1  H18B 3063   1.296   3.179   7.752 -0.7099  0.2864 -1.5302
   42CHL1  H18C 3064   1.386   3.026   7.807 -1.2314  0.6655  1.4547
   42CHL1   C12 3065   1.138   2.884   7.767 -0.7283  0.4295 -0.3375
   42CHL1  H12A 3066   1.223   2.818   7.792 -0.9142  0.4028  0.2350
   42CHL1  H12B 3067   1.045   2.840   7.811 -0.1269  0.4868  1.0479
   42CHL1   C11 3068   1.134   2.865   7.616 -0.0306  0.5487  0.1967
   42CHL1  H11A 3069   1.238   2.869   7.576 -0.0109  3.2843  0.3306
   42CHL1  H11B 3070   1.094   2.763   7.597 -2.1747  1.2927  0.4489
   42CHL1    C9 3071   1.037   2.970   7.551 -0.3263  0.4298 -0.0332
   42CHL1    H9 3072   0.943   2.924   7.586 -0.9483  1.7630  0.0798
   42CHL1   C10 3073   1.033   2.960   7.394 -0.5682  0.5397 -0.4127
   42CHL1   C19 3074   1.169   3.009   7.330  0.1747 -0.0560 -0.8581
   42CHL1  H19A 3075   1.191   3.115   7.358  1.8524 -0.4735 -0.4952
   42CHL1  H19B 3076   1.257   2.952   7.365  0.6552  0.6390 -0.9088
   42CHL1  H19C 3077   1.165   3.001   7.219  3.2366 -0.2182 -1.0375
   42CHL1    C1 3078   1.016   2.812   7.359  0.3868  0.6639 -0.0620
   42CHL1   H1A 3079   1.108   2.754   7.383  1.1511  1.6083 -0.6122
   42CHL1   H1B 3080   0.942   2.774   7.432  0.4553  0.6457 -0.0023
   42CHL1    C2 3081   0.989   2.776   7.216  0.0142  0.9834  0.1029
   42CHL1   H2A 3082   0.950   2.674   7.198 -0.7709  1.6200 -2.0004
   42CHL1   H2B 3083   1.081   2.801   7.159  0.8670  1.3763  1.5761
   42CHL1   C20 3084   1.277   3.050   8.045  0.7736  0.2457  0.1699
   42CHL1   H20 3085   1.359   3.110   8.001 -0.4633  1.0769 -1.1213
   42CHL1   C21 3086   1.326   2.903   8.044 -0.0713 -0.1652  0.3534
   42CHL1  H21A 3087   1.416   2.900   8.109  0.9252 -1.3629 -1.0136
   42CHL1  H21B 3088   1.357   2.869   7.942 -0.5244 -1.9254  0.7614
   42CHL1  H21C 3089   1.258   2.827   8.088  1.3998 -1.1021  1.0858
   42CHL1   C22 3090   1.257   3.106   8.189 -0.4695  0.2252 -0.7184
   42CHL1  H22A 3091   1.350   3.085   8.246 -0.8816  3.2086  1.2371
   42CHL1  H22B 3092   1.253   3.217   8.183 -0.0924  0.3800  1.3159
   42CHL1   C23 3093   1.147   3.045   8.267 -0.2171  0.0073  0.3514
   42CHL1  H23A 3094   1.058   3.055   8.200  1.6975  2.1741 -2.1087
   42CHL1  H23B 3095   1.175   2.938   8.277 -2.8468 -0.7368  0.5382
   42CHL1   C24 3096   1.120   3.110   8.407 -0.7528 -0.0811 -0.1123
   42CHL1  H24A 3097   1.211   3.094   8.468 -1.8423 -2.0613  1.0941
   42CHL1  H24B 3098   1.098   3.219   8.400  0.8671  0.3683  1.2744
   42CHL1   C25 3099   0.999   3.053   8.486  0.7797  0.4689  0.0886
   42CHL1   H25 3100   0.913   3.063   8.416  0.8626 -0.9951 -0.2600
   42CHL1   C26 3101   1.015   2.903   8.512 -0.5436 -0.4021  0.7138
   42CHL1  H26A 3102   0.927   2.856   8.560 -1.3264  0.3857  0.0745
   42CHL1  H26B 3103   1.022   2.839   8.422  0.4335 -1.8020  1.7195
   42CHL1  H26C 3104   1.112   2.877   8.561 -0.2150  0.2757  0.4333
   42CHL1   C27 3105   0.960   3.128   8.614 -0.4083 -0.6078  0.1103
   42CHL1  H27A 3106   1.046   3.130   8.685 -1.6779  0.2950  1.6743
   42CHL1  H27B 3107   0.876   3.087   8.674 -1.4885  0.8575 -0.3434
   42CHL1  H27C 3108   0.934   3.232   8.586 -0.3304 -0.8995 -1.1176
   43CHL1    C3 3109   2.968   0.770   6.939  0.4198 -0.3274 -0.0466
   43CHL1    H3 3110   2.933   0.677   6.990 -1.0980  1.4225  2.3103
   43CHL1    O3 3111   2.929   0.777   6.800  0.3667  0.1718 -0.7178
   43CHL1   H3' 3112   2.957   0.864   6.773  2.5054 -0.8689 -2.1497
   43CHL1    C4 3113   2.910   0.890   7.008 -0.9527  0.3857  0.3059
   43CHL1   H4A 3114   2.960   0.982   6.968  1.3776 -0.1676  1.7245
   43CHL1   H4B 3115   2.800   0.890   6.994 -0.6606 -0.8477 -2.4609
   43CHL1    C5 3116   2.951   0.900   7.156  0.2584 -0.1795  0.0427
   43CHL1    C6 3117   2.852   0.908   7.249 -0.5293  0.3396  0.1910
   43CHL1    H6 3118   2.746   0.907   7.219 -0.6159 -0.5880  0.4946
   43CHL1    C7 3119   2.877   0.932   7.397 -0.3628  0.1879  0.0962
   43CHL1   H7A 3120   2.815   1.019   7.427 -2.1545 -1.7242  2.3279
   43CHL1   H7B 3121   2.856   0.838   7.453  1.5174  0.2437  1.0054
   43CHL1    C8 3122   3.025   0.953   7.421  0.3332  0.2351 -0.6067
   43CHL1    H8 3123   3.032   1.059   7.388 -0.9420 -0.2417 -2.5615
   43CHL1   C14 3124   3.052   0.940   7.573  0.2066 -0.8367  0.5662
   43CHL1   H14 3125   3.027   0.839   7.612  1.2551 -1.2618  0.1945
   43CHL1   C15 3126   2.972   1.031   7.663  0.2750  0.7984 -0.1804
   43CHL1  H15A 3127   2.952   1.132   7.623 -0.7371  0.8583  0.4428
   43CHL1  H15B 3128   2.871   0.992   7.685  1.0100 -0.1070  1.8483
   43CHL1   C16 3129   3.049   1.038   7.799 -0.1943  0.0147  0.2125
   43CHL1  H16A 3130   3.070   1.147   7.803  1.8639 -0.1431 -2.7117
   43CHL1  H16B 3131   2.990   1.002   7.886  0.4764  0.9263  1.0619
   43CHL1   C17 3132   3.179   0.963   7.769  0.1200 -0.6125  0.9158
   43CHL1   H17 3133   3.163   0.861   7.811 -1.1734 -0.2620  1.3306
   43CHL1   C13 3134   3.195   0.960   7.615 -0.1205  0.4771 -0.2986
   43CHL1   C18 3135   3.248   1.107   7.567  0.2048 -0.1213  0.6591
   43CHL1  H18A 3136   3.218   1.123   7.462 -1.1968  0.2010  1.0939
   43CHL1  H18B 3137   3.198   1.184   7.629  0.5463  0.1345  0.6178
   43CHL1  H18C 3138   3.359   1.112   7.580  0.2529  0.5142  0.0004
   43CHL1   C12 3139   3.276   0.852   7.552  0.8344  0.4405  0.2459
   43CHL1  H12A 3140   3.380   0.849   7.591  1.0053 -0.5155 -0.2574
   43CHL1  H12B 3141   3.227   0.760   7.590 -0.8112  1.3468  0.3871
   43CHL1   C11 3142   3.261   0.852   7.396 -0.4769  0.2512  0.2783
   43CHL1  H11A 3143   3.325   0.931   7.353 -0.0587 -1.3605 -2.3416
   43CHL1  H11B 3144   3.305   0.755   7.364 -0.0462  0.9413 -1.3153
   43CHL1    C9 3145   3.113   0.863   7.339 -0.5491  0.2969 -0.4110
   43CHL1    H9 3146   3.082   0.760   7.366  1.5202 -0.8805 -2.1782
   43CHL1   C10 3147   3.101   0.896   7.188 -0.3672  0.9671 -0.4541
   43CHL1   C19 3148   3.163   1.034   7.160 -0.9851 -0.0471  0.4959
   43CHL1  H19A 3149   3.119   1.121   7.214  0.3339 -0.5102  2.4120
   43CHL1  H19B 3150   3.270   1.053   7.180 -0.8613 -1.2990  1.0853
   43CHL1  H19C 3151   3.174   1.049   7.051  3.6279 -0.1875  0.7444
   43CHL1    C1 3152   3.166   0.788   7.099  0.0596  0.1381 -1.1362
   43CHL1   H1A 3153   3.277   0.794   7.107 -0.0731  0.9857  0.7689
   43CHL1   H1B 3154   3.136   0.696   7.154 -0.9056  1.8499  1.4134
   43CHL1    C2 3155   3.119   0.772   6.952 -0.5689 -0.0558 -0.2932
   43CHL1   H2A 3156   3.153   0.676   6.907  1.1034  0.1559  0.4754
   43CHL1   H2B 3157   3.159   0.853   6.887 -1.8191 -0.3300 -1.4750
   43CHL1   C20 3158   3.287   1.027   7.853 -0.3650 -0.1010  0.5380
   43CHL1   H20 3159   3.305   1.132   7.823  2.4074 -0.6835 -0.1555
   43CHL1   C21 3160   3.419   0.954   7.816  0.2007 -0.1161 -0.0841
   43CHL1  H21A 3161   3.497   0.990   7.886  1.4999  0.0993 -1.6015
   43CHL1  H21B 3162   3.458   0.977   7.715  1.0888  1.9702  0.6726
   43CHL1  H21C 3163   3.418   0.845   7.837  0.4006 -0.3744 -1.3317
   43CHL1   C22 3164   3.270   1.032   8.004  0.0233  0.0220 -0.7071
   43CHL1  H22A 3165   3.174   1.081   8.030  0.7867  1.0419  0.2426
   43CHL1  H22B 3166   3.266   0.926   8.038 -3.6398 -0.5647 -2.4495
   43CHL1   C23 3167   3.384   1.109   8.074 -0.2507  0.1027  0.1541
   43CHL1  H23A 3168   3.465   1.039   8.104 -1.5844 -1.6067 -0.0665
   43CHL1  H23B 3169   3.442   1.176   8.008 -0.1738 -1.5504 -1.5356
   43CHL1   C24 3170   3.329   1.179   8.196  0.5094 -0.5665 -0.2237
   43CHL1  H24A 3171   3.245   1.248   8.177  2.5864  1.8147 -1.3004
   43CHL1  H24B 3172   3.279   1.107   8.266  0.7278  0.2240  0.7724
   43CHL1   C25 3173   3.427   1.284   8.265  0.0668  0.1018 -0.0491
   43CHL1   H25 3174   3.524   1.232   8.255 -0.7751 -1.3278 -1.2259
   43CHL1   C26 3175   3.450   1.414   8.183  0.8445  0.5968  0.8374
   43CHL1  H26A 3176   3.520   1.492   8.221  1.1197  0.8301 -0.1310
   43CHL1  H26B 3177   3.494   1.379   8.088 -2.3586  0.2894 -0.6739
   43CHL1  H26C 3178   3.356   1.465   8.151 -0.3513 -1.4236  0.9489
   43CHL1   C27 3179   3.395   1.315   8.414 -0.7658  0.3554 -0.1960
   43CHL1  H27A 3180   3.350   1.412   8.444  0.9074  1.3462 -0.7601
   43CHL1  H27B 3181   3.329   1.232   8.448 -1.9138  1.0666 -0.6400
   43CHL1  H27C 3182   3.484   1.294   8.477  0.8064  1.5137 -1.9178
   44CHL1    C3 3183   0.035   6.396   6.805  0.4051 -0.6647 -0.6567
   44CHL1    H3 3184   0.141   6.406   6.837  0.2268 -1.6724  0.3072
   44CHL1    O3 3185   0.040   6.407   6.662 -0.2296  0.3669  0.5456
   44CHL1   H3' 3186  -0.049   6.413   6.626  0.2073  2.5586 -0.4015
   44CHL1    C4 3187  -0.022   6.265   6.852 -0.8792  0.9062  0.5976
   44CHL1   H4A 3188  -0.122   6.260   6.805 -0.6337  3.8880 -0.4422
   44CHL1   H4B 3189   0.020   6.176   6.799 -1.1567  0.2911  1.3928
   44CHL1    C5 3190  -0.015   6.252   7.002  0.1437 -0.6037  0.0518
   44CHL1    C6 3191   0.046   6.152   7.057 -0.0844 -0.4106  0.1137
   44CHL1    H6 3192   0.087   6.070   6.995  1.3973 -0.0681  0.5983
   44CHL1    C7 3193   0.048   6.127   7.202  0.3627  0.2581 -0.7115
   44CHL1   H7A 3194   0.037   6.017   7.217 -0.9482  0.5394  0.6812
   44CHL1   H7B 3195   0.151   6.139   7.240 -0.6832  0.0841  2.5334
   44CHL1    C8 3196  -0.046   6.207   7.292  0.4095 -0.0544 -0.1703
   44CHL1    H8 3197  -0.145   6.158   7.296  1.9029 -3.4006 -0.5626
   44CHL1   C14 3198   0.001   6.200   7.436  0.8114 -0.0857  0.3133
   44CHL1   H14 3199   0.106   6.236   7.433  0.1759  1.8155 -1.0559
   44CHL1   C15 3200   0.010   6.064   7.504 -0.1084  0.7180  0.2112
   44CHL1  H15A 3201  -0.083   6.006   7.490  0.7220 -0.2682 -1.6730
   44CHL1  H15B 3202   0.094   6.002   7.464 -0.0335  0.0974  1.3177
   44CHL1   C16 3203   0.015   6.101   7.656  0.3448 -0.1858 -0.0362
   44CHL1  H16A 3204  -0.060   6.041   7.711 -0.6357 -0.0337 -1.1753
   44CHL1  H16B 3205   0.116   6.086   7.702  0.3388  0.9350  0.3799
   44CHL1   C17 3206  -0.008   6.258   7.665  0.2678  0.5270 -0.5715
   44CHL1   H17 3207   0.091   6.306   7.655  0.7525 -0.0884  0.8745
   44CHL1   C13 3208  -0.079   6.289   7.533  0.1894 -0.5366 -0.1251
   44CHL1   C18 3209  -0.229   6.233   7.544  0.1572 -0.0661 -0.0446
   44CHL1  H18A 3210  -0.237   6.126   7.570  2.4145  0.0485  1.4038
   44CHL1  H18B 3211  -0.286   6.297   7.615 -2.0976  0.5539 -2.2845
   44CHL1  H18C 3212  -0.286   6.246   7.449 -0.2447  1.4680  0.3752
   44CHL1   C12 3213  -0.076   6.433   7.471  0.0970 -0.7951 -0.2633
   44CHL1  H12A 3214  -0.126   6.503   7.542 -0.2290 -0.4228 -0.8479
   44CHL1  H12B 3215   0.032   6.457   7.464 -0.1994  0.5464 -0.5128
   44CHL1   C11 3216  -0.139   6.444   7.330 -0.1607 -0.0303 -0.0437
   44CHL1  H11A 3217  -0.242   6.403   7.324  0.2386 -0.9852 -0.5453
   44CHL1  H11B 3218  -0.154   6.551   7.305  0.3266 -0.1855 -1.0436
   44CHL1    C9 3219  -0.055   6.354   7.235 -0.0304 -1.1175 -0.4255
   44CHL1    H9 3220   0.053   6.381   7.244  0.6485 -3.6420  0.0946
   44CHL1   C10 3221  -0.082   6.362   7.083 -0.2392 -0.2227  0.0249
   44CHL1   C19 3222  -0.235   6.337   7.055 -0.4337 -0.8591  0.0300
   44CHL1  H19A 3223  -0.252   6.292   6.955  2.5510 -1.3466 -0.3615
   44CHL1  H19B 3224  -0.270   6.277   7.141 -0.5399  1.1505  1.4781
   44CHL1  H19C 3225  -0.309   6.420   7.059 -1.6227 -1.7112 -2.6508
   44CHL1    C1 3226  -0.043   6.505   7.023 -0.1346 -0.4354 -0.2758
   44CHL1   H1A 3227  -0.116   6.580   7.060 -0.1626  0.2322 -1.6110
   44CHL1   H1B 3228   0.056   6.531   7.067  0.0785  0.9268 -1.4945
   44CHL1    C2 3229  -0.041   6.514   6.868  0.2486 -0.1241  0.5743
   44CHL1   H2A 3230  -0.011   6.609   6.818  0.7471 -2.3574 -3.8800
   44CHL1   H2B 3231  -0.146   6.511   6.831  0.3794 -0.0847  0.1868
   44CHL1   C20 3232  -0.066   6.300   7.800  0.9294 -0.4371  0.9998
   44CHL1   H20 3233  -0.172   6.266   7.798  0.4902  0.8533 -1.0690
   44CHL1   C21 3234  -0.066   6.453   7.804  0.0063  0.4191  0.4327
   44CHL1  H21A 3235   0.034   6.484   7.765 -0.0944 -0.8721 -0.9734
   44CHL1  H21B 3236  -0.074   6.498   7.905 -0.4896  0.6095  0.3121
   44CHL1  H21C 3237  -0.138   6.495   7.730  0.6166 -0.6601 -0.8292
   44CHL1   C22 3238   0.019   6.255   7.911  0.3701  0.8453 -0.6835
   44CHL1  H22A 3239   0.021   6.144   7.917 -1.5033  0.6565 -2.3930
   44CHL1  H22B 3240   0.124   6.286   7.894 -0.0247  2.5045 -0.3478
   44CHL1   C23 3241  -0.023   6.307   8.057  0.6747  0.2577  0.1595
   44CHL1  H23A 3242   0.028   6.404   8.073  0.5776  0.3726 -0.2050
   44CHL1  H23B 3243  -0.134   6.301   8.056  0.6430 -0.7630 -3.2970
   44CHL1   C24 3244   0.027   6.202   8.160 -0.0153 -0.2854  0.1316
   44CHL1  H24A 3245  -0.036   6.112   8.148 -0.9168  0.2375  0.8491
   44CHL1  H24B 3246   0.136   6.181   8.150 -0.1118  0.2220 -2.9479
   44CHL1   C25 3247   0.002   6.255   8.301  0.3719 -0.0292 -0.2535
   44CHL1   H25 3248   0.043   6.358   8.294 -0.7813  0.3624 -2.0036
   44CHL1   C26 3249  -0.151   6.250   8.324 -1.0874  0.3095 -0.3534
   44CHL1  H26A 3250  -0.183   6.147   8.353 -0.1248 -0.3959 -1.6641
   44CHL1  H26B 3251  -0.177   6.318   8.407 -1.2734  1.5877 -1.4314
   44CHL1  H26C 3252  -0.207   6.288   8.235 -0.9672 -2.7043 -1.8552
   44CHL1   C27 3253   0.093   6.185   8.408  0.4071 -0.5643  0.5157
   44CHL1  H27A 3254   0.201   6.184   8.385  0.1886  1.0926 -0.7432
   44CHL1  H27B 3255   0.075   6.223   8.510 -1.1079  0.5963 -0.1498
   44CHL1  H27C 3256   0.066   6.077   8.420  1.0005 -0.6642  0.9990
   45CHL1    C3 3257   1.054   5.677   6.841  0.0637 -0.7400  0.0560
   45CHL1    H3 3258   1.146   5.615   6.834  0.6615  0.0495  0.7347
   45CHL1    O3 3259   1.018   5.719   6.710  0.0171  0.3581 -0.0548
   45CHL1   H3' 3260   0.932   5.761   6.711 -0.2656 -0.0053 -2.5146
   45CHL1    C4 3261   0.941   5.599   6.916 -0.5945 -0.3061  0.4764
   45CHL1   H4A 3262   0.843   5.648   6.905 -0.8225 -0.9187 -0.3120
   45CHL1   H4B 3263   0.938   5.502   6.863  3.2391 -0.6168  0.5249
   45CHL1    C5 3264   0.966   5.571   7.067 -0.3658 -0.2402 -0.1689
   45CHL1    C6 3265   0.959   5.449   7.124 -0.4980  0.0596  0.1560
   45CHL1    H6 3266   0.931   5.365   7.060  0.9986 -0.3690  0.0297
   45CHL1    C7 3267   0.968   5.425   7.269 -0.2568  0.1082  0.1921
   45CHL1   H7A 3268   0.889   5.354   7.301  0.0594 -0.9893 -1.2959
   45CHL1   H7B 3269   1.065   5.375   7.291 -0.0915  1.2872  2.3664
   45CHL1    C8 3270   0.965   5.555   7.351 -0.8844 -0.1960  0.1481
   45CHL1    H8 3271   0.857   5.578   7.353 -0.9612 -0.5712  0.3002
   45CHL1   C14 3272   1.002   5.527   7.496 -0.4063 -0.0456  0.9744
   45CHL1   H14 3273   1.111   5.505   7.497  0.4423  3.2414 -1.3052
   45CHL1   C15 3274   0.932   5.406   7.562  0.3091  0.1335  0.0761
   45CHL1  H15A 3275   0.825   5.410   7.534  0.2549  1.3822  0.4021
   45CHL1  H15B 3276   0.973   5.304   7.547  0.0944 -0.0545  0.7431
   45CHL1   C16 3277   0.959   5.438   7.714  0.1406  0.2950 -0.5244
   45CHL1  H16A 3278   0.854   5.438   7.751  0.1590  0.9344 -0.4705
   45CHL1  H16B 3279   1.024   5.362   7.763  0.0864  0.7277  0.2353
   45CHL1   C17 3280   1.023   5.581   7.721  0.4116  0.0446  0.1219
   45CHL1   H17 3281   1.132   5.557   7.721  0.5561  0.6181 -1.2686
   45CHL1   C13 3282   0.997   5.644   7.587  0.3652  0.1575 -0.6986
   45CHL1   C18 3283   0.858   5.713   7.599  0.6031 -0.0725 -0.7458
   45CHL1  H18A 3284   0.777   5.643   7.629 -0.5813  1.1013 -1.1196
   45CHL1  H18B 3285   0.868   5.783   7.685 -0.7850  0.2944 -0.8555
   45CHL1  H18C 3286   0.834   5.778   7.512 -0.4734  0.8021  0.1647
   45CHL1   C12 3287   1.105   5.749   7.530 -0.8384  0.7828  0.2343
   45CHL1  H12A 3288   1.103   5.846   7.584  0.6735  0.6693  0.5403
   45CHL1  H12B 3289   1.205   5.702   7.537 -0.2730  1.5489 -1.9049
   45CHL1   C11 3290   1.071   5.787   7.386  0.2204 -0.2002 -0.2528
   45CHL1  H11A 3291   0.993   5.866   7.391 -0.6956 -1.1140  0.1125
   45CHL1  H11B 3292   1.161   5.835   7.342  0.2440 -0.3143 -0.3286
   45CHL1    C9 3293   1.054   5.665   7.289 -0.1049  0.1742  1.0407
   45CHL1    H9 3294   1.150   5.612   7.273 -1.4221 -1.5178 -2.2135
   45CHL1   C10 3295   1.010   5.699   7.141 -0.1077  1.0149  0.5191
   45CHL1   C19 3296   0.882   5.779   7.157  0.3657  0.1353  0.3810
   45CHL1  H19A 3297   0.873   5.870   7.220 -1.6855  0.1023  0.2060
   45CHL1  H19B 3298   0.865   5.827   7.059  0.4462 -0.5486  0.0223
   45CHL1  H19C 3299   0.788   5.726   7.184 -0.6694  2.2738  1.2146
   45CHL1    C1 3300   1.115   5.780   7.059  0.8214 -0.1483  0.4747
   45CHL1   H1A 3301   1.129   5.882   7.102 -0.7979  0.8175 -1.1860
   45CHL1   H1B 3302   1.217   5.737   7.064  1.3924  1.3130  2.7796
   45CHL1    C2 3303   1.083   5.805   6.912 -0.6683  0.4880 -0.3878
   45CHL1   H2A 3304   1.176   5.853   6.875  0.5466 -1.4629 -0.0559
   45CHL1   H2B 3305   1.005   5.883   6.905 -1.3005 -0.1749 -0.9102
   45CHL1   C20 3306   1.000   5.652   7.857 -0.1572 -1.3063 -0.7939
   45CHL1   H20 3307   0.893   5.676   7.875  0.7583  1.3817  1.8884
   45CHL1   C21 3308   1.092   5.778   7.858  0.6747  0.8121 -0.4127
   45CHL1  H21A 3309   1.197   5.767   7.826  0.5160  1.1966 -1.0653
   45CHL1  H21B 3310   1.113   5.818   7.960 -1.2682 -0.0090  0.3697
   45CHL1  H21C 3311   1.039   5.859   7.805 -0.2616  1.0148  0.7792
   45CHL1   C22 3312   1.048   5.567   7.983 -0.3361 -0.6578 -0.1269
   45CHL1  H22A 3313   1.102   5.474   7.956  0.1704 -1.3171  2.8507
   45CHL1  H22B 3314   1.121   5.627   8.041  0.6168 -1.0332 -0.9112
   45CHL1   C23 3315   0.937   5.541   8.085 -0.0625  0.0574  0.7260
   45CHL1  H23A 3316   0.902   5.641   8.119  1.6280  0.8071  0.3743
   45CHL1  H23B 3317   0.847   5.504   8.031 -1.4719  3.2022  0.7082
   45CHL1   C24 3318   0.977   5.470   8.213 -0.7111 -0.1493  0.3936
   45CHL1  H24A 3319   1.044   5.385   8.192 -1.6470 -0.5314 -1.2039
   45CHL1  H24B 3320   1.021   5.536   8.291 -2.3436 -1.5665  2.6536
   45CHL1   C25 3321   0.846   5.410   8.270 -0.0902 -0.0690  0.3666
   45CHL1   H25 3322   0.795   5.351   8.191 -0.0495  2.1669 -1.4419
   45CHL1   C26 3323   0.881   5.321   8.398  0.5909 -0.2451  0.0979
   45CHL1  H26A 3324   0.916   5.387   8.481 -0.2660 -0.6455  0.7904
   45CHL1  H26B 3325   0.795   5.263   8.438  0.3098  1.6017  2.3449
   45CHL1  H26C 3326   0.970   5.258   8.380  0.1651 -1.6152  2.4087
   45CHL1   C27 3327   0.739   5.513   8.298  0.0706  0.4627  0.2488
   45CHL1  H27A 3328   0.666   5.475   8.372  1.7493  0.6276  2.0905
   45CHL1  H27B 3329   0.785   5.612   8.320  1.9588  0.0799 -1.6108
   45CHL1  H27C 3330   0.678   5.522   8.205 -0.2604 -0.0978  0.4083
   46CHL1    C3 3331   1.116   0.771   7.162 -0.4614 -0.3020  0.5892
   46CHL1    H3 3332   1.207   0.834   7.165 -1.4146  1.2003 -0.3166
   46CHL1    O3 3333   1.058   0.808   7.040  0.1365 -0.1653 -0.8579
   46CHL1   H3' 3334   1.122   0.786   6.971 -0.5207 -0.4616 -1.3784
   46CHL1    C4 3335   1.155   0.626   7.167  0.1073  0.0688  0.4220
   46CHL1   H4A 3336   1.059   0.570   7.156 -1.5140  2.6566  0.5911
   46CHL1   H4B 3337   1.221   0.593   7.084  1.1348 -0.0255  1.2586
   46CHL1    C5 3338   1.225   0.588   7.300 -0.1440  0.4029  0.5792
   46CHL1    C6 3339   1.352   0.526   7.298 -0.1546  0.3530  0.7058
   46CHL1    H6 3340   1.396   0.505   7.199 -1.4810 -0.8415  0.3233
   46CHL1    C7 3341   1.434   0.486   7.421  0.0643  0.0347 -0.3809
   46CHL1   H7A 3342   1.463   0.380   7.412 -2.1544 -0.9318  2.4170
   46CHL1   H7B 3343   1.531   0.541   7.431  0.0228  0.1037 -0.3535
   46CHL1    C8 3344   1.351   0.510   7.550 -0.0354  0.1688 -0.0876
   46CHL1    H8 3345   1.287   0.420   7.551 -0.5119  0.4955  1.3151
   46CHL1   C14 3346   1.443   0.524   7.669 -0.8415  0.6199  0.0384
   46CHL1   H14 3347   1.491   0.618   7.636 -1.6381  0.6702 -1.0214
   46CHL1   C15 3348   1.557   0.422   7.686  0.0457 -0.0657 -0.1752
   46CHL1  H15A 3349   1.517   0.319   7.676  0.2002 -0.2525  0.9557
   46CHL1  H15B 3350   1.646   0.424   7.620  2.4138 -1.7584  2.7180
   46CHL1   C16 3351   1.600   0.434   7.831  0.3175  0.2612 -0.3228
   46CHL1  H16A 3352   1.615   0.330   7.866  0.1907  0.6274  0.8880
   46CHL1  H16B 3353   1.702   0.477   7.841  0.5577 -0.2933 -0.3435
   46CHL1   C17 3354   1.509   0.540   7.904  0.4177  0.3456  0.3743
   46CHL1   H17 3355   1.558   0.640   7.907 -0.5236  0.7958  1.3104
   46CHL1   C13 3356   1.381   0.554   7.807 -0.7545 -0.1637  0.3159
   46CHL1   C18 3357   1.277   0.443   7.851 -0.1475  0.1819  0.4198
   46CHL1  H18A 3358   1.329   0.345   7.839  1.1577  0.5508  2.4890
   46CHL1  H18B 3359   1.239   0.457   7.954  1.6867  1.0012  1.0347
   46CHL1  H18C 3360   1.189   0.453   7.785 -0.2587  2.8397  0.8781
   46CHL1   C12 3361   1.322   0.692   7.791 -0.0469 -0.1395 -0.1962
   46CHL1  H12A 3362   1.260   0.723   7.878  2.4537  1.9468  0.9938
   46CHL1  H12B 3363   1.403   0.768   7.779 -1.6497  1.7292  0.3242
   46CHL1   C11 3364   1.214   0.689   7.679 -0.1957 -0.0362 -0.1665
   46CHL1  H11A 3365   1.129   0.623   7.707 -0.6366  0.0822 -1.2033
   46CHL1  H11B 3366   1.166   0.789   7.675 -0.1606 -0.0447 -1.0884
   46CHL1    C9 3367   1.268   0.641   7.546  0.1368  0.6133 -0.3365
   46CHL1    H9 3368   1.340   0.722   7.524 -1.1036  1.1567 -2.8150
   46CHL1   C10 3369   1.157   0.640   7.426  0.1841  0.2826 -0.2270
   46CHL1   C19 3370   1.040   0.549   7.470  0.2806  0.5200  0.1529
   46CHL1  H19A 3371   0.974   0.524   7.384 -1.5441  0.7625  1.4200
   46CHL1  H19B 3372   1.075   0.457   7.520  1.5723  2.0791  2.2852
   46CHL1  H19C 3373   0.968   0.593   7.541 -0.6290  0.2774 -0.5994
   46CHL1    C1 3374   1.105   0.789   7.411  0.1261  0.0178  0.1457
   46CHL1   H1A 3375   1.033   0.812   7.493 -2.0971  0.5197 -1.8356
   46CHL1   H1B 3376   1.200   0.847   7.418  1.3085 -1.7896 -0.2638
   46CHL1    C2 3377   1.027   0.810   7.284 -0.4275 -0.2764 -0.6669
   46CHL1   H2A 3378   1.000   0.917   7.275 -0.4496 -0.3330 -1.3303
   46CHL1   H2B 3379   0.930   0.756   7.284  0.2062 -1.4573  0.5032
   46CHL1   C20 3380   1.486   0.514   8.047 -0.6845 -0.5796 -0.3918
   46CHL1   H20 3381   1.434   0.418   8.069 -1.5805  0.4004  2.2134
   46CHL1   C21 3382   1.403   0.628   8.120 -0.2645  0.2155  0.9351
   46CHL1  H21A 3383   1.388   0.597   8.226  0.5777  0.6850  1.1976
   46CHL1  H21B 3384   1.301   0.627   8.076  0.6514  2.9971 -1.5851
   46CHL1  H21C 3385   1.450   0.728   8.119  0.9970 -0.3485 -0.7496
   46CHL1   C22 3386   1.613   0.499   8.124 -0.2836  0.1098  0.0257
   46CHL1  H22A 3387   1.694   0.444   8.072  1.4090 -0.1363  2.7289
   46CHL1  H22B 3388   1.650   0.601   8.148 -1.0444  1.1523 -2.8219
   46CHL1   C23 3389   1.594   0.420   8.253  0.7104 -0.0789 -0.0823
   46CHL1  H23A 3390   1.515   0.460   8.320 -0.9331 -0.7784 -1.5437
   46CHL1  H23B 3391   1.541   0.326   8.227 -3.2091  1.4552  1.5467
   46CHL1   C24 3392   1.717   0.395   8.332  0.1705 -0.5867  0.5259
   46CHL1  H24A 3393   1.803   0.367   8.267  0.5168  2.1554 -0.3395
   46CHL1  H24B 3394   1.758   0.489   8.376  2.0679 -0.7446 -0.7432
   46CHL1   C25 3395   1.699   0.294   8.445  0.4735  0.1023 -0.3371
   46CHL1   H25 3396   1.656   0.201   8.403  2.7411 -0.9223 -0.5778
   46CHL1   C26 3397   1.842   0.264   8.502  0.1248  0.3337 -0.4749
   46CHL1  H26A 3398   1.869   0.358   8.555  1.6917  0.0911 -0.7791
   46CHL1  H26B 3399   1.829   0.188   8.582  0.0397  0.9022  0.0536
   46CHL1  H26C 3400   1.911   0.235   8.419  1.1233  1.2835 -0.0154
   46CHL1   C27 3401   1.603   0.353   8.547  0.1503 -0.2327 -0.5708
   46CHL1  H27A 3402   1.626   0.458   8.574 -1.5901  0.8436 -2.9282
   46CHL1  H27B 3403   1.501   0.357   8.504  0.3635 -1.4563 -1.2421
   46CHL1  H27C 3404   1.600   0.273   8.624 -2.1642  1.2242  0.9772
   47CHL1    C3 3405   0.820   0.111   7.056  0.2461  0.5757 -0.6773
   47CHL1    H3 3406   0.752   0.185   7.104 -1.8122 -0.1029 -2.3717
   47CHL1    O3 3407   0.810   0.136   6.914  0.3492  0.8776  0.4211
   47CHL1   H3' 3408   0.894   0.104   6.881  1.9689  2.8531  2.3073
   47CHL1    C4 3409   0.956   0.132   7.115 -0.0620 -0.2214 -0.0834
   47CHL1   H4A 3410   1.013   0.048   7.070  0.5612 -0.5978  1.3562
   47CHL1   H4B 3411   0.998   0.228   7.078  2.2049 -0.7432  0.9442
   47CHL1    C5 3412   0.970   0.109   7.265 -0.0715  0.2304 -0.5009
   47CHL1    C6 3413   1.007   0.208   7.350  0.2189  0.0124  0.8221
   47CHL1    H6 3414   1.045   0.298   7.300  0.0779 -0.0455  0.6075
   47CHL1    C7 3415   1.016   0.193   7.503 -0.3836 -0.0104 -0.2511
   47CHL1   H7A 3416   1.119   0.221   7.535 -0.6826  1.3582 -0.4260
   47CHL1   H7B 3417   0.952   0.262   7.562  0.8294  0.7234  0.2542
   47CHL1    C8 3418   0.991   0.046   7.544 -0.7443 -0.1920 -0.2936
   47CHL1    H8 3419   1.080  -0.015   7.520 -0.7601  0.0746 -1.0451
   47CHL1   C14 3420   0.960   0.032   7.689 -0.1134 -0.0168 -0.1796
   47CHL1   H14 3421   0.866   0.087   7.710 -1.9794 -2.7519 -0.9794
   47CHL1   C15 3422   1.066   0.096   7.778  0.6332  0.3353 -0.4645
   47CHL1  H15A 3423   1.165   0.049   7.760 -0.5489 -1.9347 -1.5061
   47CHL1  H15B 3424   1.059   0.206   7.766  0.5997  0.0609 -3.9355
   47CHL1   C16 3425   1.030   0.033   7.917  0.8141  0.4296 -0.4337
   47CHL1  H16A 3426   1.125  -0.007   7.958 -0.5846  0.7362  3.5041
   47CHL1  H16B 3427   0.995   0.109   7.990  1.1879  0.3993 -0.2187
   47CHL1   C17 3428   0.929  -0.079   7.892  0.1844 -0.0742 -1.1359
   47CHL1   H17 3429   0.832  -0.029   7.910  0.1230 -0.5579 -0.1049
   47CHL1   C13 3430   0.938  -0.106   7.739 -0.9022  0.3845 -0.3334
   47CHL1   C18 3431   1.057  -0.199   7.714 -0.8264  0.8276  0.4833
   47CHL1  H18A 3432   1.039  -0.290   7.774  0.0279  0.2978 -0.0524
   47CHL1  H18B 3433   1.080  -0.217   7.607  1.0792  2.4528  0.5548
   47CHL1  H18C 3434   1.152  -0.152   7.748 -0.4079  0.3882 -0.0526
   47CHL1   C12 3435   0.816  -0.156   7.667  0.1562 -0.3339  0.0342
   47CHL1  H12A 3436   0.783  -0.257   7.701 -1.3818  0.5980  1.4088
   47CHL1  H12B 3437   0.731  -0.086   7.677 -0.3346 -0.7150 -1.2756
   47CHL1   C11 3438   0.841  -0.152   7.518 -0.1032 -0.6444  0.5987
   47CHL1  H11A 3439   0.912  -0.233   7.492 -0.5242 -0.4095 -1.4863
   47CHL1  H11B 3440   0.750  -0.191   7.467  0.0278 -0.3711  0.1458
   47CHL1    C9 3441   0.876  -0.015   7.458  0.3519 -0.3260 -0.0459
   47CHL1    H9 3442   0.788   0.049   7.478  2.0227  1.8143  0.9009
   47CHL1   C10 3443   0.901  -0.020   7.310  0.3360 -0.1086  0.3921
   47CHL1   C19 3444   0.993  -0.136   7.269  0.6427 -0.6864  0.2908
   47CHL1  H19A 3445   1.008  -0.151   7.160 -0.8891 -0.3836  0.0215
   47CHL1  H19B 3446   1.093  -0.105   7.307 -0.2267  0.5585  1.6553
   47CHL1  H19C 3447   0.965  -0.234   7.312 -1.1404 -0.5219 -0.4203
   47CHL1    C1 3448   0.758  -0.037   7.239  0.0117  0.3088  0.0882
   47CHL1   H1A 3449   0.720  -0.133   7.282  2.7402  0.0075  2.1107
   47CHL1   H1B 3450   0.691   0.049   7.261 -1.0466 -0.8796  1.7961
   47CHL1    C2 3451   0.760  -0.026   7.085 -0.7759  0.5445 -0.3743
   47CHL1   H2A 3452   0.653  -0.037   7.056 -0.3780 -2.7617 -1.0378
   47CHL1   H2B 3453   0.827  -0.101   7.038 -2.7457 -0.1348 -2.3116
   47CHL1   C20 3454   0.946  -0.195   7.997  0.0001  0.2080  0.4134
   47CHL1   H20 3455   1.042  -0.250   7.989 -0.2671 -0.4800  1.6225
   47CHL1   C21 3456   0.824  -0.296   7.979 -0.4028  0.2503 -0.5864
   47CHL1  H21A 3457   0.722  -0.252   7.987  0.1021  1.3174  0.2025
   47CHL1  H21B 3458   0.844  -0.383   8.046 -0.1969  1.8136  1.5014
   47CHL1  H21C 3459   0.829  -0.347   7.881 -1.2581  1.3660 -1.2384
   47CHL1   C22 3460   0.953  -0.153   8.147  0.1622  0.2357  0.4907
   47CHL1  H22A 3461   1.007  -0.056   8.147  0.2383  0.2405 -1.4756
   47CHL1  H22B 3462   0.848  -0.140   8.180  0.1058 -1.3752  1.0029
   47CHL1   C23 3463   1.024  -0.264   8.222 -0.4264  0.1860 -0.2181
   47CHL1  H23A 3464   0.985  -0.367   8.207  0.4481 -0.3345  0.8819
   47CHL1  H23B 3465   1.133  -0.253   8.200 -0.7513 -0.6038 -2.5097
   47CHL1   C24 3466   1.004  -0.248   8.369  0.0394  0.8104 -0.7421
   47CHL1  H24A 3467   1.027  -0.144   8.399  0.0863 -0.1549  3.1387
   47CHL1  H24B 3468   0.897  -0.267   8.389  0.4721 -0.2231  0.8451
   47CHL1   C25 3469   1.083  -0.356   8.448  0.2813 -0.0285  0.3844
   47CHL1   H25 3470   1.061  -0.451   8.394  1.0340 -1.4161  2.4127
   47CHL1   C26 3471   1.236  -0.342   8.447  0.1764  0.5799  0.8258
   47CHL1  H26A 3472   1.276  -0.250   8.495  0.0166  1.1737 -0.1399
   47CHL1  H26B 3473   1.285  -0.434   8.483 -0.7614 -1.0038 -1.6776
   47CHL1  H26C 3474   1.274  -0.329   8.343  1.6855  0.8384  1.3785
   47CHL1   C27 3475   1.045  -0.370   8.591  0.5661 -0.0650  0.3864
   47CHL1  H27A 3476   1.097  -0.450   8.648  0.3712  0.6103  1.5541
   47CHL1  H27B 3477   1.082  -0.278   8.642  0.5605  0.7517 -1.0186
   47CHL1  H27C 3478   0.934  -0.379   8.599  0.5797 -2.8365 -1.4034
   48CHL1    C3 3479   4.956   1.331   6.471  0.4423  0.9069 -0.4908
   48CHL1    H3 3480   5.047   1.267   6.466  0.2452  0.5514  0.3117
   48CHL1    O3 3481   4.912   1.352   6.337  0.6816  0.4559  0.7279
   48CHL1   H3' 3482   4.934   1.445   6.332  1.6315  0.2012 -0.4348
   48CHL1    C4 3483   4.837   1.262   6.557 -0.0837  0.3200 -0.4795
   48CHL1   H4A 3484   4.746   1.314   6.519  1.1551  2.0983 -1.1983
   48CHL1   H4B 3485   4.831   1.159   6.516  0.8771 -0.1742  0.5833
   48CHL1    C5 3486   4.855   1.274   6.705  0.0244  0.6922  0.4054
   48CHL1    C6 3487   4.856   1.163   6.782 -0.3143  0.4532 -0.3190
   48CHL1    H6 3488   4.847   1.069   6.727 -0.7773  0.7090 -0.6947
   48CHL1    C7 3489   4.882   1.164   6.929 -0.2816 -0.3354 -0.0591
   48CHL1   H7A 3490   4.835   1.088   6.995 -0.0045  1.5990  2.5000
   48CHL1   H7B 3491   4.993   1.165   6.942  0.1420  5.2733 -1.3961
   48CHL1    C8 3492   4.844   1.304   6.997  0.1829  0.2038 -0.5740
   48CHL1    H8 3493   4.733   1.314   6.994 -0.1497 -2.4026  0.1737
   48CHL1   C14 3494   4.903   1.309   7.135 -0.6534 -0.1497 -0.2572
   48CHL1   H14 3495   5.014   1.298   7.133 -0.6200  0.1871 -0.3691
   48CHL1   C15 3496   4.865   1.203   7.240  0.4727 -0.4480 -0.0780
   48CHL1  H15A 3497   4.755   1.187   7.245  0.3132  0.6095 -0.1217
   48CHL1  H15B 3498   4.916   1.105   7.225  1.8943  0.3010 -0.2739
   48CHL1   C16 3499   4.920   1.258   7.370  0.2563  0.5132  0.2133
   48CHL1  H16A 3500   4.850   1.238   7.453  1.6554 -0.7691  1.1164
   48CHL1  H16B 3501   5.007   1.196   7.398  0.8821  1.2332 -0.1082
   48CHL1   C17 3502   4.950   1.405   7.340  0.2087  0.1170  0.1407
   48CHL1   H17 3503   5.059   1.413   7.321 -0.1495  0.9197 -1.9199
   48CHL1   C13 3504   4.880   1.439   7.204 -0.0526  0.3396 -0.1238
   48CHL1   C18 3505   4.726   1.466   7.224 -0.8112 -0.1093 -0.8721
   48CHL1  H18A 3506   4.715   1.563   7.278  0.0128 -0.7841  0.5518
   48CHL1  H18B 3507   4.663   1.477   7.133 -0.9579  1.0488 -0.6469
   48CHL1  H18C 3508   4.677   1.389   7.287 -1.2351  0.6019 -0.3116
   48CHL1   C12 3509   4.946   1.542   7.114  0.4408 -0.3717 -0.3377
   48CHL1  H12A 3510   4.938   1.637   7.171  1.6144 -1.1581  1.2318
   48CHL1  H12B 3511   5.054   1.519   7.108  0.4469 -0.0223 -2.5050
   48CHL1   C11 3512   4.892   1.548   6.975  0.0902  0.1683 -0.2891
   48CHL1  H11A 3513   4.789   1.588   6.979 -0.1242 -0.4619  1.4094
   48CHL1  H11B 3514   4.960   1.617   6.920  0.1048 -0.4575 -1.0776
   48CHL1    C9 3515   4.910   1.408   6.914 -0.4332  0.2853 -0.3574
   48CHL1    H9 3516   5.019   1.387   6.916 -0.5725 -0.4537 -0.1532
   48CHL1   C10 3517   4.875   1.410   6.764 -0.1673 -0.5024  0.0814
   48CHL1   C19 3518   4.741   1.491   6.738  0.0422 -0.2306 -0.0754
   48CHL1  H19A 3519   4.661   1.462   6.810 -0.2605 -0.1243 -0.3660
   48CHL1  H19B 3520   4.745   1.601   6.753  0.6565 -0.6096  3.3109
   48CHL1  H19C 3521   4.689   1.478   6.641  0.3843 -0.8997 -0.1715
   48CHL1    C1 3522   5.004   1.467   6.685 -0.1119  0.1963  0.1503
   48CHL1   H1A 3523   5.019   1.571   6.720  2.6887 -0.5680  1.5871
   48CHL1   H1B 3524   5.090   1.398   6.704 -1.8596 -1.8225  1.1983
   48CHL1    C2 3525   4.979   1.470   6.533 -0.3592  0.2755 -0.0853
   48CHL1   H2A 3526   5.074   1.511   6.493  0.1872  0.8928  1.7766
   48CHL1   H2B 3527   4.904   1.549   6.512  2.1125  2.9679  0.5389
   48CHL1   C20 3528   4.923   1.499   7.458  0.1809 -0.1164 -1.1528
   48CHL1   H20 3529   4.812   1.502   7.465  0.2587  1.7925 -0.0238
   48CHL1   C21 3530   4.973   1.644   7.437 -0.2121  0.0052 -0.0773
   48CHL1  H21A 3531   4.954   1.712   7.523 -0.2962  0.4852 -0.4677
   48CHL1  H21B 3532   4.914   1.675   7.348  1.3898  0.2949 -1.0918
   48CHL1  H21C 3533   5.080   1.648   7.406  0.0401 -1.5543  0.5405
   48CHL1   C22 3534   4.967   1.445   7.594  0.4060 -0.4436 -0.0656
   48CHL1  H22A 3535   4.944   1.336   7.605  1.0621 -0.7317 -1.4103
   48CHL1  H22B 3536   5.076   1.455   7.608  0.4217 -0.6895 -0.0032
   48CHL1   C23 3537   4.892   1.501   7.717 -0.1532 -0.4117  0.0971
   48CHL1  H23A 3538   4.913   1.610   7.723 -0.0431 -0.2086 -2.7353
   48CHL1  H23B 3539   4.783   1.507   7.697  0.2118  3.0170 -1.4416
   48CHL1   C24 3540   4.934   1.431   7.850 -0.0289 -0.1828  1.3140
   48CHL1  H24A 3541   4.887   1.330   7.856  3.0671 -1.8890 -0.3761
   48CHL1  H24B 3542   5.042   1.410   7.830 -0.4365 -0.1865 -1.1892
   48CHL1   C25 3543   4.918   1.507   7.982  0.9312 -0.2448  0.6190
   48CHL1   H25 3544   4.820   1.475   8.023  0.3389 -0.4348 -0.8688
   48CHL1   C26 3545   5.012   1.462   8.087 -0.0565  0.0896 -0.0649
   48CHL1  H26A 3546   5.020   1.353   8.110  2.0305  0.4579  1.1958
   48CHL1  H26B 3547   5.116   1.499   8.076  0.5668 -1.4953  0.2727
   48CHL1  H26C 3548   4.985   1.498   8.188 -0.1311 -1.2673  0.4205
   48CHL1   C27 3549   4.906   1.663   7.978 -0.7287 -0.1084 -1.0904
   48CHL1  H27A 3550   4.890   1.709   8.078 -1.7851 -1.3709 -0.6482
   48CHL1  H27B 3551   4.994   1.714   7.935 -0.7633  2.0661  1.1580
   48CHL1  H27C 3552   4.815   1.676   7.916 -0.0453  0.1306 -2.0509
   49CHL1    C3 3553   2.449   4.047   6.929  0.1274  0.1872 -0.3243
   49CHL1    H3 3554   2.496   4.147   6.938 -0.0856  0.3032 -0.4923
   49CHL1    O3 3555   2.413   4.023   6.797 -1.1900 -0.3083  0.0808
   49CHL1   H3' 3556   2.386   3.932   6.806  0.9170 -0.7742  4.4914
   49CHL1    C4 3557   2.539   3.940   6.990  0.3415  0.4649  0.0449
   49CHL1   H4A 3558   2.480   3.846   6.982  0.7476  0.2721 -0.8242
   49CHL1   H4B 3559   2.625   3.931   6.920  1.5465 -0.0457  1.5398
   49CHL1    C5 3560   2.578   3.953   7.131  0.1657 -0.1852 -0.5782
   49CHL1    C6 3561   2.707   3.960   7.165  0.2354 -0.0577 -0.2966
   49CHL1    H6 3562   2.786   3.943   7.090  0.2622 -1.2541 -0.0253
   49CHL1    C7 3563   2.756   3.983   7.302 -0.0426 -0.2401 -0.5694
   49CHL1   H7A 3564   2.836   3.911   7.329 -0.2576 -1.9858 -4.0930
   49CHL1   H7B 3565   2.804   4.084   7.300  0.7581 -0.5614  0.8147
   49CHL1    C8 3566   2.645   3.966   7.407 -0.1724  0.3293 -0.4650
   49CHL1    H8 3567   2.642   3.855   7.408  3.3157  0.1114 -1.1513
   49CHL1   C14 3568   2.679   4.035   7.539 -0.3256 -0.0908 -0.3292
   49CHL1   H14 3569   2.686   4.144   7.514  0.6554 -0.3736 -1.4247
   49CHL1   C15 3570   2.824   4.012   7.589 -1.0124  0.4677 -0.1572
   49CHL1  H15A 3571   2.867   3.914   7.558 -0.2201  0.9223 -0.5196
   49CHL1  H15B 3572   2.900   4.075   7.538 -0.0781  0.0623  0.6876
   49CHL1   C16 3573   2.817   4.041   7.732  0.2181 -0.3754 -0.0295
   49CHL1  H16A 3574   2.854   3.952   7.786  0.0451 -1.0715 -1.0383
   49CHL1  H16B 3575   2.882   4.130   7.749  0.7620 -0.2443 -2.4550
   49CHL1   C17 3576   2.667   4.078   7.767 -0.3400 -0.1266 -0.0773
   49CHL1   H17 3577   2.672   4.186   7.743  1.5756 -0.4641 -1.4678
   49CHL1   C13 3578   2.584   4.018   7.660 -0.2468  0.7905  0.4606
   49CHL1   C18 3579   2.569   3.858   7.681  0.0996 -0.2795 -0.2805
   49CHL1  H18A 3580   2.671   3.824   7.708  2.1548  5.3561  0.4219
   49CHL1  H18B 3581   2.496   3.840   7.763 -0.6726 -0.4276 -0.9880
   49CHL1  H18C 3582   2.530   3.793   7.599 -1.6163  0.7496 -0.3189
   49CHL1   C12 3583   2.452   4.091   7.611  0.7976 -0.8977  0.8487
   49CHL1  H12A 3584   2.363   4.093   7.677 -0.0686  1.3265 -0.2906
   49CHL1  H12B 3585   2.484   4.195   7.589 -0.7941  0.1212  3.0124
   49CHL1   C11 3586   2.402   4.033   7.476  0.3380 -0.0976 -0.6287
   49CHL1  H11A 3587   2.363   3.932   7.502 -2.5094  1.2764  0.9512
   49CHL1  H11B 3588   2.312   4.091   7.446  0.1368  0.6368  1.2282
   49CHL1    C9 3589   2.511   4.030   7.362 -0.0160 -0.2818 -0.3515
   49CHL1    H9 3590   2.543   4.135   7.342 -2.2193  0.3705 -0.6605
   49CHL1   C10 3591   2.456   3.977   7.223 -0.2260 -0.0828 -0.4781
   49CHL1   C19 3592   2.388   3.840   7.242  0.1432 -0.0417 -0.0835
   49CHL1  H19A 3593   2.437   3.777   7.319 -1.3914 -2.0140 -0.6392
   49CHL1  H19B 3594   2.288   3.859   7.287 -0.8276 -0.0790 -2.1179
   49CHL1  H19C 3595   2.370   3.785   7.147  0.4567  0.7834 -0.6303
   49CHL1    C1 3596   2.354   4.080   7.170 -1.0433  0.0116  0.6658
   49CHL1   H1A 3597   2.265   4.083   7.237 -1.0621 -0.0995  0.6466
   49CHL1   H1B 3598   2.403   4.180   7.166 -1.0112 -0.0414 -0.7843
   49CHL1    C2 3599   2.322   4.052   7.018 -0.7378 -0.7342 -0.3121
   49CHL1   H2A 3600   2.250   4.121   6.971 -0.4526  0.4299  0.9076
   49CHL1   H2B 3601   2.266   3.956   7.019  0.2673 -1.3500 -0.9391
   49CHL1   C20 3602   2.630   4.049   7.907 -0.0828 -0.2346  0.4612
   49CHL1   H20 3603   2.635   3.940   7.930 -0.6216  0.2807  3.3986
   49CHL1   C21 3604   2.486   4.101   7.927  0.8811  0.8678 -0.3697
   49CHL1  H21A 3605   2.454   4.071   8.029 -1.2462 -0.5443 -1.3816
   49CHL1  H21B 3606   2.414   4.037   7.873  0.6486  1.0725 -0.3017
   49CHL1  H21C 3607   2.474   4.209   7.903 -0.5604  0.4841 -1.5062
   49CHL1   C22 3608   2.726   4.122   8.005  0.3740 -0.0729 -0.1482
   49CHL1  H22A 3609   2.832   4.097   7.983  0.5072  1.2531 -1.1877
   49CHL1  H22B 3610   2.727   4.231   7.983 -1.0789 -0.1830 -0.9046
   49CHL1   C23 3611   2.698   4.095   8.162 -0.6658 -0.2577  0.9911
   49CHL1  H23A 3612   2.592   4.113   8.190 -1.1618 -1.9455  0.3231
   49CHL1  H23B 3613   2.721   3.990   8.193  0.8543  0.7151  3.4353
   49CHL1   C24 3614   2.784   4.179   8.259  0.4309  0.9249  0.2800
   49CHL1  H24A 3615   2.893   4.164   8.239  0.5891  1.9104  0.3615
   49CHL1  H24B 3616   2.748   4.280   8.231 -3.1432 -1.0980 -3.6346
   49CHL1   C25 3617   2.738   4.151   8.409 -0.1669 -0.5569 -0.6908
   49CHL1   H25 3618   2.627   4.144   8.410 -0.2268 -0.1604  2.2509
   49CHL1   C26 3619   2.783   4.017   8.458 -0.5021 -0.6552 -0.4652
   49CHL1  H26A 3620   2.732   3.940   8.397 -0.8010  0.3278 -1.5047
   49CHL1  H26B 3621   2.893   4.019   8.443 -0.5125  2.7765 -0.9495
   49CHL1  H26C 3622   2.753   4.000   8.564 -1.3894 -0.6100 -0.6957
   49CHL1   C27 3623   2.774   4.260   8.511  0.1379  0.3811  1.0833
   49CHL1  H27A 3624   2.729   4.224   8.606  0.1211 -1.0584  0.5446
   49CHL1  H27B 3625   2.885   4.275   8.514  0.4042  0.0319 -2.3353
   49CHL1  H27C 3626   2.733   4.356   8.472  0.9184 -0.2495 -1.4614
   50CHL1    C3 3627   1.907   4.193   7.155 -1.1490  0.3646 -0.5571
   50CHL1    H3 3628   2.017   4.190   7.146 -1.0070 -0.5115  1.0455
   50CHL1    O3 3629   1.856   4.159   7.029  0.0990 -0.0467 -0.7239
   50CHL1   H3' 3630   1.761   4.160   7.043  0.3579 -0.0612  1.3616
   50CHL1    C4 3631   1.851   4.099   7.261 -0.3535  1.0907  0.9064
   50CHL1   H4A 3632   1.740   4.093   7.257 -0.2471 -2.2685  0.1560
   50CHL1   H4B 3633   1.881   3.994   7.242  0.5711  1.4854  0.0967
   50CHL1    C5 3634   1.900   4.133   7.400 -0.0656 -0.0354 -0.2175
   50CHL1    C6 3635   1.980   4.062   7.483 -1.3407  0.0204  0.3914
   50CHL1    H6 3636   2.019   3.965   7.449 -1.4690 -0.1442  0.7102
   50CHL1    C7 3637   2.026   4.104   7.622 -0.5730  0.1475  0.4638
   50CHL1   H7A 3638   2.026   4.016   7.690  0.8853  1.3353  2.0992
   50CHL1   H7B 3639   2.130   4.142   7.618 -0.3236 -0.3011  2.0341
   50CHL1    C8 3640   1.933   4.212   7.686  0.9226 -0.3918 -0.1530
   50CHL1    H8 3641   1.834   4.171   7.716  0.3879  0.2106 -1.0235
   50CHL1   C14 3642   2.004   4.264   7.800  0.2683  0.2210 -0.1613
   50CHL1   H14 3643   2.098   4.306   7.758  0.2613  0.7692  0.3671
   50CHL1   C15 3644   2.045   4.164   7.913  0.6249  0.0099 -0.0045
   50CHL1  H15A 3645   1.965   4.091   7.933 -0.8911  1.6430  0.1390
   50CHL1  H15B 3646   2.142   4.115   7.888  0.3463  0.5817 -2.4831
   50CHL1   C16 3647   2.079   4.253   8.033 -0.5101 -0.3159  0.0778
   50CHL1  H16A 3648   2.030   4.220   8.128 -0.9320  1.5308  0.5530
   50CHL1  H16B 3649   2.190   4.253   8.032 -0.3932 -2.2540 -3.4974
   50CHL1   C17 3650   2.018   4.397   7.999  0.2790 -0.3035 -0.3180
   50CHL1   H17 3651   2.106   4.459   7.969 -0.2735  0.2681 -0.7932
   50CHL1   C13 3652   1.929   4.382   7.871  0.1118 -0.0393 -0.3891
   50CHL1   C18 3653   1.792   4.349   7.930  0.5836  0.0102  0.4638
   50CHL1  H18A 3654   1.786   4.269   8.007 -1.0011  0.5612  0.9544
   50CHL1  H18B 3655   1.736   4.441   7.957 -0.4578 -1.0264  1.9982
   50CHL1  H18C 3656   1.728   4.315   7.846 -2.3023  0.1363  2.4881
   50CHL1   C12 3657   1.921   4.496   7.770 -1.1281  0.1725 -0.0685
   50CHL1  H12A 3658   1.882   4.591   7.810 -0.0179  0.0131  1.5240
   50CHL1  H12B 3659   2.026   4.517   7.738 -0.6287 -0.5443  1.0263
   50CHL1   C11 3660   1.850   4.459   7.635  0.3200  0.1071 -0.6868
   50CHL1  H11A 3661   1.742   4.442   7.651  0.4781  1.4303  2.4114
   50CHL1  H11B 3662   1.864   4.543   7.563 -0.2799 -1.9174 -3.3276
   50CHL1    C9 3663   1.915   4.322   7.581 -0.6339  0.1354 -0.3800
   50CHL1    H9 3664   2.016   4.363   7.557  0.1352 -1.4237  0.0986
   50CHL1   C10 3665   1.853   4.274   7.443  0.0907 -0.2256 -0.3079
   50CHL1   C19 3666   1.698   4.268   7.461  0.2919 -0.1466 -0.2904
   50CHL1  H19A 3667   1.632   4.230   7.380 -2.2200 -0.2893  1.6821
   50CHL1  H19B 3668   1.679   4.214   7.556 -0.8392  1.3770  0.3834
   50CHL1  H19C 3669   1.646   4.366   7.464 -1.5740 -0.8758 -3.5757
   50CHL1    C1 3670   1.895   4.372   7.335  0.3376 -0.0100  0.3034
   50CHL1   H1A 3671   1.837   4.462   7.364  0.7274 -0.4999  2.9001
   50CHL1   H1B 3672   2.005   4.384   7.333  0.2079  1.1938 -1.2757
   50CHL1    C2 3673   1.863   4.333   7.191  0.3982 -0.3236  0.2602
   50CHL1   H2A 3674   1.903   4.414   7.126 -2.2122  0.9836  0.1399
   50CHL1   H2B 3675   1.753   4.342   7.180  0.6218  1.3102 -1.0101
   50CHL1   C20 3676   1.982   4.475   8.127  0.4758  0.0232  0.7798
   50CHL1   H20 3677   1.885   4.426   8.152 -0.6904  0.9719 -1.5155
   50CHL1   C21 3678   1.958   4.624   8.096 -0.4161  0.7424 -0.1161
   50CHL1  H21A 3679   1.927   4.684   8.183 -0.3895 -0.3439  0.6634
   50CHL1  H21B 3680   1.872   4.630   8.026 -1.1132 -1.7343  0.4444
   50CHL1  H21C 3681   2.049   4.665   8.047 -0.2576  0.8149  0.2415
   50CHL1   C22 3682   2.076   4.454   8.247  1.1564  0.0931 -0.2769
   50CHL1  H22A 3683   2.086   4.346   8.268 -1.0277  0.1801  1.5959
   50CHL1  H22B 3684   2.173   4.497   8.213  1.0884 -0.0986 -0.7172
   50CHL1   C23 3685   2.034   4.518   8.379  0.2436  0.7387 -0.1694
   50CHL1  H23A 3686   2.081   4.618   8.387 -0.3100  1.0765 -0.9391
   50CHL1  H23B 3687   1.923   4.529   8.370 -0.0892 -1.7362  0.3022
   50CHL1   C24 3688   2.086   4.436   8.501 -0.3865 -0.3171  0.7171
   50CHL1  H24A 3689   2.076   4.327   8.485 -0.2925  0.0642 -2.4747
   50CHL1  H24B 3690   2.196   4.453   8.506 -0.6728  1.7179  0.8744
   50CHL1   C25 3691   2.020   4.492   8.633 -0.9452 -0.8375  0.0108
   50CHL1   H25 3692   1.911   4.506   8.616 -0.3310  2.3094 -2.4087
   50CHL1   C26 3693   2.050   4.399   8.745 -0.3649  0.5232  0.1220
   50CHL1  H26A 3694   2.023   4.296   8.715  0.7227  0.1402  0.4115
   50CHL1  H26B 3695   2.158   4.380   8.764 -0.5119 -1.5595 -0.8987
   50CHL1  H26C 3696   1.990   4.428   8.834 -0.7745 -0.3093  0.1263
   50CHL1   C27 3697   2.079   4.628   8.680  0.2423 -0.2379  1.2184
   50CHL1  H27A 3698   2.072   4.697   8.593  0.7192 -0.2466  1.1713
   50CHL1  H27B 3699   2.019   4.664   8.766  0.0513  1.6004  0.3752
   50CHL1  H27C 3700   2.185   4.610   8.707  0.4501 -0.8560  0.0662
   51CHL1    C3 3701   4.030   4.856   6.909 -0.7148  0.5598 -0.6401
   51CHL1    H3 3702   4.117   4.787   6.908  0.4051  1.9120 -1.8755
   51CHL1    O3 3703   3.957   4.837   6.786 -0.4330  0.0469 -0.0612
   51CHL1   H3' 3704   4.029   4.834   6.723 -0.0224 -3.8185  0.3082
   51CHL1    C4 3705   3.936   4.805   7.018 -0.0062  0.4831  0.1653
   51CHL1   H4A 3706   3.835   4.851   7.021 -0.8893 -1.4167  0.7820
   51CHL1   H4B 3707   3.907   4.702   6.989 -0.6363  0.5278  0.6133
   51CHL1    C5 3708   3.989   4.825   7.163 -0.1274  0.1159  0.5280
   51CHL1    C6 3709   3.994   4.725   7.254 -0.7817 -0.7969 -0.1703
   51CHL1    H6 3710   3.949   4.627   7.230 -1.3647 -0.7414  0.6680
   51CHL1    C7 3711   4.034   4.744   7.402 -0.0122 -0.3062  0.4588
   51CHL1   H7A 3712   3.972   4.692   7.478 -1.8681  1.8962  0.5706
   51CHL1   H7B 3713   4.134   4.699   7.419 -0.7654 -1.6053  1.7203
   51CHL1    C8 3714   4.050   4.898   7.433 -0.4260  0.4698  0.1682
   51CHL1    H8 3715   3.954   4.953   7.447 -0.4525  0.1779  1.2140
   51CHL1   C14 3716   4.110   4.910   7.568 -0.5229  0.2884  0.6361
   51CHL1   H14 3717   4.198   4.842   7.572 -0.7026  0.1091  2.7497
   51CHL1   C15 3718   4.039   4.853   7.693  0.3360 -0.8077  0.2918
   51CHL1  H15A 3719   3.933   4.886   7.698  0.4799  0.0686 -1.3752
   51CHL1  H15B 3720   4.047   4.742   7.689 -2.5813 -1.1473  1.8036
   51CHL1   C16 3721   4.120   4.899   7.813 -0.5102 -0.5382  0.0105
   51CHL1  H16A 3722   4.053   4.941   7.891 -0.1300 -0.7140  0.4336
   51CHL1  H16B 3723   4.189   4.825   7.858 -1.1776 -0.5639  1.0449
   51CHL1   C17 3724   4.218   5.007   7.755  0.6967  0.6520 -0.4804
   51CHL1   H17 3725   4.311   4.958   7.720  0.4827  0.7657 -1.2251
   51CHL1   C13 3726   4.160   5.047   7.612  0.2713 -0.6642 -0.2534
   51CHL1   C18 3727   4.036   5.145   7.631 -0.5581  0.4350 -0.4464
   51CHL1  H18A 3728   3.958   5.097   7.694 -0.6883  0.4679 -0.5818
   51CHL1  H18B 3729   4.059   5.243   7.678  0.1332 -0.0419  0.2252
   51CHL1  H18C 3730   3.981   5.154   7.534 -0.3268 -1.6751 -0.8249
   51CHL1   C12 3731   4.263   5.103   7.510 -0.0475 -0.3372 -0.1771
   51CHL1  H12A 3732   4.290   5.209   7.529 -0.6320 -0.2938  0.4737
   51CHL1  H12B 3733   4.357   5.048   7.530 -1.3068 -2.2458  0.8820
   51CHL1   C11 3734   4.197   5.099   7.369 -0.1635  0.4167 -0.4527
   51CHL1  H11A 3735   4.112   5.170   7.376 -2.1412 -1.9393  1.4983
   51CHL1  H11B 3736   4.275   5.137   7.300  0.4613  1.2548  0.6775
   51CHL1    C9 3737   4.126   4.961   7.321 -0.3537  0.1633 -0.1977
   51CHL1    H9 3738   4.219   4.903   7.303 -0.3647 -0.0162  0.3115
   51CHL1   C10 3739   4.038   4.964   7.191  0.0591 -0.5743 -0.4621
   51CHL1   C19 3740   3.908   5.057   7.214  0.2177  0.2251  0.0868
   51CHL1  H19A 3741   3.836   5.055   7.129  0.6020 -0.1425 -0.2333
   51CHL1  H19B 3742   3.847   5.009   7.293 -1.8468  1.1839 -0.8496
   51CHL1  H19C 3743   3.936   5.162   7.237 -0.7059  0.2251  1.3017
   51CHL1    C1 3744   4.130   5.020   7.072  0.3265  0.2217  0.1719
   51CHL1   H1A 3745   4.156   5.126   7.092  1.0714  0.1337 -0.2790
   51CHL1   H1B 3746   4.226   4.964   7.078 -0.3641 -1.3542 -2.0225
   51CHL1    C2 3747   4.071   5.003   6.933 -0.2121 -0.3848 -0.7487
   51CHL1   H2A 3748   4.132   5.046   6.850 -2.2920  3.0237 -0.6795
   51CHL1   H2B 3749   3.968   5.045   6.939 -0.5162 -0.9953 -1.4643
   51CHL1   C20 3750   4.246   5.112   7.867 -0.0582 -0.5845  0.3794
   51CHL1   H20 3751   4.150   5.165   7.886  0.5356 -0.0200  2.0881
   51CHL1   C21 3752   4.344   5.212   7.815  0.4924 -0.6077  0.2084
   51CHL1  H21A 3753   4.443   5.179   7.777  0.4782  0.0990 -0.4674
   51CHL1  H21B 3754   4.359   5.294   7.888  2.7637  0.3835 -1.2662
   51CHL1  H21C 3755   4.295   5.260   7.729  1.9365  1.3084  0.3865
   51CHL1   C22 3756   4.298   5.045   7.999 -0.5113 -0.6330 -0.2401
   51CHL1  H22A 3757   4.242   4.959   8.041  1.4197 -1.1392  1.4284
   51CHL1  H22B 3758   4.400   5.008   7.976 -1.6131 -2.9843 -1.7243
   51CHL1   C23 3759   4.290   5.141   8.116  0.3435  0.5118  0.4087
   51CHL1  H23A 3760   4.348   5.236   8.120 -1.0094  1.3270  1.6616
   51CHL1  H23B 3761   4.182   5.159   8.136 -0.4700 -4.0833  1.3792
   51CHL1   C24 3762   4.348   5.060   8.243 -0.2925 -1.0156  0.4050
   51CHL1  H24A 3763   4.299   4.962   8.259 -1.6283 -0.2909  0.8881
   51CHL1  H24B 3764   4.453   5.048   8.207 -0.4106 -0.5842 -0.1053
   51CHL1   C25 3765   4.371   5.146   8.364  0.7650  0.0815 -0.7935
   51CHL1   H25 3766   4.386   5.253   8.338 -0.5983  0.6240  0.4774
   51CHL1   C26 3767   4.253   5.153   8.463  0.1604 -0.1074 -0.8229
   51CHL1  H26A 3768   4.258   5.236   8.536  0.8157 -0.1160 -0.8553
   51CHL1  H26B 3769   4.158   5.170   8.408 -1.6542 -0.5442  2.0054
   51CHL1  H26C 3770   4.247   5.059   8.522 -3.1731 -0.1323 -1.0374
   51CHL1   C27 3771   4.497   5.102   8.444  0.0787  0.6224 -0.5381
   51CHL1  H27A 3772   4.518   5.139   8.547  0.3097  0.1368 -0.4055
   51CHL1  H27B 3773   4.495   4.992   8.451 -0.1518  0.6532 -0.0740
   51CHL1  H27C 3774   4.586   5.106   8.378  0.4533  0.5126 -0.0468
   52CHL1    C3 3775   6.228   4.731   6.949  0.3097 -0.2724 -1.1146
   52CHL1    H3 3776   6.339   4.744   6.949  0.0449  3.0752  0.6835
   52CHL1    O3 3777   6.201   4.726   6.815 -0.0936  0.4967  0.6845
   52CHL1   H3' 3778   6.258   4.787   6.767 -0.2019 -0.5883 -0.9182
   52CHL1    C4 3779   6.187   4.606   7.032 -0.1801 -0.2182  0.9293
   52CHL1   H4A 3780   6.076   4.601   7.026 -0.2198 -0.4987  1.7508
   52CHL1   H4B 3781   6.228   4.521   6.973  0.5102  1.1694 -0.6431
   52CHL1    C5 3782   6.220   4.615   7.185 -0.2888 -0.7670 -0.6383
   52CHL1    C6 3783   6.297   4.529   7.254  0.3182 -0.3786  0.4265
   52CHL1    H6 3784   6.332   4.444   7.194  2.1617  1.2285 -0.8757
   52CHL1    C7 3785   6.303   4.519   7.402 -1.5930  0.3545  0.7194
   52CHL1   H7A 3786   6.293   4.414   7.439 -0.8647  0.5090  1.3633
   52CHL1   H7B 3787   6.404   4.556   7.428 -2.0459  2.3103 -0.1368
   52CHL1    C8 3788   6.212   4.617   7.472 -0.0770 -0.0733 -0.1295
   52CHL1    H8 3789   6.112   4.570   7.481  1.1588 -2.8825  0.1306
   52CHL1   C14 3790   6.276   4.644   7.612  0.3428 -0.0423  0.0483
   52CHL1   H14 3791   6.371   4.698   7.591 -0.2070  1.3771  1.0997
   52CHL1   C15 3792   6.314   4.518   7.695 -0.5727 -0.0939 -0.4938
   52CHL1  H15A 3793   6.234   4.441   7.690  0.3163 -0.9306 -2.7106
   52CHL1  H15B 3794   6.405   4.469   7.654 -1.3858 -1.8056 -0.3717
   52CHL1   C16 3795   6.335   4.576   7.835  0.5650 -0.4111  0.0646
   52CHL1  H16A 3796   6.278   4.520   7.912 -0.7021  1.4872  0.5614
   52CHL1  H16B 3797   6.439   4.577   7.876  0.7190  1.0055 -0.3049
   52CHL1   C17 3798   6.284   4.726   7.838  0.1731  0.5113  1.1054
   52CHL1   H17 3799   6.364   4.803   7.824 -0.0319  0.6691  0.7926
   52CHL1   C13 3800   6.199   4.738   7.706 -0.3053 -0.6524  0.3687
   52CHL1   C18 3801   6.059   4.675   7.732 -0.0610 -0.2228  0.0366
   52CHL1  H18A 3802   6.074   4.580   7.789  1.6631  0.0318  0.0625
   52CHL1  H18B 3803   5.997   4.742   7.796  1.0665  0.8547  0.0321
   52CHL1  H18C 3804   6.011   4.661   7.632 -0.5599  2.6249 -0.2055
   52CHL1   C12 3805   6.195   4.871   7.630 -0.4455  0.5310  0.6125
   52CHL1  H12A 3806   6.126   4.942   7.679  1.2043  1.1898  2.0868
   52CHL1  H12B 3807   6.299   4.910   7.616 -0.5342  0.1680 -1.2940
   52CHL1   C11 3808   6.132   4.861   7.490 -0.2539 -1.0712 -0.2133
   52CHL1  H11A 3809   6.031   4.824   7.518 -0.2109  0.4464  2.2107
   52CHL1  H11B 3810   6.116   4.964   7.453 -1.9011 -1.4519 -0.6678
   52CHL1    C9 3811   6.197   4.749   7.403  0.0622 -0.8465 -0.5999
   52CHL1    H9 3812   6.301   4.786   7.395 -0.4902  0.6619 -1.1629
   52CHL1   C10 3813   6.144   4.732   7.255 -0.4527 -0.0913 -0.1469
   52CHL1   C19 3814   5.985   4.724   7.261  0.1985  0.1759  0.6387
   52CHL1  H19A 3815   5.943   4.725   7.158 -0.7277  0.9936  1.0105
   52CHL1  H19B 3816   5.947   4.634   7.314 -0.7787  0.8696  1.1440
   52CHL1  H19C 3817   5.950   4.819   7.308  2.1744  1.2114  0.1604
   52CHL1    C1 3818   6.181   4.857   7.163 -0.0973  0.3875  0.2597
   52CHL1   H1A 3819   6.146   4.946   7.218 -2.0827 -0.1136 -0.0981
   52CHL1   H1B 3820   6.290   4.876   7.171 -0.0630  2.8997 -3.4142
   52CHL1    C2 3821   6.162   4.854   7.013  0.1352  0.4837  0.8932
   52CHL1   H2A 3822   6.182   4.951   6.963 -1.8091  0.4051 -0.1385
   52CHL1   H2B 3823   6.053   4.839   6.998  0.0623  0.7471  1.1579
   52CHL1   C20 3824   6.210   4.763   7.967  0.1356 -0.3889  0.2589
   52CHL1   H20 3825   6.134   4.686   7.992  0.2629 -0.0046  1.9930
   52CHL1   C21 3826   6.146   4.903   7.974 -0.5531  0.3871 -0.7605
   52CHL1  H21A 3827   6.219   4.987   7.971  1.3185 -1.0040  1.5677
   52CHL1  H21B 3828   6.071   4.905   8.056 -0.3508  2.2018 -0.5772
   52CHL1  H21C 3829   6.087   4.906   7.880 -0.1064  2.7759 -1.0248
   52CHL1   C22 3830   6.309   4.746   8.084  0.9002  0.4558 -0.0274
   52CHL1  H22A 3831   6.382   4.669   8.053  0.0801  0.0882 -1.1501
   52CHL1  H22B 3832   6.366   4.838   8.107  0.9666  0.9735 -2.0234
   52CHL1   C23 3833   6.233   4.709   8.212 -0.2808  0.5061 -0.1789
   52CHL1  H23A 3834   6.152   4.776   8.250 -0.7897 -0.1362 -0.1003
   52CHL1  H23B 3835   6.173   4.616   8.202  0.4607 -0.5751  3.6878
   52CHL1   C24 3836   6.325   4.668   8.322 -0.3195 -0.2886 -0.9540
   52CHL1  H24A 3837   6.311   4.562   8.351 -2.6123  0.7163  2.1694
   52CHL1  H24B 3838   6.431   4.682   8.291 -0.7188 -1.6032 -3.1065
   52CHL1   C25 3839   6.307   4.748   8.455  0.0076 -0.4588 -0.1632
   52CHL1   H25 3840   6.204   4.720   8.487  0.2633 -0.4118  0.7497
   52CHL1   C26 3841   6.411   4.703   8.559 -0.0969  0.0582 -0.1795
   52CHL1  H26A 3842   6.509   4.736   8.519  0.9503  0.1148  2.2674
   52CHL1  H26B 3843   6.396   4.741   8.662 -0.8006  3.6908 -1.4856
   52CHL1  H26C 3844   6.436   4.595   8.546 -2.2424 -0.3457 -1.3939
   52CHL1   C27 3845   6.303   4.900   8.439  0.9539 -0.1028  0.6107
   52CHL1  H27A 3846   6.224   4.933   8.367  1.6476  0.1858 -0.0377
   52CHL1  H27B 3847   6.276   4.942   8.538  1.3979 -0.6985  0.9868
   52CHL1  H27C 3848   6.403   4.942   8.413  0.1689  1.0815 -0.6603
   53CHL1    C3 3849   2.114   0.560   7.128 -0.4543  0.3691 -0.1288
   53CHL1    H3 3850   2.058   0.499   7.202 -3.0344  1.9927 -0.6461
   53CHL1    O3 3851   2.052   0.524   7.005 -0.1295 -0.1990  0.6465
   53CHL1   H3' 3852   2.048   0.598   6.944  1.8567 -1.1047 -0.7014
   53CHL1    C4 3853   2.106   0.714   7.154  0.2683  0.0354  0.6987
   53CHL1   H4A 3854   2.160   0.764   7.071 -0.8265 -1.3833 -0.9267
   53CHL1   H4B 3855   1.997   0.733   7.145  0.0485 -1.5736 -0.5190
   53CHL1    C5 3856   2.159   0.749   7.287  0.5638 -0.6877 -0.3359
   53CHL1    C6 3857   2.086   0.802   7.386 -0.2821 -0.3930  0.4179
   53CHL1    H6 3858   1.980   0.826   7.371 -0.2862  0.4843  1.6974
   53CHL1    C7 3859   2.138   0.854   7.514  0.8163  0.1571  0.2369
   53CHL1   H7A 3860   2.091   0.953   7.531  0.8586  0.0746  0.8372
   53CHL1   H7B 3861   2.095   0.786   7.591 -2.5262  0.7366 -0.9596
   53CHL1    C8 3862   2.287   0.855   7.524 -0.7908 -0.1351  0.9733
   53CHL1    H8 3863   2.318   0.940   7.460 -0.3617 -1.1246 -0.1622
   53CHL1   C14 3864   2.340   0.883   7.657  0.4177  0.4616  0.1768
   53CHL1   H14 3865   2.289   0.803   7.715  0.0558  0.4307 -0.1767
   53CHL1   C15 3866   2.286   1.001   7.730 -0.1842  0.0198  0.3355
   53CHL1  H15A 3867   2.284   1.092   7.666 -1.6371 -0.2279 -0.0065
   53CHL1  H15B 3868   2.184   0.971   7.765 -0.2689 -2.6636 -1.9225
   53CHL1   C16 3869   2.376   1.023   7.849 -0.8895 -0.8304  0.8784
   53CHL1  H16A 3870   2.391   1.133   7.841  1.2095 -1.1768 -4.6021
   53CHL1  H16B 3871   2.315   1.001   7.939 -1.9053  0.2090  0.4712
   53CHL1   C17 3872   2.494   0.920   7.835  0.2068 -0.0411 -0.6667
   53CHL1   H17 3873   2.453   0.837   7.895 -2.7503  1.8737  0.1715
   53CHL1   C13 3874   2.486   0.878   7.685 -0.0345  0.0401 -0.0137
   53CHL1   C18 3875   2.557   0.986   7.588 -0.2425 -0.5984 -0.0912
   53CHL1  H18A 3876   2.668   0.979   7.598 -0.2028  0.0820 -0.0100
   53CHL1  H18B 3877   2.522   0.975   7.484  1.1888  2.2316 -0.9705
   53CHL1  H18C 3878   2.521   1.089   7.609 -1.4869 -1.2423  1.0733
   53CHL1   C12 3879   2.529   0.738   7.647  0.5895 -1.0823  0.2531
   53CHL1  H12A 3880   2.638   0.732   7.669  0.5168  1.1672  1.5134
   53CHL1  H12B 3881   2.468   0.678   7.718  0.4358  0.1102  1.1557
   53CHL1   C11 3882   2.494   0.704   7.500  0.4414 -0.3699 -0.1657
   53CHL1  H11A 3883   2.560   0.755   7.428 -1.3457  0.8360 -1.0145
   53CHL1  H11B 3884   2.522   0.598   7.484  1.1019 -0.4265  1.2338
   53CHL1    C9 3885   2.342   0.728   7.460 -0.5761  0.2200 -0.2489
   53CHL1    H9 3886   2.288   0.647   7.513 -1.4669  0.0429 -1.3911
   53CHL1   C10 3887   2.308   0.711   7.307  0.0815  0.1482 -0.5329
   53CHL1   C19 3888   2.396   0.798   7.219 -0.5956  0.0199  0.6325
   53CHL1  H19A 3889   2.371   0.770   7.114  0.3574 -2.1428  0.9156
   53CHL1  H19B 3890   2.382   0.907   7.233 -1.5554  0.2645 -1.8111
   53CHL1  H19C 3891   2.503   0.769   7.223 -0.7046 -0.2241  2.5474
   53CHL1    C1 3892   2.324   0.557   7.265 -0.0329  0.2458  0.3666
   53CHL1   H1A 3893   2.432   0.528   7.265 -0.8644 -3.2450  0.3669
   53CHL1   H1B 3894   2.272   0.486   7.333 -0.6190  0.4496  0.1354
   53CHL1    C2 3895   2.264   0.522   7.133 -0.2429 -0.5827  0.3471
   53CHL1   H2A 3896   2.263   0.412   7.120 -0.6484 -0.5293 -0.1159
   53CHL1   H2B 3897   2.310   0.575   7.047 -0.4225 -1.7933 -0.5114
   53CHL1   C20 3898   2.621   0.980   7.898  0.3998  0.2397 -0.0641
   53CHL1   H20 3899   2.671   1.054   7.832 -2.0437  1.2014 -0.9413
   53CHL1   C21 3900   2.717   0.864   7.917 -0.5624  0.0316  0.7918
   53CHL1  H21A 3901   2.677   0.793   7.992 -3.3788  0.4398 -0.2271
   53CHL1  H21B 3902   2.814   0.908   7.949  0.2845  0.0016 -1.5317
   53CHL1  H21C 3903   2.753   0.811   7.826 -0.8789 -0.3944  0.9144
   53CHL1   C22 3904   2.601   1.047   8.033  0.0579  0.0980  0.2408
   53CHL1  H22A 3905   2.515   1.117   8.035  0.6671  0.8433  1.0691
   53CHL1  H22B 3906   2.580   0.971   8.111  0.7411  0.7106  1.0534
   53CHL1   C23 3907   2.724   1.118   8.085  0.3593  0.5561  0.2154
   53CHL1  H23A 3908   2.818   1.060   8.073 -0.0691 -0.6289  2.1436
   53CHL1  H23B 3909   2.740   1.213   8.028 -0.0586  0.7773  0.4634
   53CHL1   C24 3910   2.717   1.159   8.233 -0.7808  0.3755 -0.4378
   53CHL1  H24A 3911   2.610   1.180   8.259 -1.2382 -0.0764 -1.8842
   53CHL1  H24B 3912   2.751   1.082   8.305  0.2412  0.2652 -1.0238
   53CHL1   C25 3913   2.802   1.292   8.277 -0.6480  0.4857  0.4298
   53CHL1   H25 3914   2.779   1.377   8.210 -0.4267 -0.5173 -0.9669
   53CHL1   C26 3915   2.781   1.328   8.422 -0.5217  0.2514 -0.6048
   53CHL1  H26A 3916   2.860   1.396   8.459  1.7051 -1.1016 -2.5645
   53CHL1  H26B 3917   2.677   1.366   8.437 -0.3205  1.7760 -2.6208
   53CHL1  H26C 3918   2.783   1.232   8.478  0.4398  1.6422  1.8862
   53CHL1   C27 3919   2.957   1.261   8.248  0.2286 -0.0253 -0.3080
   53CHL1  H27A 3920   2.962   1.247   8.138 -1.9507  2.1752 -0.7662
   53CHL1  H27B 3921   3.027   1.333   8.295  0.6217 -0.8086  0.3230
   53CHL1  H27C 3922   2.976   1.170   8.309  0.6927 -0.8320 -1.5932
   54CHL1    C3 3923   1.869   2.511   7.022 -0.1525  0.3507 -0.0944
   54CHL1    H3 3924   1.883   2.402   7.037  0.5177  0.5507  0.8058
   54CHL1    O3 3925   1.801   2.522   6.899 -0.8376  0.7698 -0.3771
   54CHL1   H3' 3926   1.730   2.587   6.905 -0.0628  2.0130 -2.8809
   54CHL1    C4 3927   1.788   2.560   7.142  0.3189  0.1395  0.7330
   54CHL1   H4A 3928   1.768   2.668   7.124 -1.6190 -0.4691 -1.2553
   54CHL1   H4B 3929   1.684   2.523   7.152  0.2095  0.3037  0.2346
   54CHL1    C5 3930   1.866   2.547   7.273  0.3316 -0.6975 -0.3772
   54CHL1    C6 3931   1.815   2.482   7.377 -0.0549 -0.2664  0.1050
   54CHL1    H6 3932   1.711   2.446   7.371  0.0611 -0.4887 -4.8777
   54CHL1    C7 3933   1.880   2.488   7.518 -0.1457  1.2770 -0.0082
   54CHL1   H7A 3934   1.801   2.509   7.593 -1.0101  1.8858 -1.0452
   54CHL1   H7B 3935   1.919   2.387   7.545  0.1265  1.7151  1.2661
   54CHL1    C8 3936   2.007   2.582   7.525 -0.6264  0.5970  0.6632
   54CHL1    H8 3937   1.970   2.685   7.547 -3.5167 -0.1328 -0.2494
   54CHL1   C14 3938   2.094   2.537   7.643 -0.1245  0.0228  0.5372
   54CHL1   H14 3939   2.144   2.443   7.611  2.4667  1.9206 -1.4137
   54CHL1   C15 3940   2.024   2.527   7.774 -0.0919  0.4295  1.0977
   54CHL1  H15A 3941   1.964   2.620   7.787  0.8054  1.5952 -2.1777
   54CHL1  H15B 3942   1.953   2.442   7.785  0.2983 -0.0417  0.0085
   54CHL1   C16 3943   2.135   2.525   7.875 -0.3911 -0.3942 -0.6592
   54CHL1  H16A 3944   2.105   2.602   7.949 -0.1734  0.8274 -1.8005
   54CHL1  H16B 3945   2.152   2.432   7.933 -0.9250 -0.0617  0.0386
   54CHL1   C17 3946   2.266   2.569   7.801 -0.6993 -0.2252 -0.3206
   54CHL1   H17 3947   2.319   2.478   7.765 -0.4488 -0.3554  0.3684
   54CHL1   C13 3948   2.223   2.624   7.664 -0.7858 -0.2961 -0.4043
   54CHL1   C18 3949   2.180   2.778   7.683  0.0034  0.0037  0.0043
   54CHL1  H18A 3950   2.108   2.823   7.612 -0.3353 -2.6042 -1.4199
   54CHL1  H18B 3951   2.144   2.789   7.788 -0.4500 -0.1355 -0.1352
   54CHL1  H18C 3952   2.266   2.847   7.673 -0.3626  0.3824 -0.5946
   54CHL1   C12 3953   2.315   2.618   7.542  0.0944  0.4395  0.2276
   54CHL1  H12A 3954   2.398   2.692   7.545 -0.4444  1.0313  1.7222
   54CHL1  H12B 3955   2.363   2.518   7.533 -1.4276 -0.1906 -1.5311
   54CHL1   C11 3956   2.224   2.657   7.418  0.0712  0.2744 -0.0102
   54CHL1  H11A 3957   2.201   2.765   7.421  0.3377  0.3791 -1.2969
   54CHL1  H11B 3958   2.292   2.650   7.330  0.0188  1.6141 -0.1698
   54CHL1    C9 3959   2.090   2.575   7.397  0.0383 -0.5708  0.2295
   54CHL1    H9 3960   2.125   2.470   7.381  1.9801  0.3493 -2.2647
   54CHL1   C10 3961   2.007   2.615   7.278 -0.0093 -0.2132  0.8587
   54CHL1   C19 3962   1.996   2.770   7.278  0.2932 -0.4141  0.5114
   54CHL1  H19A 3963   1.920   2.804   7.205  1.2033 -2.5444 -1.5741
   54CHL1  H19B 3964   1.986   2.826   7.373 -0.5527  0.9841 -0.3752
   54CHL1  H19C 3965   2.088   2.810   7.230 -0.5606 -0.6233 -1.3746
   54CHL1    C1 3966   2.077   2.555   7.150  0.0466 -0.2012 -0.4600
   54CHL1   H1A 3967   2.177   2.603   7.148  0.4035 -0.7544  1.6668
   54CHL1   H1B 3968   2.084   2.444   7.158 -0.8794 -0.1956  0.7409
   54CHL1    C2 3969   2.004   2.577   7.018 -0.2164 -0.5193 -0.0725
   54CHL1   H2A 3970   2.068   2.553   6.931 -0.5208 -1.2866 -0.0943
   54CHL1   H2B 3971   1.991   2.687   7.012 -1.7566 -0.6987 -0.4924
   54CHL1   C20 3972   2.368   2.640   7.885  0.5620 -0.0038 -0.4212
   54CHL1   H20 3973   2.326   2.739   7.912  2.3661  0.9758 -1.0429
   54CHL1   C21 3974   2.506   2.663   7.807 -0.0834  0.2717  0.2473
   54CHL1  H21A 3975   2.536   2.566   7.762  1.0434  0.5298  0.4134
   54CHL1  H21B 3976   2.590   2.706   7.866  1.4351 -2.5282  0.3122
   54CHL1  H21C 3977   2.492   2.738   7.725 -1.1112  0.9812  1.0441
   54CHL1   C22 3978   2.392   2.567   8.021 -0.2748 -0.3672  0.7381
   54CHL1  H22A 3979   2.300   2.567   8.084 -1.3999 -0.0163 -0.8253
   54CHL1  H22B 3980   2.399   2.459   7.996 -1.1269 -0.5370  1.1898
   54CHL1   C23 3981   2.518   2.616   8.093 -0.6833  0.0361 -0.3863
   54CHL1  H23A 3982   2.612   2.573   8.053 -1.3144 -1.1901 -0.5935
   54CHL1  H23B 3983   2.523   2.727   8.092 -0.5899  0.0544  0.9553
   54CHL1   C24 3984   2.514   2.562   8.244  0.6156  0.0388  0.2104
   54CHL1  H24A 3985   2.418   2.587   8.294  1.1383  0.6002  0.9520
   54CHL1  H24B 3986   2.511   2.451   8.237 -0.5417  0.1032 -0.6834
   54CHL1   C25 3987   2.633   2.607   8.326  0.6577  0.3686  1.0790
   54CHL1   H25 3988   2.729   2.584   8.275  0.7775  1.8535  0.5914
   54CHL1   C26 3989   2.619   2.756   8.347 -0.1818 -0.7115  0.3555
   54CHL1  H26A 3990   2.652   2.806   8.254 -2.8455 -1.2455 -0.9854
   54CHL1  H26B 3991   2.514   2.787   8.366  0.1332  0.7737 -0.2038
   54CHL1  H26C 3992   2.694   2.792   8.420  1.6168 -0.4076 -1.5420
   54CHL1   C27 3993   2.648   2.529   8.455 -0.3191 -0.3470  0.4604
   54CHL1  H27A 3994   2.559   2.536   8.522  1.6174  2.2081  3.0295
   54CHL1  H27B 3995   2.670   2.426   8.419  1.1854  0.4305 -1.0106
   54CHL1  H27C 3996   2.736   2.573   8.507 -0.4159  1.0453 -0.4858
   55CHL1    C3 3997   0.631   3.801   7.113 -0.1184 -0.2349 -0.0577
   55CHL1    H3 3998   0.543   3.863   7.139 -0.9555 -1.1163 -0.6690
   55CHL1    O3 3999   0.689   3.844   6.990  0.2846  0.7058  0.2681
   55CHL1   H3' 4000   0.744   3.771   6.962 -1.4023 -0.2766 -0.6546
   55CHL1    C4 4001   0.743   3.788   7.222  0.1148 -0.0951 -0.2695
   55CHL1   H4A 4002   0.813   3.710   7.185 -1.5483 -2.5304  1.3934
   55CHL1   H4B 4003   0.793   3.885   7.241 -1.0167  0.6886 -1.1974
   55CHL1    C5 4004   0.676   3.740   7.351  0.6027 -0.2443  0.1949
   55CHL1    C6 4005   0.682   3.813   7.463 -0.0484 -0.2473  0.2918
   55CHL1    H6 4006   0.748   3.900   7.463 -0.4674  0.0810 -0.4360
   55CHL1    C7 4007   0.626   3.769   7.597 -0.2904 -0.2573  0.7743
   55CHL1   H7A 4008   0.708   3.775   7.672 -0.1038 -0.8828  0.6321
   55CHL1   H7B 4009   0.539   3.832   7.625 -1.1060  0.0359 -2.0136
   55CHL1    C8 4010   0.585   3.612   7.588  0.4920 -0.8162  0.2985
   55CHL1    H8 4011   0.680   3.555   7.586  2.0840  1.6686  0.7859
   55CHL1   C14 4012   0.508   3.577   7.714  0.3387  0.5893 -0.1509
   55CHL1   H14 4013   0.419   3.643   7.717  0.1244  0.5598 -2.9626
   55CHL1   C15 4014   0.576   3.592   7.850 -0.3534 -0.0086  0.1563
   55CHL1  H15A 4015   0.672   3.536   7.852 -0.1518  0.3027 -0.5814
   55CHL1  H15B 4016   0.599   3.699   7.867 -1.3616  0.5159 -1.5290
   55CHL1   C16 4017   0.479   3.525   7.949 -0.2254 -0.2106  1.0301
   55CHL1  H16A 4018   0.532   3.447   8.007  0.2483 -2.1034 -1.7364
   55CHL1  H16B 4019   0.430   3.584   8.029 -1.4320 -0.9543  0.8664
   55CHL1   C17 4020   0.372   3.448   7.858 -0.3301  0.1627  0.5885
   55CHL1   H17 4021   0.284   3.512   7.837 -1.4908 -2.1075 -2.2439
   55CHL1   C13 4022   0.435   3.439   7.713  0.8316  0.1435  0.5766
   55CHL1   C18 4023   0.536   3.316   7.705  0.4758 -0.2223 -0.3245
   55CHL1  H18A 4024   0.486   3.222   7.673 -1.0034 -0.6436  2.8445
   55CHL1  H18B 4025   0.620   3.337   7.634  2.5179 -0.3764  1.9114
   55CHL1  H18C 4026   0.580   3.305   7.806 -0.0814  0.0286 -0.0543
   55CHL1   C12 4027   0.335   3.440   7.599 -0.1632 -0.3156 -0.1001
   55CHL1  H12A 4028   0.274   3.348   7.585  2.1485 -1.6056 -2.9917
   55CHL1  H12B 4029   0.270   3.529   7.612 -0.1452 -0.4416  0.8806
   55CHL1   C11 4030   0.409   3.468   7.461  0.0644 -0.4072 -0.3207
   55CHL1  H11A 4031   0.464   3.377   7.428 -0.5370 -0.0356 -2.5111
   55CHL1  H11B 4032   0.332   3.484   7.382  1.0317 -0.0357 -1.2031
   55CHL1    C9 4033   0.504   3.590   7.459  0.6781  0.2551  0.1585
   55CHL1    H9 4034   0.433   3.676   7.461 -0.9401 -1.0579  0.4685
   55CHL1   C10 4035   0.592   3.610   7.337 -0.4048  0.0820 -0.0994
   55CHL1   C19 4036   0.691   3.489   7.317 -0.1729  0.6838 -0.1906
   55CHL1  H19A 4037   0.746   3.471   7.412  0.1126  0.9555 -0.3029
   55CHL1  H19B 4038   0.628   3.401   7.289  1.2406 -0.5797  0.4576
   55CHL1  H19C 4039   0.764   3.502   7.233  1.7696  0.6076  1.4180
   55CHL1    C1 4040   0.503   3.623   7.216  0.6970  0.9966 -0.4915
   55CHL1   H1A 4041   0.456   3.526   7.191  0.2330  0.5463  1.9174
   55CHL1   H1B 4042   0.416   3.690   7.230 -0.1520 -0.0439 -0.7087
   55CHL1    C2 4043   0.569   3.662   7.085  0.0145 -0.4267 -0.0211
   55CHL1   H2A 4044   0.488   3.669   7.009 -0.0520  0.4795  0.1255
   55CHL1   H2B 4045   0.642   3.589   7.043  0.6842  1.6757 -2.8359
   55CHL1   C20 4046   0.309   3.327   7.935  0.4735 -0.6145  0.3541
   55CHL1   H20 4047   0.401   3.272   7.967  2.1756  2.1619  0.5783
   55CHL1   C21 4048   0.206   3.264   7.843  0.6592 -0.3844  0.3915
   55CHL1  H21A 4049   0.134   3.341   7.809 -1.0939 -0.9807  2.5537
   55CHL1  H21B 4050   0.131   3.191   7.880 -1.3044  0.8873 -0.8759
   55CHL1  H21C 4051   0.264   3.226   7.756  1.0154  0.3564  0.2998
   55CHL1   C22 4052   0.231   3.366   8.062  0.4829 -0.2100 -0.3391
   55CHL1  H22A 4053   0.294   3.426   8.132  1.2248 -1.3042 -0.0384
   55CHL1  H22B 4054   0.143   3.422   8.025  0.2554 -2.2057 -3.1366
   55CHL1   C23 4055   0.190   3.247   8.162 -0.0306 -0.1633  0.0834
   55CHL1  H23A 4056   0.134   3.170   8.105  1.4179 -1.4040  0.2747
   55CHL1  H23B 4057   0.280   3.197   8.203  0.1106  0.7645  0.9453
   55CHL1   C24 4058   0.102   3.291   8.278  0.1776 -0.0605 -0.1679
   55CHL1  H24A 4059   0.154   3.374   8.332  0.6034 -0.2396 -0.3018
   55CHL1  H24B 4060   0.026   3.348   8.220  1.7648  1.4180 -0.8666
   55CHL1   C25 4061   0.043   3.185   8.370 -0.7451  0.1021 -0.1294
   55CHL1   H25 4062  -0.013   3.107   8.314 -0.2322 -2.5765  2.8299
   55CHL1   C26 4063   0.164   3.107   8.427 -0.0421  0.0456  0.3717
   55CHL1  H26A 4064   0.231   3.058   8.354 -1.4547  0.6785 -1.4266
   55CHL1  H26B 4065   0.227   3.178   8.486 -0.0254 -1.8724  2.8266
   55CHL1  H26C 4066   0.116   3.034   8.495 -0.4150 -2.0185 -1.9723
   55CHL1   C27 4067  -0.038   3.253   8.479 -0.0330  0.3808  0.4696
   55CHL1  H27A 4068  -0.122   3.195   8.524 -1.3413  2.9025  1.4661
   55CHL1  H27B 4069   0.023   3.288   8.565 -0.0429  1.0881  0.1891
   55CHL1  H27C 4070  -0.087   3.343   8.437  0.8873  1.1361  0.9708
   56CHL1    C3 4071   6.426   3.638   6.927  1.0329 -0.1961  0.2808
   56CHL1    H3 4072   6.522   3.597   6.964 -1.6262 -4.2905  3.6146
   56CHL1    O3 4073   6.440   3.676   6.794 -0.2865 -0.2794 -0.2041
   56CHL1   H3' 4074   6.349   3.701   6.773 -0.5206 -0.2661  0.7790
   56CHL1    C4 4075   6.319   3.524   6.947 -0.3507  0.0096 -0.8503
   56CHL1   H4A 4076   6.223   3.544   6.894 -0.4421  1.0040 -0.3346
   56CHL1   H4B 4077   6.349   3.427   6.901 -0.0137 -0.3245  0.0628
   56CHL1    C5 4078   6.281   3.510   7.095 -0.4381  0.1505  0.0351
   56CHL1    C6 4079   6.289   3.393   7.155  0.2483 -0.7198 -0.1792
   56CHL1    H6 4080   6.315   3.305   7.094 -1.6592 -0.8418 -0.8918
   56CHL1    C7 4081   6.262   3.358   7.300 -0.1782 -0.4615  0.2580
   56CHL1   H7A 4082   6.205   3.264   7.314 -0.2719 -0.5277 -0.5037
   56CHL1   H7B 4083   6.363   3.339   7.342  0.4179 -0.4906 -1.1094
   56CHL1    C8 4084   6.185   3.475   7.362 -0.6995 -0.2480 -0.0481
   56CHL1    H8 4085   6.080   3.481   7.326 -1.1936 -0.2502  1.3144
   56CHL1   C14 4086   6.208   3.461   7.512  0.6009 -0.1634 -0.0661
   56CHL1   H14 4087   6.318   3.467   7.522  0.5793  2.6519 -0.9095
   56CHL1   C15 4088   6.167   3.329   7.581 -0.3920  0.2984 -0.1901
   56CHL1  H15A 4089   6.073   3.301   7.530 -0.9658 -0.3007  1.1570
   56CHL1  H15B 4090   6.252   3.261   7.557 -0.2467 -0.0166  1.1542
   56CHL1   C16 4091   6.151   3.356   7.730 -0.7375  0.5143  0.2472
   56CHL1  H16A 4092   6.047   3.331   7.760 -0.3786  1.1004  2.1216
   56CHL1  H16B 4093   6.220   3.307   7.802 -0.0640 -0.5639 -1.0716
   56CHL1   C17 4094   6.180   3.505   7.737 -0.1308  0.5807 -0.3062
   56CHL1   H17 4095   6.289   3.508   7.754  0.1337 -0.7724 -1.5511
   56CHL1   C13 4096   6.145   3.568   7.596 -0.0433 -0.1220  0.3197
   56CHL1   C18 4097   5.991   3.565   7.578  0.1371  0.4393  0.7063
   56CHL1  H18A 4098   5.955   3.463   7.603  0.2627  0.4628  0.9854
   56CHL1  H18B 4099   5.933   3.636   7.641 -1.6909  0.9870 -1.4721
   56CHL1  H18C 4100   5.968   3.592   7.473  3.8284  1.3321 -0.0194
   56CHL1   C12 4101   6.209   3.704   7.564  0.5917  0.2839 -0.8211
   56CHL1  H12A 4102   6.161   3.786   7.621  2.0720  1.1597 -0.7552
   56CHL1  H12B 4103   6.315   3.692   7.598  0.8149  2.5774 -0.5615
   56CHL1   C11 4104   6.217   3.733   7.421 -0.6075  0.9084  0.5799
   56CHL1  H11A 4105   6.116   3.756   7.380 -1.0552 -1.8731 -0.1150
   56CHL1  H11B 4106   6.279   3.822   7.397 -0.1420 -0.1782 -2.8380
   56CHL1    C9 4107   6.259   3.611   7.331  0.2447 -0.3114  0.7535
   56CHL1    H9 4108   6.365   3.591   7.356  0.6920  0.7681 -0.1959
   56CHL1   C10 4109   6.256   3.638   7.172  0.4020 -0.1036 -0.6331
   56CHL1   C19 4110   6.119   3.704   7.137 -0.1668  1.4147 -0.3050
   56CHL1  H19A 4111   6.037   3.637   7.171 -1.1775  3.2512  1.1380
   56CHL1  H19B 4112   6.109   3.803   7.186  1.3193  0.4054  2.1576
   56CHL1  H19C 4113   6.116   3.715   7.026  3.0667 -1.1631 -0.7907
   56CHL1    C1 4114   6.370   3.732   7.148 -1.1858 -0.8393  0.0023
   56CHL1   H1A 4115   6.344   3.827   7.201  0.1066 -1.2867  1.5180
   56CHL1   H1B 4116   6.468   3.704   7.191 -1.2273  0.5733  1.1144
   56CHL1    C2 4117   6.388   3.765   7.001  0.2752  0.1126 -0.3892
   56CHL1   H2A 4118   6.478   3.830   6.996  0.0936  0.2676 -3.4855
   56CHL1   H2B 4119   6.295   3.811   6.960 -0.9611 -0.4486  1.6446
   56CHL1   C20 4120   6.113   3.591   7.853 -0.1773  0.0320  0.6061
   56CHL1   H20 4121   6.033   3.654   7.809 -2.4856 -1.1287  2.8298
   56CHL1   C21 4122   6.230   3.681   7.908  0.3179  0.4815 -0.2609
   56CHL1  H21A 4123   6.299   3.608   7.955  1.2203  1.1987 -0.4520
   56CHL1  H21B 4124   6.199   3.748   7.991 -1.4101 -1.0231  0.3633
   56CHL1  H21C 4125   6.281   3.730   7.822  0.8406 -1.4992 -1.1281
   56CHL1   C22 4126   6.040   3.525   7.969 -0.2451 -0.3783  0.1060
   56CHL1  H22A 4127   5.973   3.445   7.932 -2.3124 -0.0700  2.8095
   56CHL1  H22B 4128   6.118   3.472   8.027 -1.2784 -0.2978  1.6384
   56CHL1   C23 4129   5.955   3.612   8.061  0.0522 -0.3764  0.6430
   56CHL1  H23A 4130   6.015   3.696   8.101 -0.0996  0.4017 -0.6781
   56CHL1  H23B 4131   5.875   3.651   7.993  0.3160 -2.1345 -0.7513
   56CHL1   C24 4132   5.902   3.522   8.174 -0.1430  0.3879  0.1344
   56CHL1  H24A 4133   5.859   3.431   8.126 -1.0100 -0.3946  2.2640
   56CHL1  H24B 4134   5.980   3.489   8.245 -1.0741 -0.3304  0.8556
   56CHL1   C25 4135   5.796   3.587   8.264 -0.2829 -0.8899  0.0890
   56CHL1   H25 4136   5.748   3.501   8.315 -0.7734 -0.1373  0.9300
   56CHL1   C26 4137   5.855   3.679   8.368  0.1600  0.1980  0.0785
   56CHL1  H26A 4138   5.795   3.677   8.461 -1.4285 -0.0998 -0.9170
   56CHL1  H26B 4139   5.880   3.781   8.331  0.8039 -0.0637 -0.2273
   56CHL1  H26C 4140   5.954   3.639   8.398  0.6252  3.6614  3.9740
   56CHL1   C27 4141   5.679   3.647   8.182  0.0249 -0.1094  0.0880
   56CHL1  H27A 4142   5.660   3.599   8.084 -2.5440 -1.8515  1.3227
   56CHL1  H27B 4143   5.581   3.648   8.234  0.3613 -1.3600  0.7981
   56CHL1  H27C 4144   5.711   3.753   8.170  0.9643 -0.2623  1.0595
   57SAPC     N 4145   4.555   4.038  10.852 -0.4963 -0.3136 -0.0116
   57SAPC   C12 4146   4.694   3.988  10.810  0.2311 -0.4184 -0.2936
   57SAPC  H12A 4147   4.732   4.041  10.724  1.0380 -1.5958 -0.6858
   57SAPC  H12B 4148   4.683   3.888  10.772  2.7414 -0.7617 -0.3041
   57SAPC   C13 4149   4.565   4.178  10.892  0.3217  0.4109  0.2776
   57SAPC  H13A 4150   4.466   4.219  10.905 -1.2976 -2.7232 -1.1168
   57SAPC  H13B 4151   4.617   4.189  10.986  0.0792 -0.3309  0.5085
   57SAPC  H13C 4152   4.625   4.235  10.823  0.1658  0.5545  0.2583
   57SAPC   C14 4153   4.463   4.024  10.736 -0.6042  0.0129  0.3704
   57SAPC  H14A 4154   4.449   3.921  10.706 -0.6853  0.9582 -3.3918
   57SAPC  H14B 4155   4.370   4.073  10.759 -1.5771 -0.8004 -1.6295
   57SAPC  H14C 4156   4.505   4.080  10.654  0.7453  0.6616  1.4620
   57SAPC   C15 4157   4.500   3.947  10.962 -0.3493  0.4326  0.7289
   57SAPC  H15A 4158   4.498   3.840  10.946  3.9593  0.0802  1.2354
   57SAPC  H15B 4159   4.551   3.964  11.056  0.2876 -0.9664  0.6691
   57SAPC  H15C 4160   4.399   3.982  10.975 -0.6639 -0.2835  0.2638
   57SAPC   C11 4161   4.807   4.002  10.910 -0.5400 -0.7821 -0.1946
   57SAPC  H11A 4162   4.889   3.930  10.889  0.1300 -0.2702  0.5896
   57SAPC  H11B 4163   4.769   3.991  11.014 -0.9576  4.2067  0.4695
   57SAPC     P 4164   4.922   4.204  10.776  0.0844  0.3227 -0.1950
   57SAPC   O13 4165   4.843   4.323  10.731 -0.8526 -0.2280  0.0400
   57SAPC   O14 4166   5.064   4.221  10.806 -0.5264  0.9849  0.3278
   57SAPC   O12 4167   4.853   4.136  10.906  0.1316  0.5050 -0.0775
   57SAPC   O11 4168   4.904   4.082  10.672 -0.0576  0.1566 -0.3139
   57SAPC    C1 4169   5.020   4.022  10.611  0.0488  0.4291 -0.3835
   57SAPC    HA 4170   5.104   4.015  10.682 -1.4786  1.1617  1.5960
   57SAPC    HB 4171   4.993   3.922  10.571  0.7655 -0.4441  1.2621
   57SAPC    C2 4172   5.066   4.096  10.481  0.2674  0.1228 -0.0260
   57SAPC    HS 4173   5.074   4.205  10.503 -0.5540 -0.2725  2.6476
   57SAPC   O21 4174   4.964   4.057  10.387 -0.3211  0.0768  0.1774
   57SAPC   C21 4175   4.905   4.150  10.311 -0.1211 -0.4241 -0.5603
   57SAPC   O22 4176   4.908   4.267  10.343 -0.3708 -0.2383 -0.0618
   57SAPC   C22 4177   4.845   4.079  10.195 -1.0399 -0.0229  0.1389
   57SAPC   H2R 4178   4.792   3.988  10.228 -0.8977  0.0469  0.5579
   57SAPC   H2S 4179   4.782   4.160  10.152 -0.0987  0.1202 -1.0436
   57SAPC    C3 4180   5.212   4.059  10.440 -0.1027 -0.0302 -0.0632
   57SAPC    HX 4181   5.201   3.948  10.433 -1.3801  0.1564 -1.7195
   57SAPC    HY 4182   5.301   4.063  10.507  0.4211  0.7585 -0.7868
   57SAPC   O31 4183   5.242   4.110  10.310 -0.5451 -0.4484 -0.1824
   57SAPC   C31 4184   5.320   4.216  10.326  0.6133  0.3165  0.4549
   57SAPC   O32 4185   5.325   4.284  10.431 -0.2877  0.4453 -0.1848
   57SAPC   C32 4186   5.412   4.231  10.201  0.3457  0.2312  0.1800
   57SAPC   H2X 4187   5.352   4.285  10.125  2.5664  0.4037 -1.5525
   57SAPC   H2Y 4188   5.449   4.134  10.162 -0.1906  0.7781 -1.8166
   57SAPC   C23 4189   4.958   4.038  10.093 -0.3543 -0.6435 -0.1160
   57SAPC   H3R 4190   4.917   3.960  10.025  0.2575 -0.0960 -1.1434
   57SAPC   H3S 4191   5.045   3.995  10.146  0.0140  1.1804  0.8351
   57SAPC   C24 4192   5.000   4.158  10.008 -0.2159  0.6007 -0.5770
   57SAPC   H4R 4193   5.054   4.223  10.081  0.6863 -1.2620  0.4919
   57SAPC   H4S 4194   4.910   4.214   9.976  0.3649  0.6800 -2.1676
   57SAPC   C25 4195   5.088   4.124   9.890  0.0038 -0.2826  0.4040
   57SAPC   H5R 4196   5.177   4.062   9.908  0.4504  0.4418  0.7412
   57SAPC   C26 4197   5.059   4.151   9.760 -0.0077 -0.7885 -0.6682
   57SAPC   H6R 4198   5.129   4.121   9.680 -1.6888 -4.2605 -1.0592
   57SAPC   C27 4199   4.933   4.207   9.710 -0.5476 -0.2882 -0.8259
   57SAPC   H7R 4200   4.949   4.213   9.600  1.3810 -2.1108 -0.7068
   57SAPC   H7S 4201   4.925   4.309   9.755  2.7713 -1.2598  2.4610
   57SAPC   C28 4202   4.802   4.134   9.730  0.7217  0.4847 -0.3510
   57SAPC   H8R 4203   4.803   4.047   9.798  0.3816  1.6083  1.1533
   57SAPC   C29 4204   4.697   4.150   9.655  0.2486  0.5615 -1.3638
   57SAPC   H9R 4205   4.612   4.081   9.666  1.2895 -0.2592  3.5574
   57SAPC  C210 4206   4.683   4.242   9.535 -0.3429 -0.0615 -0.3692
   57SAPC  H10R 4207   4.735   4.202   9.445  0.0233  2.6273 -1.4475
   57SAPC  H10S 4208   4.733   4.336   9.567  1.0384 -0.1269 -2.1656
   57SAPC  C211 4209   4.537   4.284   9.491 -0.4807  0.7184 -0.2516
   57SAPC  H11R 4210   4.490   4.355   9.560 -0.1834  1.5587 -0.8958
   57SAPC  C212 4211   4.461   4.231   9.392  0.1499 -0.3511 -0.8984
   57SAPC  H12R 4212   4.362   4.274   9.369  1.0458  1.3272 -1.7982
   57SAPC  C213 4213   4.498   4.121   9.297 -0.2599  0.3821 -0.4427
   57SAPC  H13R 4214   4.447   4.029   9.333  0.5020  0.2437  0.2969
   57SAPC  H13S 4215   4.604   4.093   9.314 -0.8148 -2.2261 -0.8956
   57SAPC  C214 4216   4.461   4.139   9.153 -0.1888 -0.7623 -0.2915
   57SAPC  H14R 4217   4.508   4.234   9.121  0.7844 -0.7697  1.0455
   57SAPC  C215 4218   4.374   4.077   9.072  0.3951 -0.4509 -0.4158
   57SAPC  H15R 4219   4.358   4.116   8.970 -1.5498  1.1859  0.4381
   57SAPC  C216 4220   4.294   3.953   9.106 -0.0084 -0.0628  0.6274
   57SAPC  H16R 4221   4.349   3.889   9.178  2.0393 -0.8867 -1.5326
   57SAPC  H16S 4222   4.279   3.886   9.020  1.3905  0.2152  0.1355
   57SAPC  C217 4223   4.150   3.978   9.162 -0.7083  0.3106 -0.6190
   57SAPC  H17R 4224   4.150   4.054   9.243  2.6005 -1.2154  1.0297
   57SAPC  H17S 4225   4.133   3.885   9.221  1.0341  0.6713  0.5221
   57SAPC  C218 4226   4.048   3.999   9.054  0.3179 -0.1436  0.4338
   57SAPC  H18R 4227   4.070   3.922   8.977  2.0950  0.1241  0.6290
   57SAPC  H18S 4228   4.069   4.093   8.999 -1.1224  0.6504  1.1926
   57SAPC  C219 4229   3.906   3.997   9.100  1.0976 -0.7177  1.0305
   57SAPC  H19R 4230   3.886   4.085   9.165  1.6811  1.6504 -1.7957
   57SAPC  H19S 4231   3.879   3.899   9.146 -1.6239  0.0700  1.2812
   57SAPC  C220 4232   3.815   4.040   8.976 -0.5203  0.7833  0.1799
   57SAPC  H20R 4233   3.830   4.146   8.945 -1.2815  0.6974 -0.4927
   57SAPC  H20S 4234   3.706   4.032   8.998 -0.3107 -1.1548  0.6556
   57SAPC  H20T 4235   3.845   3.970   8.895  1.0750 -1.1178  2.2897
   57SAPC   C33 4236   5.535   4.312  10.242 -0.0325 -0.9751 -0.4801
   57SAPC   H3X 4237   5.585   4.269  10.332  2.7493  1.1600 -0.8845
   57SAPC   H3Y 4238   5.518   4.421  10.258  1.8223 -0.6465 -0.4615
   57SAPC   C34 4239   5.646   4.299  10.134 -0.0574  0.4320  0.2402
   57SAPC   H4X 4240   5.685   4.195  10.133  0.3369  0.5733 -1.2255
   57SAPC   H4Y 4241   5.737   4.359  10.156  0.1834  0.6625 -1.3022
   57SAPC   C35 4242   5.591   4.335   9.997 -0.2028 -0.4356 -0.1007
   57SAPC   H5X 4243   5.547   4.437   9.999 -2.8560 -1.5000  0.8432
   57SAPC   H5Y 4244   5.516   4.262   9.958  1.0382 -0.5487 -2.4673
   57SAPC   C36 4245   5.692   4.326   9.883 -0.3861 -0.3254  0.9138
   57SAPC   H6X 4246   5.751   4.232   9.882  1.9569  1.0573  0.9834
   57SAPC   H6Y 4247   5.769   4.404   9.904 -1.3452  1.5362 -1.8967
   57SAPC   C37 4248   5.623   4.359   9.747  0.5828  0.5619 -0.3255
   57SAPC   H7X 4249   5.557   4.448   9.754  1.1745  1.1538 -1.7763
   57SAPC   H7Y 4250   5.563   4.269   9.721  0.5792  0.4827 -0.0437
   57SAPC   C38 4251   5.719   4.389   9.636  0.1707 -1.0496  0.5597
   57SAPC   H8X 4252   5.808   4.323   9.638 -0.8498 -2.5251 -0.7214
   57SAPC   H8Y 4253   5.756   4.494   9.630  1.1507 -1.4619 -1.4187
   57SAPC   C39 4254   5.653   4.371   9.502  0.5759 -0.3152 -0.0292
   57SAPC   H9X 4255   5.641   4.262   9.484 -2.5050  0.3161 -2.7347
   57SAPC   H9Y 4256   5.718   4.418   9.425 -0.6322 -0.8480 -1.4198
   57SAPC  C310 4257   5.512   4.437   9.496  0.0299 -0.2644  1.0040
   57SAPC  H10X 4258   5.527   4.545   9.518  1.6650 -0.3049  0.1953
   57SAPC  H10Y 4259   5.443   4.401   9.575  2.2083  0.0734  3.1821
   57SAPC  C311 4260   5.432   4.416   9.359 -0.6206 -0.2833  0.1713
   57SAPC  H11X 4261   5.358   4.494   9.332 -3.2206 -2.0183  1.8685
   57SAPC  H11Y 4262   5.379   4.319   9.363  2.5241 -2.0883  2.5398
   57SAPC  C312 4263   5.532   4.413   9.247 -0.2891  0.4895  0.7165
   57SAPC  H12X 4264   5.611   4.336   9.263 -1.5345 -0.9531  0.2116
   57SAPC  H12Y 4265   5.559   4.515   9.215 -1.6932 -0.2538 -3.5288
   57SAPC  C313 4266   5.458   4.373   9.113 -0.4283 -0.7416  0.1600
   57SAPC  H13X 4267   5.406   4.278   9.137  1.0961 -1.2068  1.8550
   57SAPC  H13Y 4268   5.533   4.340   9.038 -0.2570 -1.8783  0.8113
   57SAPC  C314 4269   5.350   4.454   9.042  0.2998 -1.0609  0.1255
   57SAPC  H14X 4270   5.371   4.563   9.050 -0.0554 -0.9663 -0.1756
   57SAPC  H14Y 4271   5.256   4.448   9.102  0.7463  1.8179  1.2819
   57SAPC  C315 4272   5.335   4.410   8.898 -0.1290  0.3886 -0.6306
   57SAPC  H15X 4273   5.311   4.302   8.894 -1.7943  0.7029 -0.0160
   57SAPC  H15Y 4274   5.435   4.411   8.850  1.1834 -0.4332  1.8804
   57SAPC  C316 4275   5.236   4.480   8.804  0.1556  0.1489  0.0609
   57SAPC  H16X 4276   5.248   4.419   8.711 -0.5283  0.9166 -0.5520
   57SAPC  H16Y 4277   5.273   4.582   8.780  3.2018 -1.0208 -0.7430
   57SAPC  C317 4278   5.097   4.468   8.859  0.6243 -0.4641  0.2031
   57SAPC  H17X 4279   5.090   4.533   8.949 -1.4928 -0.5231  0.1270
   57SAPC  H17Y 4280   5.066   4.368   8.897 -1.8362 -0.0837 -0.6562
   57SAPC  C318 4281   4.985   4.509   8.758  0.3413  0.7383 -0.2484
   57SAPC  H18X 4282   4.996   4.430   8.681  2.0052 -0.8265  1.4510
   57SAPC  H18Y 4283   4.998   4.611   8.716  1.2329  0.9617  0.5334
   57SAPC  H18Z 4284   4.888   4.518   8.810 -0.7622  2.5182 -2.4755
   58SAPC     N 4285   6.246   1.754  11.183 -0.3545 -0.1487  0.7228
   58SAPC   C12 4286   6.356   1.669  11.115 -0.4077 -0.5620 -0.2525
   58SAPC  H12A 4287   6.372   1.575  11.164  0.0672 -0.5396 -0.3646
   58SAPC  H12B 4288   6.444   1.731  11.121 -0.8711  0.1118 -0.3362
   58SAPC   C13 4289   6.230   1.880  11.110  0.9083  0.0242  0.2831
   58SAPC  H13A 4290   6.319   1.910  11.057  0.8681 -0.5340 -0.1060
   58SAPC  H13B 4291   6.151   1.878  11.036  0.2317  0.6156  0.9613
   58SAPC  H13C 4292   6.201   1.954  11.184  1.0342  1.1306 -0.7318
   58SAPC   C14 4293   6.119   1.681  11.185  0.2828  0.2781  0.2582
   58SAPC  H14A 4294   6.044   1.736  11.239  0.2888  0.7252 -0.1727
   58SAPC  H14B 4295   6.080   1.653  11.088  0.7151 -0.5691  0.3213
   58SAPC  H14C 4296   6.131   1.585  11.232 -0.1916 -0.3371 -0.8327
   58SAPC   C15 4297   6.293   1.780  11.323  0.2508 -0.2463  0.0728
   58SAPC  H15A 4298   6.384   1.836  11.309 -1.3695  1.8431 -3.4272
   58SAPC  H15B 4299   6.216   1.823  11.385 -0.2339 -1.4601  0.3385
   58SAPC  H15C 4300   6.322   1.687  11.371  1.0268 -0.9559 -1.6663
   58SAPC   C11 4301   6.328   1.620  10.972  0.3866 -0.1937  0.3264
   58SAPC  H11A 4302   6.264   1.693  10.919 -0.8542 -1.3693  0.1449
   58SAPC  H11B 4303   6.272   1.524  10.982  0.5369 -0.1952  1.1898
   58SAPC     P 4304   6.526   1.721  10.828  0.3332 -0.1556 -0.1670
   58SAPC   O13 4305   6.560   1.837  10.913 -1.0933  0.1728 -0.5960
   58SAPC   O14 4306   6.635   1.658  10.755  0.1300 -0.4768 -0.0504
   58SAPC   O12 4307   6.453   1.605  10.909  0.5360 -0.4258 -0.9044
   58SAPC   O11 4308   6.422   1.772  10.728  0.6998  0.9458 -0.6785
   58SAPC    C1 4309   6.333   1.694  10.644  0.5277  0.3944 -0.1162
   58SAPC    HA 4310   6.334   1.586  10.666 -0.6664  0.7158  1.7660
   58SAPC    HB 4311   6.229   1.732  10.647  0.1529 -0.0564 -3.4994
   58SAPC    C2 4312   6.377   1.710  10.496  0.2438  0.3776 -0.1048
   58SAPC    HS 4313   6.292   1.694  10.427  0.7484 -1.1095 -0.4137
   58SAPC   O21 4314   6.481   1.619  10.465 -0.1962 -0.2205  0.2486
   58SAPC   C21 4315   6.453   1.486  10.466  0.4420 -0.0864  0.0984
   58SAPC   O22 4316   6.343   1.430  10.478 -0.1371 -0.3218 -0.2010
   58SAPC   C22 4317   6.581   1.413  10.438  0.2592  0.9189 -0.2858
   58SAPC   H2R 4318   6.660   1.491  10.432  2.4478 -0.9590  1.7550
   58SAPC   H2S 4319   6.607   1.357  10.530  1.2744  0.4026 -0.8716
   58SAPC    C3 4320   6.425   1.857  10.477 -0.0363 -0.1971 -0.5498
   58SAPC    HX 4321   6.510   1.874  10.546 -0.0215 -1.4560 -0.2270
   58SAPC    HY 4322   6.344   1.922  10.517  0.2382  0.1338 -0.5275
   58SAPC   O31 4323   6.473   1.877  10.341  0.1987  0.3069  0.2148
   58SAPC   C31 4324   6.378   1.886  10.245 -0.3387  0.2624  0.1097
   58SAPC   O32 4325   6.258   1.885  10.269  0.3523  0.6789  0.0481
   58SAPC   C32 4326   6.452   1.892  10.112  0.2616 -0.1631 -0.0286
   58SAPC   H2X 4327   6.479   1.789  10.081 -0.1031 -0.5341  0.8397
   58SAPC   H2Y 4328   6.544   1.951  10.129  0.3341  0.1288 -1.2957
   58SAPC   C23 4329   6.580   1.332  10.307  0.0559  0.0772 -0.1864
   58SAPC   H3R 4330   6.517   1.240  10.304 -2.4768  1.6118 -4.9337
   58SAPC   H3S 4331   6.676   1.283  10.279 -1.2302 -1.3162 -2.5781
   58SAPC   C24 4332   6.549   1.411  10.172  0.4888 -0.3990 -0.1193
   58SAPC   H4R 4333   6.443   1.441  10.183  0.3848 -0.5134 -0.7549
   58SAPC   H4S 4334   6.551   1.338  10.088  0.7009  1.0835 -1.4375
   58SAPC   C25 4335   6.642   1.522  10.150 -0.9889  0.4896  0.3296
   58SAPC   H5R 4336   6.705   1.549  10.235 -1.4152 -0.7492  1.0704
   58SAPC   C26 4337   6.667   1.581  10.031 -0.5507 -0.1113  0.2087
   58SAPC   H6R 4338   6.744   1.659  10.034 -2.2390  1.6171  2.2431
   58SAPC   C27 4339   6.602   1.550   9.898  0.8150  0.6784 -0.1316
   58SAPC   H7R 4340   6.585   1.639   9.834  3.1615 -1.1229 -3.6048
   58SAPC   H7S 4341   6.505   1.496   9.903  0.7419  0.8259  0.0865
   58SAPC   C28 4342   6.693   1.454   9.826  0.3589 -0.2506  0.5319
   58SAPC   H8R 4343   6.751   1.390   9.894 -0.0377  0.3254  1.4327
   58SAPC   C29 4344   6.714   1.457   9.692  0.2525  0.4259  0.2770
   58SAPC   H9R 4345   6.781   1.377   9.659 -0.8888 -0.1676 -0.6609
   58SAPC  C210 4346   6.651   1.544   9.588  0.0318 -1.0112  0.1604
   58SAPC  H10R 4347   6.719   1.551   9.501 -0.3880 -2.9990 -0.3874
   58SAPC  H10S 4348   6.656   1.649   9.623 -1.2421 -0.2512 -1.8030
   58SAPC  C211 4349   6.508   1.506   9.553 -0.1279 -0.7662 -0.4875
   58SAPC  H11R 4350   6.450   1.462   9.635  0.3805 -1.7863 -0.6517
   58SAPC  C212 4351   6.455   1.505   9.425 -0.1648 -0.0466  0.5457
   58SAPC  H12R 4352   6.349   1.481   9.412  0.6843 -3.6363 -0.9646
   58SAPC  C213 4353   6.519   1.544   9.298 -0.4329 -0.3559  0.5553
   58SAPC  H13R 4354   6.570   1.642   9.312  1.2416 -0.7676 -2.0460
   58SAPC  H13S 4355   6.445   1.573   9.221  2.7997  0.6086 -2.4535
   58SAPC  C214 4356   6.630   1.453   9.255 -0.0257  0.3174  0.5823
   58SAPC  H14R 4357   6.667   1.378   9.327  0.7679 -1.2622 -1.3775
   58SAPC  C215 4358   6.696   1.469   9.139  0.2314 -0.1988 -0.6711
   58SAPC  H15R 4359   6.787   1.409   9.123  1.5169  1.6847 -0.7077
   58SAPC  C216 4360   6.664   1.565   9.028 -0.3605  0.0227  0.6043
   58SAPC  H16R 4361   6.556   1.565   9.003 -0.1401 -1.4266 -0.4549
   58SAPC  H16S 4362   6.715   1.526   8.938 -1.1604 -0.9206  0.5499
   58SAPC  C217 4363   6.698   1.716   9.051  0.6943  0.5867  0.0011
   58SAPC  H17R 4364   6.808   1.729   9.051  0.5589  1.8096  0.6013
   58SAPC  H17S 4365   6.665   1.732   9.156  1.9674 -0.0011  0.5122
   58SAPC  C218 4366   6.627   1.810   8.954 -0.3914 -0.2201  0.7571
   58SAPC  H18R 4367   6.659   1.909   8.993 -2.6971  0.9671 -0.1605
   58SAPC  H18S 4368   6.520   1.803   8.986 -0.0743 -1.1890  1.6858
   58SAPC  C219 4369   6.648   1.773   8.808  0.5445  0.5220  0.0075
   58SAPC  H19R 4370   6.577   1.839   8.754  0.6028  1.3724  0.9304
   58SAPC  H19S 4371   6.612   1.672   8.782 -2.8987  1.2001  1.5490
   58SAPC  C220 4372   6.787   1.814   8.765  0.4881  0.2860 -0.2396
   58SAPC  H20R 4373   6.811   1.914   8.806  2.0956 -0.3967  0.5738
   58SAPC  H20S 4374   6.801   1.822   8.655 -2.5355 -4.0755 -1.2557
   58SAPC  H20T 4375   6.856   1.736   8.804 -1.2530 -0.6277  1.1653
   58SAPC   C33 4376   6.359   1.950  10.001 -0.2923 -0.0306 -0.2266
   58SAPC   H3X 4377   6.333   2.054  10.029 -1.5914 -0.9855  2.3296
   58SAPC   H3Y 4378   6.267   1.888   9.998 -0.9504  0.9043  0.2545
   58SAPC   C34 4379   6.424   1.944   9.868 -0.5542  0.4229  0.2678
   58SAPC   H4X 4380   6.466   1.842   9.857  0.0629  0.8356 -1.5487
   58SAPC   H4Y 4381   6.508   2.015   9.854  0.7005 -1.0243  0.2123
   58SAPC   C35 4382   6.330   1.965   9.757  0.6673  0.6411  0.3433
   58SAPC   H5X 4383   6.324   2.075   9.740 -0.1640  0.3104 -1.7034
   58SAPC   H5Y 4384   6.228   1.922   9.765  0.9692 -1.3448 -4.0612
   58SAPC   C36 4385   6.384   1.918   9.620  0.4159  1.1652  0.7048
   58SAPC   H6X 4386   6.392   1.807   9.631 -0.4695  1.2195  2.2212
   58SAPC   H6Y 4387   6.482   1.965   9.601  0.4484  2.2395  3.0693
   58SAPC   C37 4388   6.290   1.948   9.497  0.6041 -0.3626 -0.5101
   58SAPC   H7X 4389   6.303   2.057   9.476 -0.9497  0.2134  1.2705
   58SAPC   H7Y 4390   6.187   1.927   9.533  0.8845 -0.7464  0.0908
   58SAPC   C38 4391   6.340   1.867   9.385 -0.2307 -0.0698  0.5811
   58SAPC   H8X 4392   6.315   1.761   9.405  1.7714 -0.7689 -0.2886
   58SAPC   H8Y 4393   6.450   1.885   9.377 -0.3935  0.5867 -0.3965
   58SAPC   C39 4394   6.261   1.904   9.257 -0.5805  0.3207 -0.6196
   58SAPC   H9X 4395   6.155   1.894   9.288 -0.0493  1.0550  1.6110
   58SAPC   H9Y 4396   6.289   1.831   9.178  0.0131  1.1338 -1.1768
   58SAPC  C310 4397   6.278   2.039   9.195  0.4347 -0.0375  0.0913
   58SAPC  H10X 4398   6.262   2.112   9.277  0.4472 -0.7828  0.7809
   58SAPC  H10Y 4399   6.197   2.046   9.120 -1.7960 -1.6540  2.1743
   58SAPC  C311 4400   6.409   2.059   9.121  0.2439 -0.0626  0.5320
   58SAPC  H11X 4401   6.410   1.977   9.046 -1.6015 -1.5486  2.0592
   58SAPC  H11Y 4402   6.497   2.041   9.187 -0.6003  0.0814  1.7306
   58SAPC  C312 4403   6.414   2.199   9.052  0.3565 -0.1723  1.0294
   58SAPC  H12X 4404   6.518   2.212   9.014 -0.3407 -1.2388 -1.4355
   58SAPC  H12Y 4405   6.387   2.280   9.123 -2.1618  0.1196 -0.1789
   58SAPC  C313 4406   6.329   2.210   8.925  0.1166 -0.5627  0.5345
   58SAPC  H13X 4407   6.225   2.177   8.947  0.3208 -1.9083 -0.4074
   58SAPC  H13Y 4408   6.366   2.135   8.852  2.0199  0.9635 -0.1390
   58SAPC  C314 4409   6.320   2.348   8.867  0.3066  0.3418  0.9492
   58SAPC  H14X 4410   6.423   2.390   8.868  0.2809  0.3987  1.2377
   58SAPC  H14Y 4411   6.270   2.414   8.941 -2.3710 -0.1258 -0.3134
   58SAPC  C315 4412   6.256   2.347   8.727 -0.1028 -0.6527 -0.1381
   58SAPC  H15X 4413   6.157   2.296   8.732  0.2560 -1.2278  1.9151
   58SAPC  H15Y 4414   6.318   2.293   8.652 -0.1268 -0.9785  0.0753
   58SAPC  C316 4415   6.223   2.493   8.690 -0.0484  0.3936  0.2000
   58SAPC  H16X 4416   6.141   2.537   8.751 -0.3645 -1.2020  0.9674
   58SAPC  H16Y 4417   6.181   2.493   8.587  0.8632  0.5204 -0.1823
   58SAPC  C317 4418   6.353   2.581   8.696  0.4120  0.1439  0.2467
   58SAPC  H17X 4419   6.454   2.534   8.702  2.1045  3.3967 -0.4059
   58SAPC  H17Y 4420   6.347   2.648   8.784 -0.0205  0.0512  0.2917
   58SAPC  C318 4421   6.378   2.665   8.571 -0.2498  0.2612 -0.3795
   58SAPC  H18X 4422   6.292   2.734   8.554  0.0836  1.0311  0.9271
   58SAPC  H18Y 4423   6.375   2.604   8.478  0.3889 -0.0448 -0.2010
   58SAPC  H18Z 4424   6.472   2.725   8.575 -0.3558  0.3626  1.8411
   59SAPC     N 4425   0.587   4.716  11.311  0.4038  0.5719 -0.1608
   59SAPC   C12 4426   0.672   4.816  11.237 -0.1033  0.4280 -0.4344
   59SAPC  H12A 4427   0.769   4.770  11.224  0.3379  1.3476 -0.5423
   59SAPC  H12B 4428   0.693   4.904  11.296 -1.2822  0.7280 -0.4338
   59SAPC   C13 4429   0.646   4.660  11.438 -0.1979  0.2230  0.1311
   59SAPC  H13A 4430   0.723   4.725  11.478  1.9581 -1.9988 -0.2087
   59SAPC  H13B 4431   0.580   4.636  11.519 -0.4173 -1.8373 -0.6101
   59SAPC  H13C 4432   0.707   4.576  11.410 -1.4677 -0.8492  0.4999
   59SAPC   C14 4433   0.465   4.789  11.354  0.1093 -0.1794 -0.2622
   59SAPC  H14A 4434   0.437   4.840  11.263 -0.0442  0.2439  0.0218
   59SAPC  H14B 4435   0.388   4.716  11.374  2.7000 -2.5879  1.8356
   59SAPC  H14C 4436   0.473   4.865  11.430 -0.2709 -1.5979  1.2350
   59SAPC   C15 4437   0.541   4.595  11.225  0.2073 -0.3348 -0.1679
   59SAPC  H15A 4438   0.621   4.524  11.211  0.2958 -0.2362 -0.1659
   59SAPC  H15B 4439   0.465   4.547  11.286  0.4839  0.9744  1.2596
   59SAPC  H15C 4440   0.498   4.629  11.132 -1.2621  0.0876  0.6310
   59SAPC   C11 4441   0.630   4.862  11.094 -0.3554  0.5584  1.1035
   59SAPC  H11A 4442   0.625   4.774  11.026  2.8418  0.0488  1.3816
   59SAPC  H11B 4443   0.715   4.921  11.054 -1.6792  0.4961 -2.0956
   59SAPC     P 4444   0.519   5.088  11.140 -0.1682  0.2154 -0.0256
   59SAPC   O13 4445   0.409   5.104  11.236  0.2780  0.0487 -0.2387
   59SAPC   O14 4446   0.658   5.123  11.190  0.4956 -0.0610  0.1861
   59SAPC   O12 4447   0.511   4.938  11.092  1.2463  0.3624 -0.4002
   59SAPC   O11 4448   0.486   5.172  11.010 -0.1535 -0.4506  0.0286
   59SAPC    C1 4449   0.356   5.147  10.950 -0.5991  0.2772  0.4467
   59SAPC    HA 4450   0.286   5.073  10.994 -1.1276  0.8444  0.5790
   59SAPC    HB 4451   0.299   5.243  10.946  0.1831  0.7336 -0.2964
   59SAPC    C2 4452   0.376   5.094  10.798  0.5320 -0.1229 -0.1773
   59SAPC    HS 4453   0.353   5.177  10.728 -0.2338  1.2452  1.6339
   59SAPC   O21 4454   0.287   4.985  10.766  0.0176  0.3356  0.4081
   59SAPC   C21 4455   0.156   5.020  10.770  0.6448  0.4591 -0.0451
   59SAPC   O22 4456   0.118   5.129  10.797  0.2356  0.1394 -0.7541
   59SAPC   C22 4457   0.070   4.899  10.740 -0.1916 -0.4529 -0.3339
   59SAPC   H2R 4458   0.126   4.829  10.674  1.4181 -0.9391  1.4451
   59SAPC   H2S 4459   0.053   4.850  10.838 -0.1928 -0.2754 -0.2458
   59SAPC    C3 4460   0.527   5.062  10.763  0.1543  0.0769 -0.5873
   59SAPC    HX 4461   0.550   4.987  10.841 -3.3622 -0.5868 -0.0187
   59SAPC    HY 4462   0.587   5.151  10.794 -0.6538  0.6179 -0.5413
   59SAPC   O31 4463   0.549   5.019  10.627 -0.1604 -0.6605 -0.3334
   59SAPC   C31 4464   0.601   5.105  10.547  0.6821  0.4710 -0.0638
   59SAPC   O32 4465   0.637   5.218  10.580 -0.1894  0.0004 -0.0902
   59SAPC   C32 4466   0.609   5.045  10.410 -0.2198  0.6645  0.3145
   59SAPC   H2X 4467   0.512   5.004  10.376  0.1934 -0.8612  0.8673
   59SAPC   H2Y 4468   0.680   4.959  10.410  0.1819  0.9813 -0.6874
   59SAPC   C23 4469  -0.068   4.928  10.674 -0.5699  0.9964 -0.2225
   59SAPC   H3R 4470  -0.123   5.000  10.738 -2.3662  0.7847 -1.4344
   59SAPC   H3S 4471  -0.129   4.835  10.676  0.3190  0.3952  1.9961
   59SAPC   C24 4472  -0.047   4.968  10.526  0.1703  1.3098 -0.6015
   59SAPC   H4R 4473   0.026   5.050  10.540  1.8075 -0.0138 -1.0716
   59SAPC   H4S 4474  -0.142   5.018  10.497  0.3631  1.8318 -0.3404
   59SAPC   C25 4475  -0.013   4.852  10.427 -0.1311  0.0815 -0.0002
   59SAPC   H5R 4476  -0.092   4.776  10.434  1.4388 -1.6087  0.1756
   59SAPC   C26 4477   0.096   4.846  10.354  0.3244 -0.1056  0.9979
   59SAPC   H6R 4478   0.107   4.761  10.285 -2.1762 -0.6626  1.2006
   59SAPC   C27 4479   0.210   4.946  10.339  0.3830 -0.0643 -0.7442
   59SAPC   H7R 4480   0.303   4.897  10.303  1.6577  0.4402  1.6507
   59SAPC   H7S 4481   0.251   4.978  10.438 -0.5371  0.7907 -0.6215
   59SAPC   C28 4482   0.191   5.074  10.263  0.1724  0.0961  0.1443
   59SAPC   H8R 4483   0.128   5.149  10.313 -1.4954 -0.8559 -0.4436
   59SAPC   C29 4484   0.240   5.102  10.135 -0.1731  0.4289 -0.5914
   59SAPC   H9R 4485   0.227   5.201  10.090 -0.2229 -0.3744 -2.4208
   59SAPC  C210 4486   0.309   5.002  10.045  0.6003 -0.3629  0.4236
   59SAPC  H10R 4487   0.384   4.935  10.092  1.0043 -0.2391 -0.0382
   59SAPC  H10S 4488   0.376   5.063   9.981  1.0423  1.7728  2.7930
   59SAPC  C211 4489   0.214   4.921   9.959 -0.5008  0.2826 -0.4790
   59SAPC  H11R 4490   0.173   4.833  10.010  1.3914 -0.2974  0.1486
   59SAPC  C212 4491   0.200   4.927   9.825 -0.3270 -0.1852  0.0111
   59SAPC  H12R 4492   0.134   4.855   9.774 -0.8579  0.9138 -0.8996
   59SAPC  C213 4493   0.268   5.017   9.727 -0.2925  0.4595  1.0023
   59SAPC  H13R 4494   0.365   5.055   9.766  0.6062 -0.5981 -0.1118
   59SAPC  H13S 4495   0.208   5.107   9.702  0.7836  0.7795 -0.5363
   59SAPC  C214 4496   0.282   4.931   9.601  1.5499  0.6091 -0.6229
   59SAPC  H14R 4497   0.331   4.834   9.618 -1.3504 -0.3952  3.4180
   59SAPC  C215 4498   0.237   4.970   9.484  0.2414 -0.3330 -0.1356
   59SAPC  H15R 4499   0.242   4.895   9.403 -2.9318 -1.5531  0.6642
   59SAPC  C216 4500   0.172   5.108   9.445  0.0244  0.9194  0.1328
   59SAPC  H16R 4501   0.243   5.184   9.483  0.0463  0.5487  0.8631
   59SAPC  H16S 4502   0.076   5.123   9.500  0.4305 -0.3579  1.2613
   59SAPC  C217 4503   0.145   5.103   9.297  0.0469  0.0839 -0.0943
   59SAPC  H17R 4504   0.097   5.200   9.269 -0.8451  0.1259  1.4595
   59SAPC  H17S 4505   0.067   5.027   9.275  0.3150 -0.5119  0.9507
   59SAPC  C218 4506   0.269   5.079   9.210  0.2820 -0.2833  0.2096
   59SAPC  H18R 4507   0.350   5.018   9.257 -0.7700  0.4070  3.1591
   59SAPC  H18S 4508   0.318   5.178   9.200  2.0069 -1.1971 -0.7516
   59SAPC  C219 4509   0.235   5.016   9.078 -0.1260 -0.2913  0.5108
   59SAPC  H19R 4510   0.140   5.063   9.045 -0.8666 -2.8570 -1.4145
   59SAPC  H19S 4511   0.204   4.913   9.107 -0.1636 -0.5289 -0.3498
   59SAPC  C220 4512   0.347   5.005   8.975 -0.2251 -0.3049  0.3334
   59SAPC  H20R 4513   0.425   4.946   9.027 -1.0558 -0.7238  1.1289
   59SAPC  H20S 4514   0.384   5.108   8.961 -2.4503  0.6177  0.7913
   59SAPC  H20T 4515   0.313   4.955   8.882 -1.0658 -2.1132  1.5505
   59SAPC   C33 4516   0.672   5.138  10.305 -0.3934 -0.2158  0.2588
   59SAPC   H3X 4517   0.778   5.164  10.328  0.9842 -2.1766 -3.1403
   59SAPC   H3Y 4518   0.619   5.235  10.293  0.5786  0.1182 -1.8099
   59SAPC   C34 4519   0.672   5.061  10.170 -0.4493 -0.0764  0.1325
   59SAPC   H4X 4520   0.578   5.003  10.170 -1.1234  0.9921 -0.1205
   59SAPC   H4Y 4521   0.755   4.988  10.178 -0.0782  0.4655  1.6929
   59SAPC   C35 4522   0.690   5.153  10.046 -0.1115  0.4904 -0.3410
   59SAPC   H5X 4523   0.778   5.221  10.045  0.0819  0.2397 -0.6024
   59SAPC   H5Y 4524   0.607   5.226  10.050 -0.3845  0.1589  0.1137
   59SAPC   C36 4525   0.703   5.075   9.914 -0.9080 -0.5222  0.3431
   59SAPC   H6X 4526   0.628   4.993   9.914 -0.7925 -0.6318  0.8698
   59SAPC   H6Y 4527   0.798   5.017   9.911 -0.9745 -0.6110 -0.1516
   59SAPC   C37 4528   0.708   5.156   9.785  0.1786 -0.0836  0.2821
   59SAPC   H7X 4529   0.796   5.224   9.785  0.3224 -0.2720  0.1091
   59SAPC   H7Y 4530   0.624   5.229   9.776  0.4858  0.2862  0.3641
   59SAPC   C38 4531   0.714   5.078   9.654 -0.1020 -0.7534 -0.1576
   59SAPC   H8X 4532   0.622   5.015   9.658 -0.4891 -0.1293  1.9225
   59SAPC   H8Y 4533   0.804   5.015   9.663 -0.1856 -1.1360 -1.6690
   59SAPC   C39 4534   0.720   5.182   9.535  0.2903  0.4353  0.1163
   59SAPC   H9X 4535   0.805   5.253   9.544 -0.7319  1.7446 -0.2486
   59SAPC   H9Y 4536   0.627   5.241   9.522  0.1768  0.2540  0.1025
   59SAPC  C310 4537   0.741   5.110   9.397 -0.7516 -0.4918 -0.6876
   59SAPC  H10X 4538   0.662   5.038   9.366  2.2704 -3.1504 -2.8115
   59SAPC  H10Y 4539   0.830   5.044   9.403  0.8801  1.6663  0.0488
   59SAPC  C311 4540   0.782   5.207   9.278  0.9630 -0.1081 -0.5040
   59SAPC  H11X 4541   0.848   5.284   9.323 -0.9053  1.4748 -0.2919
   59SAPC  H11Y 4542   0.683   5.251   9.249  0.7887 -0.1763 -0.0173
   59SAPC  C312 4543   0.846   5.150   9.148  0.6071  1.1000  0.2339
   59SAPC  H12X 4544   0.941   5.098   9.172 -1.3130 -1.4997  2.8877
   59SAPC  H12Y 4545   0.871   5.237   9.083 -1.1359  1.0041 -0.6401
   59SAPC  C313 4546   0.750   5.046   9.083 -0.3875 -0.2690 -0.4233
   59SAPC  H13X 4547   0.645   5.081   9.081 -0.5971 -0.6849  1.4387
   59SAPC  H13Y 4548   0.743   4.956   9.148 -0.6823 -1.3406 -1.8994
   59SAPC  C314 4549   0.801   5.013   8.946 -0.3014 -0.1291  0.6895
   59SAPC  H14X 4550   0.834   4.907   8.958  1.9366  0.3969 -0.3699
   59SAPC  H14Y 4551   0.896   5.067   8.928  1.6303 -3.8377 -1.3309
   59SAPC  C315 4552   0.701   5.023   8.828 -0.7263  0.4585 -0.2741
   59SAPC  H15X 4553   0.660   5.126   8.823 -1.9943  0.2247  3.0017
   59SAPC  H15Y 4554   0.613   4.961   8.856 -1.6736  1.6708 -0.4833
   59SAPC  C316 4555   0.762   4.991   8.692 -0.0019  0.1993  0.0109
   59SAPC  H16X 4556   0.857   5.046   8.675  0.8158 -1.5132 -1.3048
   59SAPC  H16Y 4557   0.695   5.032   8.614  1.0457  0.9417 -0.5309
   59SAPC  C317 4558   0.799   4.843   8.675  0.5579  0.4374  0.1661
   59SAPC  H17X 4559   0.714   4.772   8.686  3.7430 -3.9124 -0.6698
   59SAPC  H17Y 4560   0.871   4.807   8.752  0.1552  1.3565  0.9932
   59SAPC  C318 4561   0.868   4.808   8.538 -0.1075  0.0963  0.0449
   59SAPC  H18X 4562   0.953   4.877   8.521  1.7887 -2.5411 -2.1945
   59SAPC  H18Y 4563   0.799   4.801   8.451  0.5186  0.1789 -0.4699
   59SAPC  H18Z 4564   0.914   4.706   8.533  0.4474  0.3474 -3.8822
   60SAPC     N 4565   1.352   1.904  10.693  0.2788  0.3419  0.8877
   60SAPC   C12 4566   1.472   1.857  10.613  0.0809 -0.0930 -0.4699
   60SAPC  H12A 4567   1.438   1.778  10.548 -0.2156  1.4725 -2.2982
   60SAPC  H12B 4568   1.550   1.820  10.678  1.1962  0.8883 -1.2069
   60SAPC   C13 4569   1.233   1.918  10.610  0.1112  0.1414 -0.0367
   60SAPC  H13A 4570   1.145   1.965  10.651 -0.9948  1.1805 -3.2555
   60SAPC  H13B 4571   1.246   1.970  10.516 -2.9447  1.7370  0.3139
   60SAPC  H13C 4572   1.196   1.818  10.591  0.4223 -0.0319  0.2538
   60SAPC   C14 4573   1.322   1.801  10.795  0.3601  0.1673 -0.2009
   60SAPC  H14A 4574   1.239   1.834  10.856 -1.2289  1.6425 -2.9883
   60SAPC  H14B 4575   1.287   1.709  10.749  0.0247 -1.7022  3.4152
   60SAPC  H14C 4576   1.406   1.771  10.856 -0.9576 -1.6324  0.8295
   60SAPC   C15 4577   1.390   2.038  10.758  0.0662  0.4438  0.3203
   60SAPC  H15A 4578   1.448   2.088  10.681 -1.6239 -1.4120 -2.3396
   60SAPC  H15B 4579   1.301   2.083  10.797 -1.8893 -3.0372  0.2790
   60SAPC  H15C 4580   1.456   2.012  10.840 -3.8214 -0.4750  3.4388
   60SAPC   C11 4581   1.556   1.963  10.526  1.1502  0.3283  0.0199
   60SAPC  H11A 4582   1.483   2.013  10.458  0.4747  0.2144  0.6457
   60SAPC  H11B 4583   1.626   1.908  10.459  1.4797  0.1959  0.4707
   60SAPC     P 4584   1.764   2.004  10.671 -0.0821  0.2222  0.0147
   60SAPC   O13 4585   1.832   2.112  10.740  0.2618  0.0943 -0.3486
   60SAPC   O14 4586   1.735   1.887  10.756  0.2132 -0.4408  0.6212
   60SAPC   O12 4587   1.634   2.061  10.600 -0.0050  0.7405  0.2641
   60SAPC   O11 4588   1.852   1.963  10.558  0.9931 -0.0618 -0.2469
   60SAPC    C1 4589   1.994   1.998  10.553 -0.5092  0.3291  0.3556
   60SAPC    HA 4590   2.042   2.034  10.646  0.8852 -0.2464 -0.1082
   60SAPC    HB 4591   2.047   1.903  10.531  0.7067  1.2325 -0.7382
   60SAPC    C2 4592   2.021   2.096  10.434 -0.3451 -0.0092  0.2191
   60SAPC    HS 4593   1.960   2.185  10.460 -0.8203 -0.8597  2.1537
   60SAPC   O21 4594   1.977   2.038  10.315 -0.1830  0.3290 -0.5619
   60SAPC   C21 4595   1.922   2.123  10.228 -0.6085 -0.0910 -0.1295
   60SAPC   O22 4596   1.893   2.242  10.255  0.2386 -0.0149 -0.1977
   60SAPC   C22 4597   1.904   2.057  10.093 -0.1627 -0.1546 -0.3649
   60SAPC   H2R 4598   1.993   2.079  10.029 -0.8095  1.0940 -0.8685
   60SAPC   H2S 4599   1.884   1.948  10.100  2.0630 -0.5348  1.5906
   60SAPC    C3 4600   2.176   2.146  10.432 -0.3396  0.3841  0.5278
   60SAPC    HX 4601   2.224   2.051  10.400  0.5469  0.1434  2.4537
   60SAPC    HY 4602   2.210   2.193  10.527  0.1169  4.9706 -1.6089
   60SAPC   O31 4603   2.190   2.232  10.314  0.5127  0.9902 -1.0448
   60SAPC   C31 4604   2.217   2.361  10.345 -0.0423  0.0122  0.0142
   60SAPC   O32 4605   2.210   2.408  10.452  0.2181 -0.3354 -0.2296
   60SAPC   C32 4606   2.267   2.427  10.212  0.6482  0.7655  0.1546
   60SAPC   H2X 4607   2.252   2.348  10.135 -1.7888  0.0577  1.2441
   60SAPC   H2Y 4608   2.373   2.459  10.224  1.6852 -2.2789  0.0502
   60SAPC   C23 4609   1.789   2.122  10.018 -0.5505 -0.1665  0.4126
   60SAPC   H3R 4610   1.816   2.226   9.988  1.0180 -0.4679  0.6979
   60SAPC   H3S 4611   1.699   2.138  10.082 -1.3190  2.7687 -1.1920
   60SAPC   C24 4612   1.735   2.039   9.899 -0.2317  0.5111 -0.1333
   60SAPC   H4R 4613   1.646   2.082   9.848  0.9664  1.9692 -1.0584
   60SAPC   H4S 4614   1.706   1.940   9.941  0.5992  0.0587 -0.6136
   60SAPC   C25 4615   1.832   1.999   9.793  0.1853 -0.3475  0.3826
   60SAPC   H5R 4616   1.846   1.890   9.802 -1.8257 -0.5694  1.6305
   60SAPC   C26 4617   1.860   2.068   9.682  0.0897 -0.2985 -0.3005
   60SAPC   H6R 4618   1.922   2.024   9.603 -1.3713  0.3872 -1.8869
   60SAPC   C27 4619   1.805   2.198   9.646  0.0649  0.0807  0.2261
   60SAPC   H7R 4620   1.886   2.259   9.599  1.0361 -1.1379  0.2733
   60SAPC   H7S 4621   1.784   2.254   9.740 -0.0217  1.6265 -0.6680
   60SAPC   C28 4622   1.683   2.196   9.551 -0.2514  0.4124 -0.0819
   60SAPC   H8R 4623   1.590   2.166   9.602  0.6204  0.0455  1.3606
   60SAPC   C29 4624   1.679   2.225   9.417  0.0532 -0.3038 -0.7300
   60SAPC   H9R 4625   1.594   2.194   9.355  0.2169  0.8107 -1.5369
   60SAPC  C210 4626   1.799   2.272   9.341  0.8343  0.4550 -0.4500
   60SAPC  H10R 4627   1.875   2.318   9.408  0.3570 -0.2248  0.5682
   60SAPC  H10S 4628   1.754   2.348   9.274 -3.4282 -1.8950 -0.5920
   60SAPC  C211 4629   1.858   2.152   9.270 -0.2704 -0.1482 -0.8356
   60SAPC  H11R 4630   1.889   2.068   9.334 -3.1502  0.1475  1.1127
   60SAPC  C212 4631   1.860   2.131   9.141 -0.5614  0.8434 -0.0581
   60SAPC  H12R 4632   1.923   2.046   9.108  0.2242  0.1799  2.8407
   60SAPC  C213 4633   1.821   2.233   9.031 -0.9549 -0.2277  0.1617
   60SAPC  H13R 4634   1.904   2.305   9.020  0.3345 -1.1180  3.0200
   60SAPC  H13S 4635   1.741   2.297   9.075 -1.4500 -0.8872  0.2367
   60SAPC  C214 4636   1.784   2.170   8.900 -0.0595 -0.0219 -0.0309
   60SAPC  H14R 4637   1.677   2.164   8.876  0.1306 -0.8313 -0.7384
   60SAPC  C215 4638   1.858   2.139   8.788 -0.2395 -0.0618  0.8143
   60SAPC  H15R 4639   1.821   2.093   8.696  1.7208 -0.6279  0.2573
   60SAPC  C216 4640   2.003   2.169   8.779 -0.1314  0.6274 -0.3229
   60SAPC  H16R 4641   2.054   2.110   8.699  0.0973 -0.6370  0.7329
   60SAPC  H16S 4642   2.044   2.153   8.881  1.0372  1.9811 -0.5405
   60SAPC  C217 4643   2.030   2.320   8.749  0.7307 -0.7980  0.4377
   60SAPC  H17R 4644   1.982   2.384   8.827  0.2952  0.8358 -1.1136
   60SAPC  H17S 4645   1.974   2.343   8.656 -1.7965 -3.1960  1.2161
   60SAPC  C218 4646   2.179   2.353   8.721  0.0029 -0.0226  0.0654
   60SAPC  H18R 4647   2.209   2.297   8.630 -1.8591 -0.5046 -0.2878
   60SAPC  H18S 4648   2.239   2.325   8.810 -0.6728  0.5872  0.7257
   60SAPC  C219 4649   2.197   2.504   8.684 -0.4253 -0.2864 -0.4668
   60SAPC  H19R 4650   2.180   2.572   8.770  1.7183  0.0551 -0.2584
   60SAPC  H19S 4651   2.118   2.539   8.613 -0.5566 -0.3294 -0.3410
   60SAPC  C220 4652   2.332   2.555   8.635 -0.6038 -0.1010  0.6046
   60SAPC  H20R 4653   2.414   2.531   8.705 -1.7247  0.2108  2.0805
   60SAPC  H20S 4654   2.336   2.666   8.631  1.0172  0.0128  3.4881
   60SAPC  H20T 4655   2.347   2.521   8.530 -2.4942 -1.9807  0.8821
   60SAPC   C33 4656   2.185   2.551  10.164 -0.0265  0.3733  0.1171
   60SAPC   H3X 4657   2.191   2.628  10.244 -1.4452  1.3801 -0.7037
   60SAPC   H3Y 4658   2.077   2.529  10.157 -0.3860  2.0661 -0.0177
   60SAPC   C34 4659   2.218   2.625  10.037 -0.8629 -0.2214  0.4540
   60SAPC   H4X 4660   2.326   2.653  10.038 -0.2986 -2.0924 -1.2132
   60SAPC   H4Y 4661   2.156   2.717  10.031 -1.1843 -0.4912 -0.5219
   60SAPC   C35 4662   2.200   2.542   9.904 -0.3856  0.0178  0.7040
   60SAPC   H5X 4663   2.104   2.487   9.891 -1.3359  1.9047 -0.7224
   60SAPC   H5Y 4664   2.281   2.466   9.901 -0.5352 -0.1142 -0.6856
   60SAPC   C36 4665   2.223   2.612   9.769  0.3846 -0.0601  0.3610
   60SAPC   H6X 4666   2.323   2.660   9.762  0.3819  0.1087  1.3848
   60SAPC   H6Y 4667   2.149   2.694   9.763 -1.9518 -1.7382  3.4074
   60SAPC   C37 4668   2.188   2.517   9.656 -0.2994  0.1704  1.4140
   60SAPC   H7X 4669   2.084   2.478   9.661  0.0443 -2.2026 -3.4554
   60SAPC   H7Y 4670   2.252   2.427   9.665  0.6470  0.5516 -0.8100
   60SAPC   C38 4671   2.222   2.573   9.513  0.1997  0.6239  0.2311
   60SAPC   H8X 4672   2.322   2.621   9.525  1.3273 -1.8913  1.7732
   60SAPC   H8Y 4673   2.149   2.650   9.482 -0.6953  0.1047  0.9938
   60SAPC   C39 4674   2.250   2.476   9.397  0.1893 -0.2898 -0.1942
   60SAPC   H9X 4675   2.147   2.449   9.364  0.0127  0.4538 -0.2603
   60SAPC   H9Y 4676   2.305   2.385   9.432  0.8967  0.6652  1.2704
   60SAPC  C310 4677   2.327   2.536   9.279 -0.9285  0.3176  0.1597
   60SAPC  H10X 4678   2.421   2.565   9.329 -0.9671 -0.4890  0.7279
   60SAPC  H10Y 4679   2.285   2.628   9.234  2.9572  1.7330 -0.9657
   60SAPC  C311 4680   2.355   2.435   9.164  0.2980  0.0748 -0.2178
   60SAPC  H11X 4681   2.260   2.413   9.112 -0.4848  2.0031  0.3338
   60SAPC  H11Y 4682   2.389   2.335   9.199 -0.7232 -0.5160 -0.8780
   60SAPC  C312 4683   2.461   2.492   9.059  0.0886  0.2131  0.4127
   60SAPC  H12X 4684   2.535   2.538   9.128  0.7873 -0.7880  0.3492
   60SAPC  H12Y 4685   2.413   2.577   9.006 -2.6091 -1.6402 -0.3755
   60SAPC  C313 4686   2.532   2.387   8.982 -0.3318 -0.1923 -0.0964
   60SAPC  H13X 4687   2.470   2.313   8.928 -2.7605 -0.0915  2.3256
   60SAPC  H13Y 4688   2.584   2.322   9.056  1.3578  2.2807  1.0335
   60SAPC  C314 4689   2.643   2.426   8.879 -0.1988  0.4209 -0.1825
   60SAPC  H14X 4690   2.580   2.462   8.795 -0.4345  0.2686 -0.0701
   60SAPC  H14Y 4691   2.697   2.333   8.852 -0.5103  0.7295 -1.9955
   60SAPC  C315 4692   2.740   2.537   8.919  0.2779  0.0677  0.5667
   60SAPC  H15X 4693   2.796   2.507   9.011 -1.6252 -0.2005  1.6890
   60SAPC  H15Y 4694   2.680   2.628   8.944  0.7067  0.5807 -0.2184
   60SAPC  C316 4695   2.838   2.590   8.808 -0.1948  0.0198 -0.9414
   60SAPC  H16X 4696   2.907   2.668   8.846 -0.7821  0.4347 -0.7141
   60SAPC  H16Y 4697   2.782   2.634   8.723  1.5475  0.6495 -1.8061
   60SAPC  C317 4698   2.924   2.476   8.756 -0.0477 -0.5500  0.3520
   60SAPC  H17X 4699   2.874   2.387   8.712 -0.3361 -0.6758  0.9278
   60SAPC  H17Y 4700   2.982   2.433   8.840  2.0594 -2.1034 -1.7484
   60SAPC  C318 4701   3.034   2.533   8.668 -0.8956  0.1583  0.7082
   60SAPC  H18X 4702   3.002   2.577   8.571 -1.3854 -2.2940 -0.3094
   60SAPC  H18Y 4703   3.104   2.451   8.642 -0.3960  0.1813  1.9260
   60SAPC  H18Z 4704   3.091   2.605   8.730 -1.0616 -0.2433  1.3353
   61SAPC     N 4705   4.129   0.487  11.066 -0.6174  0.5362  0.5353
   61SAPC   C12 4706   4.188   0.615  10.997  0.3066 -0.5450 -0.8506
   61SAPC  H12A 4707   4.287   0.598  10.958  1.4701 -1.1359  2.1213
   61SAPC  H12B 4708   4.193   0.688  11.076  0.2083 -1.5577  0.1106
   61SAPC   C13 4709   4.009   0.505  11.140 -0.0096  0.9327  0.0235
   61SAPC  H13A 4710   3.932   0.555  11.083 -0.3256 -0.6581 -0.9891
   61SAPC  H13B 4711   3.958   0.415  11.170  0.9233  0.8587  1.4721
   61SAPC  H13C 4712   4.018   0.563  11.231 -0.3962 -0.3428  0.8924
   61SAPC   C14 4713   4.106   0.377  10.965  0.5850 -0.8562 -0.2167
   61SAPC  H14A 4714   4.196   0.354  10.910  1.0803 -0.6829  0.5025
   61SAPC  H14B 4715   4.052   0.293  11.005 -1.8381 -0.1920 -1.8922
   61SAPC  H14C 4716   4.045   0.423  10.889  1.5906  0.6122 -0.1780
   61SAPC   C15 4717   4.228   0.430  11.166  0.5396 -0.4255 -0.1450
   61SAPC  H15A 4718   4.324   0.432  11.117  1.0850 -0.5693  0.8772
   61SAPC  H15B 4719   4.228   0.491  11.256 -0.3274  0.9105 -1.0145
   61SAPC  H15C 4720   4.208   0.326  11.187  1.6287 -1.0939 -2.2210
   61SAPC   C11 4721   4.100   0.698  10.899  0.1350 -0.1604 -0.2513
   61SAPC  H11A 4722   4.091   0.643  10.803 -1.5934  0.0825 -0.2664
   61SAPC  H11B 4723   4.157   0.788  10.869  0.5021 -0.9891 -2.1659
   61SAPC     P 4724   3.948   0.839  11.048 -0.3552 -0.1754 -0.2264
   61SAPC   O13 4725   3.804   0.868  11.060  0.0815 -0.4744  0.1555
   61SAPC   O14 4726   4.029   0.824  11.170 -0.2207 -0.1966  0.1502
   61SAPC   O12 4727   3.972   0.720  10.953 -0.0498  0.1789 -0.3339
   61SAPC   O11 4728   4.008   0.959  10.968 -0.3547 -0.2742 -0.6844
   61SAPC    C1 4729   3.940   1.032  10.868  0.1824 -0.2366  0.7238
   61SAPC    HA 4730   3.831   1.048  10.882 -0.0217  1.2969 -1.9733
   61SAPC    HB 4731   3.986   1.133  10.864 -1.2502  0.4107 -0.2710
   61SAPC    C2 4732   3.940   0.967  10.729  0.4773 -0.8213 -0.0603
   61SAPC    HS 4733   3.887   0.871  10.748  0.6150 -0.8425  0.2319
   61SAPC   O21 4734   4.073   0.947  10.677 -1.0776 -0.1468 -0.5018
   61SAPC   C21 4735   4.095   0.847  10.594 -0.2526  0.1718  0.1727
   61SAPC   O22 4736   4.007   0.766  10.570  0.2157 -0.2659  0.4283
   61SAPC   C22 4737   4.222   0.860  10.515 -0.1447  0.2928  0.5386
   61SAPC   H2R 4738   4.219   0.949  10.449  0.2940 -1.0403 -1.3749
   61SAPC   H2S 4739   4.300   0.880  10.591  0.4017  0.6600 -0.1195
   61SAPC    C3 4740   3.852   1.047  10.625  0.3580  0.3291  0.5779
   61SAPC    HX 4741   3.894   1.141  10.585 -2.1532  0.5010 -2.0005
   61SAPC    HY 4742   3.766   1.088  10.682 -2.8450 -1.3603 -2.5951
   61SAPC   O31 4743   3.802   0.958  10.520  0.1730  0.3232 -0.5173
   61SAPC   C31 4744   3.837   0.974  10.402 -0.4992 -0.2523  0.7747
   61SAPC   O32 4745   3.914   1.059  10.358 -0.5403 -0.5389 -0.6437
   61SAPC   C32 4746   3.769   0.870  10.315  0.6298 -0.6706 -0.2911
   61SAPC   H2X 4747   3.660   0.891  10.307  0.6586  1.9581  3.6690
   61SAPC   H2Y 4748   3.793   0.777  10.371  3.1561  0.0110 -0.1540
   61SAPC   C23 4749   4.270   0.735  10.438 -0.1089 -0.1520  0.1752
   61SAPC   H3R 4750   4.241   0.653  10.507 -0.1755 -1.6837 -1.5870
   61SAPC   H3S 4751   4.381   0.731  10.434 -0.0220  0.4477  1.6429
   61SAPC   C24 4752   4.207   0.693  10.301 -0.6571 -0.3580 -1.1643
   61SAPC   H4R 4753   4.096   0.691  10.308 -0.6491  1.6144  0.2997
   61SAPC   H4S 4754   4.242   0.588  10.286  3.2488 -0.0356  3.2343
   61SAPC   C25 4755   4.247   0.784  10.189  0.0060  0.5440  0.2843
   61SAPC   H5R 4756   4.258   0.891  10.213  1.8052  0.4808 -0.0991
   61SAPC   C26 4757   4.265   0.751  10.065 -0.0972  0.5069 -0.5140
   61SAPC   H6R 4758   4.294   0.826   9.990 -2.7273  1.1028 -1.0464
   61SAPC   C27 4759   4.266   0.610  10.003  0.3621 -0.3610 -0.4898
   61SAPC   H7R 4760   4.167   0.587   9.958 -0.9053 -1.0100  2.4033
   61SAPC   H7S 4761   4.284   0.535  10.083 -1.3237  1.6860  1.9719
   61SAPC   C28 4762   4.369   0.591   9.886  0.1087  0.5760  0.1748
   61SAPC   H8R 4763   4.439   0.515   9.922  0.5371  1.3609  1.0357
   61SAPC   C29 4764   4.366   0.639   9.763  0.3918  0.1607 -0.3988
   61SAPC   H9R 4765   4.445   0.615   9.691  2.7149  1.0966  1.6796
   61SAPC  C210 4766   4.264   0.741   9.711  0.4157 -0.1632  0.2708
   61SAPC  H10R 4767   4.311   0.842   9.703 -1.2119  0.4683 -3.9930
   61SAPC  H10S 4768   4.179   0.765   9.779 -0.8015  2.5827 -1.9995
   61SAPC  C211 4769   4.206   0.685   9.582  0.4330  0.2133 -0.0701
   61SAPC  H11R 4770   4.103   0.648   9.591  0.3784 -0.5948 -3.0309
   61SAPC  C212 4771   4.257   0.681   9.464  0.0841  0.2215  0.8504
   61SAPC  H12R 4772   4.207   0.635   9.378  1.8948 -1.6496  0.7117
   61SAPC  C213 4773   4.396   0.727   9.427 -1.1625 -0.2069  0.4824
   61SAPC  H13R 4774   4.450   0.644   9.376  1.0270  1.2580  0.3038
   61SAPC  H13S 4775   4.462   0.743   9.515  2.6433 -4.3870 -1.1889
   61SAPC  C214 4776   4.394   0.843   9.330 -0.2325  0.5179 -0.7613
   61SAPC  H14R 4777   4.418   0.945   9.365 -1.7082  1.1011 -1.3610
   61SAPC  C215 4778   4.363   0.841   9.199  0.2878  0.1631 -0.1721
   61SAPC  H15R 4779   4.359   0.929   9.134  1.0436  0.3274 -0.0077
   61SAPC  C216 4780   4.334   0.713   9.126  0.5062 -0.0203 -0.5315
   61SAPC  H16R 4781   4.258   0.660   9.188  0.8550  1.8943  1.6887
   61SAPC  H16S 4782   4.416   0.638   9.118  1.5276  0.8702  1.0850
   61SAPC  C217 4783   4.274   0.734   8.986 -0.4592 -0.2239  0.6860
   61SAPC  H17R 4784   4.172   0.777   8.985 -0.6593 -0.5672 -2.1712
   61SAPC  H17S 4785   4.247   0.634   8.947 -2.1369  0.0362  1.1352
   61SAPC  C218 4786   4.375   0.801   8.888  0.6500 -0.2298  0.1411
   61SAPC  H18R 4787   4.480   0.766   8.897 -0.1143 -3.1073 -0.9606
   61SAPC  H18S 4788   4.374   0.911   8.903 -0.3231 -0.2762  0.4981
   61SAPC  C219 4789   4.323   0.778   8.745  0.5751  0.4021  0.5538
   61SAPC  H19R 4790   4.214   0.796   8.741  0.5900  0.2775 -0.9593
   61SAPC  H19S 4791   4.330   0.669   8.723 -1.7031  0.8956 -3.6132
   61SAPC  C220 4792   4.402   0.850   8.632 -0.4645  0.3775  0.3907
   61SAPC  H20R 4793   4.393   0.958   8.653  1.6145  0.1002  3.2550
   61SAPC  H20S 4794   4.375   0.819   8.529  1.4149 -1.4195  0.3542
   61SAPC  H20T 4795   4.510   0.826   8.645 -0.5132 -0.5657 -0.7449
   61SAPC   C33 4796   3.833   0.835  10.177  0.5170  0.1762 -0.1255
   61SAPC   H3X 4797   3.783   0.739  10.150  3.0689 -1.0099 -0.9678
   61SAPC   H3Y 4798   3.940   0.806  10.187  0.1426 -1.4080 -0.4146
   61SAPC   C34 4799   3.802   0.926  10.062 -1.0529 -0.2353  0.0536
   61SAPC   H4X 4800   3.856   1.018  10.093  2.8739 -3.0625  2.3996
   61SAPC   H4Y 4801   3.700   0.957  10.031 -1.0257 -0.3730 -0.1753
   61SAPC   C35 4802   3.869   0.874   9.934  0.1864 -0.1616  0.6558
   61SAPC   H5X 4803   3.809   0.788   9.897  0.2048  0.3776 -0.6984
   61SAPC   H5Y 4804   3.974   0.841   9.953  0.8718  1.0438 -0.7735
   61SAPC   C36 4805   3.851   0.986   9.830  0.0174  0.1446 -0.5710
   61SAPC   H6X 4806   3.913   1.070   9.867 -0.0156 -0.7465  1.6420
   61SAPC   H6Y 4807   3.744   1.015   9.822 -0.3286 -0.3656  1.6142
   61SAPC   C37 4808   3.904   0.930   9.692  0.4898  0.1981 -0.0701
   61SAPC   H7X 4809   3.842   0.841   9.667  1.5422  0.2702 -3.4020
   61SAPC   H7Y 4810   4.007   0.896   9.715 -0.2445 -0.9969  1.7284
   61SAPC   C38 4811   3.896   1.024   9.566  0.2071 -0.4110 -0.1593
   61SAPC   H8X 4812   3.937   1.123   9.596  0.6451 -0.1372 -1.5874
   61SAPC   H8Y 4813   3.792   1.043   9.532  0.2039 -0.4321 -0.1617
   61SAPC   C39 4814   3.986   0.987   9.454 -0.6738  0.5908  0.0541
   61SAPC   H9X 4815   3.951   0.884   9.435 -1.4321  0.9558 -0.6168
   61SAPC   H9Y 4816   4.088   0.985   9.499 -0.9313  0.4482  0.6361
   61SAPC  C310 4817   3.981   1.079   9.325  0.6201  0.3836  0.3154
   61SAPC  H10X 4818   3.995   1.185   9.356  0.7416  0.6148 -0.5159
   61SAPC  H10Y 4819   3.881   1.092   9.279  0.6385 -0.8049 -0.0947
   61SAPC  C311 4820   4.081   1.041   9.223 -0.1847 -0.4475  0.2222
   61SAPC  H11X 4821   4.099   0.932   9.217 -1.4608 -0.6891  0.5719
   61SAPC  H11Y 4822   4.180   1.075   9.262 -0.4155  2.0741 -1.1209
   61SAPC  C312 4823   4.053   1.113   9.087 -0.4879  0.0505 -0.2101
   61SAPC  H12X 4824   4.030   1.220   9.102 -2.5953 -0.5064  1.0882
   61SAPC  H12Y 4825   3.970   1.060   9.036 -0.1109 -0.7199 -0.0401
   61SAPC  C313 4826   4.185   1.107   9.001  0.5882  0.3043 -0.1146
   61SAPC  H13X 4827   4.191   1.011   8.945 -1.0521  1.0218 -1.6037
   61SAPC  H13Y 4828   4.270   1.122   9.071 -0.1431  0.6694  0.7166
   61SAPC  C314 4829   4.195   1.221   8.898 -0.0013 -0.2985  0.0704
   61SAPC  H14X 4830   4.298   1.219   8.854 -0.2712  1.9159 -0.8099
   61SAPC  H14Y 4831   4.190   1.324   8.940 -0.7076 -0.5865  0.7037
   61SAPC  C315 4832   4.112   1.215   8.768 -0.5763  0.2351  0.1165
   61SAPC  H15X 4833   4.169   1.301   8.727  0.9373  0.2412  2.0881
   61SAPC  H15Y 4834   4.006   1.234   8.796 -0.7237 -0.5307  0.0876
   61SAPC  C316 4835   4.124   1.094   8.675  0.4634  0.0009 -0.3814
   61SAPC  H16X 4836   4.102   1.001   8.731 -0.4421  0.6256  0.3379
   61SAPC  H16Y 4837   4.226   1.093   8.630 -0.8344 -0.8972 -3.5705
   61SAPC  C317 4838   4.021   1.108   8.554 -0.3389  0.0170 -0.4706
   61SAPC  H17X 4839   4.065   1.063   8.462 -1.3480 -1.0399 -0.4581
   61SAPC  H17Y 4840   4.018   1.217   8.534  0.7134  0.2202  0.3721
   61SAPC  C318 4841   3.879   1.044   8.570  0.0156 -0.2084  0.0515
   61SAPC  H18X 4842   3.824   1.110   8.641  1.0268  0.0410  0.6235
   61SAPC  H18Y 4843   3.890   0.938   8.601  1.8131 -0.1890 -0.4220
   61SAPC  H18Z 4844   3.828   1.046   8.471  3.0852  0.6140 -1.6234
   62SAPC     N 4845   4.605   6.370  11.117 -0.2134  0.2572  0.4983
   62SAPC   C12 4846   4.596   6.278  10.998 -0.0885 -0.5102 -0.3395
   62SAPC  H12A 4847   4.500   6.229  10.990 -1.2832  1.6935 -0.1966
   62SAPC  H12B 4848   4.668   6.198  11.009  1.1168  0.1309 -2.9298
   62SAPC   C13 4849   4.569   6.285  11.239  0.8971  0.0178 -0.3538
   62SAPC  H13A 4850   4.486   6.222  11.210  2.0245 -0.8109 -1.9092
   62SAPC  H13B 4851   4.642   6.211  11.268  0.8372  1.0266  2.7084
   62SAPC  H13C 4852   4.532   6.344  11.321  0.6533  1.1496 -1.2473
   62SAPC   C14 4853   4.741   6.431  11.131 -0.1119 -0.0571  0.4958
   62SAPC  H14A 4854   4.752   6.488  11.222  1.2007 -1.0043  0.9509
   62SAPC  H14B 4855   4.812   6.351  11.146 -0.1634 -0.1281  0.3711
   62SAPC  H14C 4856   4.771   6.483  11.041 -1.4734  0.3292  0.2443
   62SAPC   C15 4857   4.499   6.472  11.093 -0.6381  0.3019 -0.0507
   62SAPC  H15A 4858   4.491   6.550  11.168 -0.6543  1.2399 -0.9951
   62SAPC  H15B 4859   4.512   6.506  10.991  0.2231 -1.6505 -0.6367
   62SAPC  H15C 4860   4.399   6.433  11.093 -1.0046  1.1462  1.6673
   62SAPC   C11 4861   4.619   6.332  10.860 -0.1186 -0.1714  0.1084
   62SAPC  H11A 4862   4.632   6.251  10.786  1.3870 -0.9195  1.1153
   62SAPC  H11B 4863   4.708   6.399  10.853 -0.8825  0.7499 -0.9358
   62SAPC     P 4864   4.517   6.549  10.722 -0.1462  0.6623  0.1493
   62SAPC   O13 4865   4.405   6.633  10.757  0.2994 -0.5165 -0.3312
   62SAPC   O14 4866   4.652   6.604  10.736 -0.3499 -0.4697  0.0139
   62SAPC   O12 4867   4.508   6.412  10.814 -0.4805 -0.4053 -0.2772
   62SAPC   O11 4868   4.481   6.494  10.575 -0.5741 -0.0692 -0.3225
   62SAPC    C1 4869   4.412   6.373  10.557  0.0276  1.0487 -0.1983
   62SAPC    HA 4870   4.486   6.297  10.523 -0.1725  1.2799 -1.1860
   62SAPC    HB 4871   4.369   6.336  10.652 -0.4477  0.7129 -0.5402
   62SAPC    C2 4872   4.317   6.387  10.442  0.2910 -0.0101  0.7236
   62SAPC    HS 4873   4.275   6.286  10.427 -1.1183  0.6586 -0.0149
   62SAPC   O21 4874   4.397   6.420  10.329 -0.5702 -0.2757  0.0247
   62SAPC   C21 4875   4.342   6.367  10.214  0.4993 -0.2335  0.5287
   62SAPC   O22 4876   4.252   6.284  10.214  0.0099  0.4283  0.2223
   62SAPC   C22 4877   4.418   6.416  10.089  0.7685 -0.4543 -0.0239
   62SAPC   H2R 4878   4.400   6.525  10.082 -0.5114 -0.4361  2.3701
   62SAPC   H2S 4879   4.524   6.389  10.107  1.6122  0.2418 -3.3192
   62SAPC    C3 4880   4.207   6.494  10.480  0.3828  0.5564  0.7100
   62SAPC    HX 4881   4.260   6.592  10.485  1.5430 -0.0348  0.3833
   62SAPC    HY 4882   4.161   6.453  10.573 -0.1301  1.0221  0.6674
   62SAPC   O31 4883   4.104   6.507  10.375  0.0798  0.4042 -0.7748
   62SAPC   C31 4884   4.003   6.589  10.406 -0.1883 -0.9957  0.3264
   62SAPC   O32 4885   3.983   6.638  10.518  0.5587 -0.4830  0.5717
   62SAPC   C32 4886   3.915   6.613  10.278  0.7710 -0.1998  0.2083
   62SAPC   H2X 4887   3.867   6.711  10.295 -0.0459 -0.6250  0.3865
   62SAPC   H2Y 4888   3.831   6.541  10.272  0.8386 -0.4107  1.5516
   62SAPC   C23 4889   4.369   6.354   9.955 -0.9291 -0.6468  0.1173
   62SAPC   H3R 4890   4.268   6.396   9.936 -1.0489 -0.6561  0.7186
   62SAPC   H3S 4891   4.361   6.244   9.965  1.4843 -0.8243  0.8101
   62SAPC   C24 4892   4.467   6.385   9.843 -0.3659 -0.0122 -0.2582
   62SAPC   H4R 4893   4.485   6.298   9.777 -0.0228 -0.2266  0.1171
   62SAPC   H4S 4894   4.567   6.383   9.892 -1.1291 -1.6994  1.3318
   62SAPC   C25 4895   4.437   6.515   9.769  0.3634 -0.5781  0.1320
   62SAPC   H5R 4896   4.445   6.606   9.830  2.5131 -0.5506 -0.1072
   62SAPC   C26 4897   4.404   6.539   9.642  0.6281  0.2036  0.6114
   62SAPC   H6R 4898   4.390   6.642   9.607 -0.7340  0.2071  1.1110
   62SAPC   C27 4899   4.386   6.436   9.527  0.1290 -0.0763  0.1475
   62SAPC   H7R 4900   4.390   6.331   9.564  0.6367 -0.7479 -1.7169
   62SAPC   H7S 4901   4.467   6.457   9.454  0.3898 -3.2981 -0.6453
   62SAPC   C28 4902   4.250   6.456   9.460 -0.1838  0.3056 -0.0868
   62SAPC   H8R 4903   4.163   6.470   9.526 -1.5980  0.0145 -1.8144
   62SAPC   C29 4904   4.223   6.461   9.329 -0.1952  0.4021 -0.3404
   62SAPC   H9R 4905   4.117   6.478   9.303 -0.2627 -1.9375 -1.9733
   62SAPC  C210 4906   4.321   6.455   9.211 -0.1829  0.4677  0.4442
   62SAPC  H10R 4907   4.350   6.349   9.196 -0.1786  0.5827 -0.4256
   62SAPC  H10S 4908   4.419   6.499   9.236  0.8876 -1.9691  0.7806
   62SAPC  C211 4909   4.270   6.519   9.084  0.0610 -0.1278 -1.6038
   62SAPC  H11R 4910   4.305   6.623   9.075  0.8013 -0.1724  0.4082
   62SAPC  C212 4911   4.177   6.469   9.001 -0.0192 -0.3341 -0.5286
   62SAPC  H12R 4912   4.148   6.522   8.909 -1.6912  1.7205  1.0691
   62SAPC  C213 4913   4.124   6.327   9.008  0.1461  0.6504 -0.6933
   62SAPC  H13R 4914   4.196   6.267   9.067  0.5359  0.8229 -0.9866
   62SAPC  H13S 4915   4.129   6.283   8.906  1.2113  0.6897 -0.6688
   62SAPC  C214 4916   3.977   6.312   9.050 -0.3218  0.2349 -0.3578
   62SAPC  H14R 4917   3.960   6.324   9.159  0.5325 -1.1906 -0.0339
   62SAPC  C215 4918   3.874   6.281   8.969  0.0166  0.6513  0.3749
   62SAPC  H15R 4919   3.772   6.293   9.009  0.3537  2.4420  0.7891
   62SAPC  C216 4920   3.865   6.256   8.819  0.2668 -0.4183 -0.3414
   62SAPC  H16R 4921   3.781   6.189   8.791  1.5383 -1.5293 -1.6846
   62SAPC  H16S 4922   3.952   6.192   8.791  1.6209  0.4644  1.5782
   62SAPC  C217 4923   3.869   6.388   8.744  0.1928  0.0336  0.0583
   62SAPC  H17R 4924   3.954   6.446   8.785 -0.5946  0.1511  1.6154
   62SAPC  H17S 4925   3.773   6.445   8.756  1.0612  1.1646  2.4037
   62SAPC  C218 4926   3.908   6.372   8.596 -0.4092 -0.5520 -0.3797
   62SAPC  H18R 4927   4.000   6.311   8.586  2.5813  3.3190  1.0402
   62SAPC  H18S 4928   3.928   6.469   8.545 -0.5494 -0.2438  0.1463
   62SAPC  C219 4929   3.806   6.285   8.522 -0.5009 -0.0840 -0.7328
   62SAPC  H19R 4930   3.705   6.323   8.547 -0.7137 -1.6803  1.0930
   62SAPC  H19S 4931   3.820   6.183   8.565  2.3089  1.5732  2.7491
   62SAPC  C220 4932   3.827   6.268   8.370  0.2134 -0.4226 -0.3528
   62SAPC  H20R 4933   3.732   6.225   8.332 -0.6118  0.9304  0.1184
   62SAPC  H20S 4934   3.916   6.208   8.341  0.1021 -1.0486  0.5768
   62SAPC  H20T 4935   3.836   6.368   8.321 -1.6351  0.2447  0.5801
   62SAPC   C33 4936   3.996   6.621  10.145 -0.0245  0.2777  0.2452
   62SAPC   H3X 4937   3.938   6.622  10.050 -2.0444  1.3436  1.4220
   62SAPC   H3Y 4938   4.067   6.536  10.143  0.1596  0.4203  0.6621
   62SAPC   C34 4939   4.088   6.744  10.129 -0.1275  0.2678 -0.1453
   62SAPC   H4X 4940   4.156   6.746  10.217 -0.7581  2.7557  0.3694
   62SAPC   H4Y 4941   4.031   6.838  10.145 -2.2543 -0.8804 -0.6212
   62SAPC   C35 4942   4.176   6.755  10.004  0.4477 -0.2000  0.3229
   62SAPC   H5X 4943   4.108   6.764   9.917 -1.6593 -0.7711  1.8284
   62SAPC   H5Y 4944   4.248   6.672   9.990 -1.2309 -1.5678 -0.5516
   62SAPC   C36 4945   4.270   6.878  10.003 -0.1383 -0.1623 -0.0081
   62SAPC   H6X 4946   4.324   6.887  10.100  0.3080  0.3734 -0.3013
   62SAPC   H6Y 4947   4.204   6.967  10.004  0.3083  0.2428  3.3794
   62SAPC   C37 4948   4.377   6.874   9.893  0.4361  0.2135 -0.8293
   62SAPC   H7X 4949   4.447   6.791   9.914  1.3071  1.6005  2.3209
   62SAPC   H7Y 4950   4.440   6.964   9.907  0.0299  0.5202 -0.9362
   62SAPC   C38 4951   4.321   6.880   9.752 -0.1042  0.2838 -0.6172
   62SAPC   H8X 4952   4.252   6.967   9.746 -1.8667 -0.8118  2.0297
   62SAPC   H8Y 4953   4.267   6.787   9.727 -0.5715  0.1514  0.8192
   62SAPC   C39 4954   4.432   6.905   9.647 -0.2796 -0.6114 -0.0179
   62SAPC   H9X 4955   4.504   6.821   9.659 -2.0275 -2.0258  1.1971
   62SAPC   H9Y 4956   4.489   7.000   9.658 -0.0424 -0.7192 -0.2810
   62SAPC  C310 4957   4.371   6.898   9.507  0.6843 -0.7406  0.7738
   62SAPC  H10X 4958   4.279   6.837   9.515  0.3522 -0.5564 -1.1646
   62SAPC  H10Y 4959   4.445   6.837   9.450  2.3713 -0.3909  2.4963
   62SAPC  C311 4960   4.335   7.031   9.442 -0.5609  0.2072 -0.2547
   62SAPC  H11X 4961   4.428   7.088   9.419 -0.4060  0.3120  0.5934
   62SAPC  H11Y 4962   4.274   7.096   9.508 -0.8833 -0.2649 -0.0855
   62SAPC  C312 4963   4.265   6.998   9.308 -0.5115  0.6248 -0.8381
   62SAPC  H12X 4964   4.156   6.988   9.330  0.0063  1.3598  2.6343
   62SAPC  H12Y 4965   4.292   6.899   9.266 -2.6484  0.5329 -2.1414
   62SAPC  C313 4966   4.293   7.095   9.196  0.3797 -0.5087  0.1289
   62SAPC  H13X 4967   4.401   7.081   9.172  1.0262  1.3597  1.6331
   62SAPC  H13Y 4968   4.272   7.201   9.221 -3.0343 -0.6551 -1.5485
   62SAPC  C314 4969   4.200   7.082   9.073  0.4514  0.5394 -0.5890
   62SAPC  H14X 4970   4.241   7.133   8.984  1.1141  0.0711 -0.5548
   62SAPC  H14Y 4971   4.108   7.141   9.093  0.1358  0.2992 -1.3081
   62SAPC  C315 4972   4.157   6.940   9.044  0.1217  0.8672  0.9031
   62SAPC  H15X 4973   4.090   6.909   9.128  0.5047 -2.0514  0.2166
   62SAPC  H15Y 4974   4.244   6.872   9.045  1.3987  2.3350 -1.5868
   62SAPC  C316 4975   4.104   6.913   8.902  0.4075 -0.2722  0.0214
   62SAPC  H16X 4976   4.193   6.913   8.836  0.2374  2.0466 -0.3186
   62SAPC  H16Y 4977   4.046   7.004   8.873 -1.6824 -1.3140  0.7220
   62SAPC  C317 4978   4.015   6.795   8.884 -0.2564 -0.3874  0.1284
   62SAPC  H17X 4979   4.041   6.707   8.946 -1.7316 -2.2344 -1.7471
   62SAPC  H17Y 4980   4.034   6.771   8.777  0.5531  1.7219 -0.2499
   62SAPC  C318 4981   3.863   6.828   8.920  0.3511  0.3685  0.4071
   62SAPC  H18X 4982   3.857   6.876   9.020  1.0654  0.9663  0.1700
   62SAPC  H18Y 4983   3.805   6.733   8.921  3.0486 -1.3635  1.1543
   62SAPC  H18Z 4984   3.823   6.893   8.839  3.0352 -0.3651 -1.6295
   63SAPC     N 4985   4.280   6.243   6.225  0.2529  1.0079  0.2221
   63SAPC   C12 4986   4.179   6.344   6.282 -0.4299 -0.5720 -0.0710
   63SAPC  H12A 4987   4.191   6.332   6.389  1.9349  2.3843  0.1180
   63SAPC  H12B 4988   4.084   6.296   6.267  0.7506 -2.9015 -0.4610
   63SAPC   C13 4989   4.253   6.102   6.281 -0.4003 -0.1121 -0.1254
   63SAPC  H13A 4990   4.146   6.087   6.279 -0.4741  0.4117 -0.2931
   63SAPC  H13B 4991   4.294   6.019   6.225 -0.1857 -0.2343  0.2105
   63SAPC  H13C 4992   4.288   6.099   6.383 -1.0112 -0.6360  0.0711
   63SAPC   C14 4993   4.288   6.230   6.073 -0.0024  0.3623 -0.1536
   63SAPC  H14A 4994   4.361   6.152   6.055  2.5522  2.0652  2.0050
   63SAPC  H14B 4995   4.195   6.200   6.028  1.6513 -4.3981 -1.0171
   63SAPC  H14C 4996   4.314   6.323   6.024 -2.2839  1.2363  0.1840
   63SAPC   C15 4997   4.422   6.278   6.262 -0.3148  0.7260  0.0244
   63SAPC  H15A 4998   4.478   6.197   6.218 -1.8602 -1.3924  1.7941
   63SAPC  H15B 4999   4.456   6.364   6.206  0.8179  1.5487  1.8819
   63SAPC  H15C 5000   4.433   6.290   6.368  0.1793 -0.5075  0.1270
   63SAPC   C11 5001   4.169   6.493   6.243 -0.6413  0.4234  0.1018
   63SAPC  H11A 5002   4.081   6.528   6.302 -0.6909  2.3601 -1.0280
   63SAPC  H11B 5003   4.142   6.497   6.135  1.6558  0.8967 -0.5006
   63SAPC     P 5004   4.313   6.618   6.417 -0.1935 -0.3672  0.4940
   63SAPC   O13 5005   4.443   6.570   6.469  0.1638 -0.2907  0.1793
   63SAPC   O14 5006   4.310   6.768   6.398 -0.3366  0.8029 -0.1639
   63SAPC   O12 5007   4.287   6.560   6.278 -0.6958  0.2464 -0.4000
   63SAPC   O11 5008   4.196   6.571   6.510 -0.8148 -0.1259 -0.6322
   63SAPC    C1 5009   4.107   6.649   6.595  0.2387 -0.0106 -0.4963
   63SAPC    HA 5010   4.106   6.754   6.558 -0.3415  0.0926 -0.1993
   63SAPC    HB 5011   4.002   6.615   6.581  0.0717 -0.3079  1.2816
   63SAPC    C2 5012   4.148   6.646   6.742  0.5034  0.5111  0.7633
   63SAPC    HS 5013   4.258   6.665   6.740  0.5537  0.6007 -2.6825
   63SAPC   O21 5014   4.117   6.515   6.776  0.1417  0.4620 -0.1466
   63SAPC   C21 5015   4.201   6.452   6.864 -0.6190  0.4468  0.6901
   63SAPC   O22 5016   4.297   6.503   6.920 -0.1412 -0.1981 -0.4698
   63SAPC   C22 5017   4.159   6.306   6.875 -0.5251  0.0055 -0.1485
   63SAPC   H2R 5018   4.048   6.300   6.872 -0.4715 -0.8063 -1.2735
   63SAPC   H2S 5019   4.200   6.254   6.785  2.3465 -0.6423  1.3982
   63SAPC    C3 5020   4.073   6.748   6.834  0.0475  0.2741 -0.1788
   63SAPC    HX 5021   3.965   6.756   6.810  0.4531  0.9685 -1.9095
   63SAPC    HY 5022   4.104   6.853   6.813 -2.7983  1.8194  2.5490
   63SAPC   O31 5023   4.083   6.709   6.975  0.2525 -0.0323 -0.4501
   63SAPC   C31 5024   4.183   6.781   7.034  0.0418  0.5640 -0.5612
   63SAPC   O32 5025   4.229   6.884   6.993  0.3490  0.2869 -0.2938
   63SAPC   C32 5026   4.219   6.717   7.170 -0.2959  0.7257 -0.0003
   63SAPC   H2X 5027   4.260   6.614   7.166  0.4877  1.0313 -0.0758
   63SAPC   H2Y 5028   4.131   6.721   7.237  0.3365  0.0849  0.8957
   63SAPC   C23 5029   4.207   6.238   7.004 -0.4253  0.9323  0.1090
   63SAPC   H3R 5030   4.185   6.276   7.106 -2.5195  0.6200 -0.1942
   63SAPC   H3S 5031   4.317   6.227   6.992 -0.4241  1.9134 -0.9893
   63SAPC   C24 5032   4.164   6.089   7.015  0.6108 -0.0626  0.0134
   63SAPC   H4R 5033   4.053   6.083   7.013  0.6133  0.0373 -0.5911
   63SAPC   H4S 5034   4.191   6.043   7.112  0.8593 -0.8141 -0.3999
   63SAPC   C25 5035   4.202   6.006   6.892 -0.2439  0.1275  0.2775
   63SAPC   H5R 5036   4.183   6.051   6.793 -0.8961  0.0561  0.3657
   63SAPC   C26 5037   4.261   5.884   6.897  0.2484  0.5851 -0.8664
   63SAPC   H6R 5038   4.279   5.841   6.797 -0.5626 -2.8259  0.3125
   63SAPC   C27 5039   4.293   5.792   7.018 -0.3932  0.1062 -0.6513
   63SAPC   H7R 5040   4.357   5.849   7.088  0.7720 -1.6325 -0.2468
   63SAPC   H7S 5041   4.346   5.700   6.985 -1.1827 -1.2297  1.5946
   63SAPC   C28 5042   4.166   5.734   7.083 -0.6817 -0.1172 -0.3012
   63SAPC   H8R 5043   4.071   5.722   7.029 -1.6552  0.5197  1.2019
   63SAPC   C29 5044   4.145   5.733   7.220 -0.5592 -0.0690 -0.4599
   63SAPC   H9R 5045   4.053   5.690   7.262 -0.0656 -3.1120 -2.1805
   63SAPC  C210 5046   4.239   5.766   7.335 -0.7240  0.0050  0.7077
   63SAPC  H10R 5047   4.342   5.760   7.293 -0.6154 -0.3344  1.0163
   63SAPC  H10S 5048   4.235   5.679   7.404  0.3001 -0.7962 -0.2009
   63SAPC  C211 5049   4.213   5.905   7.391 -0.1026  0.1786 -0.5470
   63SAPC  H11R 5050   4.216   5.985   7.316 -1.3055  1.6152  0.8644
   63SAPC  C212 5051   4.213   5.950   7.519 -0.5092 -0.2956  0.6767
   63SAPC  H12R 5052   4.202   6.058   7.536 -0.8600 -0.1871 -0.1764
   63SAPC  C213 5053   4.236   5.863   7.639 -0.8713 -0.4392 -0.9045
   63SAPC  H13R 5054   4.262   5.759   7.610  0.1012  0.2482 -2.6655
   63SAPC  H13S 5055   4.144   5.871   7.701 -0.7219 -0.0339 -0.7297
   63SAPC  C214 5056   4.351   5.926   7.725  0.2829 -0.5481 -0.3657
   63SAPC  H14R 5057   4.447   5.940   7.674 -0.9420  0.0165 -2.6575
   63SAPC  C215 5058   4.352   5.969   7.856  0.7853 -0.0903 -0.4161
   63SAPC  H15R 5059   4.437   6.031   7.887  0.9068  0.2552 -1.4356
   63SAPC  C216 5060   4.236   5.954   7.947 -0.0902 -0.1021  0.1192
   63SAPC  H16R 5061   4.274   5.908   8.041  1.3384  1.9781  0.6336
   63SAPC  H16S 5062   4.167   5.876   7.910 -0.0176  0.1781 -0.6145
   63SAPC  C217 5063   4.143   6.074   7.971 -0.6384  0.6364  0.3011
   63SAPC  H17R 5064   4.044   6.039   8.009  0.1121 -1.5790  0.3614
   63SAPC  H17S 5065   4.113   6.125   7.876 -2.4402  0.3335  0.6668
   63SAPC  C218 5066   4.186   6.177   8.080 -0.2530 -0.2175 -0.3262
   63SAPC  H18R 5067   4.216   6.121   8.171  2.1163  2.7114  0.8923
   63SAPC  H18S 5068   4.091   6.221   8.116  0.1539 -0.6765  1.3874
   63SAPC  C219 5069   4.274   6.286   8.021  0.0275  0.4104  0.6007
   63SAPC  H19R 5070   4.205   6.308   7.937 -0.7339 -1.5530  0.6447
   63SAPC  H19S 5071   4.360   6.239   7.969 -1.4031  0.8653 -2.3898
   63SAPC  C220 5072   4.329   6.400   8.108  0.5377  0.4200  0.6410
   63SAPC  H20R 5073   4.384   6.465   8.037  1.4840 -2.6457 -1.6439
   63SAPC  H20S 5074   4.402   6.373   8.187  1.1212 -1.6535 -0.5328
   63SAPC  H20T 5075   4.243   6.452   8.157  0.8153 -1.2360  3.0321
   63SAPC   C33 5076   4.326   6.801   7.248  0.1833 -0.6572  0.5640
   63SAPC   H3X 5077   4.298   6.909   7.254 -0.1771 -0.7544  0.6669
   63SAPC   H3Y 5078   4.414   6.795   7.181 -1.3999 -1.8429 -1.5029
   63SAPC   C34 5079   4.354   6.745   7.388 -0.3362  0.0183 -0.3257
   63SAPC   H4X 5080   4.413   6.651   7.386  0.2231  0.3699 -0.4266
   63SAPC   H4Y 5081   4.262   6.725   7.447 -1.6391  1.6793 -1.6787
   63SAPC   C35 5082   4.430   6.853   7.464  0.1065  0.2195 -0.2636
   63SAPC   H5X 5083   4.370   6.941   7.495  2.3287  1.5587  0.4693
   63SAPC   H5Y 5084   4.511   6.901   7.405  1.1331  0.0562  0.9791
   63SAPC   C36 5085   4.479   6.789   7.593  0.2461  0.1725 -0.3247
   63SAPC   H6X 5086   4.556   6.710   7.577 -0.4848 -0.2796 -1.8042
   63SAPC   H6Y 5087   4.401   6.732   7.648  0.5486 -1.3565 -1.4050
   63SAPC   C37 5088   4.512   6.895   7.700  0.1799 -1.0413 -0.1629
   63SAPC   H7X 5089   4.428   6.960   7.732  1.3001  2.2215 -3.1685
   63SAPC   H7Y 5090   4.591   6.966   7.669 -0.9646  2.0113  3.2599
   63SAPC   C38 5091   4.562   6.830   7.822  0.1017  0.1862 -0.1628
   63SAPC   H8X 5092   4.648   6.764   7.798  0.1641 -0.0889  0.7902
   63SAPC   H8Y 5093   4.479   6.765   7.858  2.9381 -1.9053  3.1221
   63SAPC   C39 5094   4.589   6.921   7.946 -0.5734 -1.1530  0.4626
   63SAPC   H9X 5095   4.496   6.970   7.980  0.8990  0.6987  2.0561
   63SAPC   H9Y 5096   4.658   7.004   7.918 -2.3050  0.7622  1.5888
   63SAPC  C310 5097   4.640   6.835   8.062  0.2713 -0.8798  0.3252
   63SAPC  H10X 5098   4.732   6.783   8.027 -0.6902 -2.4367  0.0211
   63SAPC  H10Y 5099   4.561   6.759   8.077 -0.7005 -0.0238 -0.3427
   63SAPC  C311 5100   4.660   6.914   8.186  0.7354  0.4690 -0.4253
   63SAPC  H11X 5101   4.568   6.970   8.212  1.3489  1.3007  0.0157
   63SAPC  H11Y 5102   4.734   6.995   8.167  0.6082  0.5247 -0.6841
   63SAPC  C312 5103   4.708   6.844   8.321 -0.8693 -0.1002  0.3685
   63SAPC  H12X 5104   4.815   6.818   8.314 -0.5572  1.2835 -0.3433
   63SAPC  H12Y 5105   4.646   6.752   8.331  1.0409 -1.4532  0.1597
   63SAPC  C313 5106   4.703   6.945   8.441  0.3716 -0.1336 -0.3880
   63SAPC  H13X 5107   4.606   6.996   8.423 -0.3340 -1.7002 -1.1369
   63SAPC  H13Y 5108   4.780   7.025   8.443  0.8549 -0.6148  0.3518
   63SAPC  C314 5109   4.713   6.880   8.574  0.6445  0.1234 -0.0880
   63SAPC  H14X 5110   4.800   6.810   8.574 -0.5254 -1.4807  2.6876
   63SAPC  H14Y 5111   4.633   6.805   8.592 -0.7040  0.9520 -2.3396
   63SAPC  C315 5112   4.727   6.979   8.696 -0.3915  0.4642 -0.7207
   63SAPC  H15X 5113   4.797   7.064   8.682 -0.1178  0.3962  0.1888
   63SAPC  H15Y 5114   4.773   6.920   8.778 -1.0877  1.6615  0.5640
   63SAPC  C316 5115   4.594   7.030   8.763  0.0672 -0.3188  0.7571
   63SAPC  H16X 5116   4.522   6.946   8.776  0.3061 -0.6160  0.2072
   63SAPC  H16Y 5117   4.550   7.107   8.695 -1.3219 -0.6248  1.2732
   63SAPC  C317 5118   4.623   7.090   8.905 -0.6956  0.9774 -0.1702
   63SAPC  H17X 5119   4.734   7.089   8.909 -0.7151  0.5964  0.3046
   63SAPC  H17Y 5120   4.584   7.028   8.988 -0.6311  1.5312  0.2834
   63SAPC  C318 5121   4.587   7.235   8.918 -0.0362  0.0494 -0.2066
   63SAPC  H18X 5122   4.476   7.244   8.921  0.1235  2.2018  0.7458
   63SAPC  H18Y 5123   4.626   7.300   8.836  3.2053 -1.2982  0.1417
   63SAPC  H18Z 5124   4.633   7.274   9.011  1.4282 -1.0384 -0.4301
   64SAPC     N 5125   5.989   1.296   6.047 -0.1127 -0.1688  0.3756
   64SAPC   C12 5126   5.923   1.188   6.132 -0.0002 -0.6107  0.2169
   64SAPC  H12A 5127   5.999   1.125   6.175  1.2669  0.3264 -0.6081
   64SAPC  H12B 5128   5.869   1.120   6.067 -2.1127  0.7775  0.4217
   64SAPC   C13 5129   5.892   1.381   5.976  0.6529 -0.1516  1.0552
   64SAPC  H13A 5130   5.857   1.331   5.887 -0.0611 -0.8379  1.6976
   64SAPC  H13B 5131   5.807   1.407   6.037 -1.2384 -0.7233 -1.1696
   64SAPC  H13C 5132   5.946   1.472   5.957 -0.4151  0.2362 -0.2785
   64SAPC   C14 5133   6.070   1.383   6.135 -0.0367  0.3339  0.4231
   64SAPC  H14A 5134   6.103   1.472   6.083  0.7183  0.9030  1.8372
   64SAPC  H14B 5135   6.010   1.431   6.211 -0.6353  2.2251 -1.1654
   64SAPC  H14C 5136   6.151   1.329   6.181  0.6524 -0.8704 -2.0013
   64SAPC   C15 5137   6.093   1.229   5.954 -0.0505  0.0971 -0.0360
   64SAPC  H15A 5138   6.171   1.180   6.009  0.1288 -0.0409 -0.4100
   64SAPC  H15B 5139   6.041   1.162   5.887  0.5961  0.3964 -0.8440
   64SAPC  H15C 5140   6.133   1.306   5.890 -0.2908 -0.8193 -1.3297
   64SAPC   C11 5141   5.815   1.234   6.242 -0.1316  0.2446 -0.3990
   64SAPC  H11A 5142   5.861   1.309   6.309 -0.5944  2.2684 -2.2317
   64SAPC  H11B 5143   5.790   1.154   6.314  0.1888  1.7401  1.4413
   64SAPC     P 5144   5.597   1.191   6.102 -0.1044 -0.0205  0.5419
   64SAPC   O13 5145   5.476   1.275   6.060  1.1556  0.3241 -0.4389
   64SAPC   O14 5146   5.662   1.096   6.008  0.0610 -0.7073 -0.0214
   64SAPC   O12 5147   5.703   1.284   6.177 -0.1697 -0.0769 -0.4352
   64SAPC   O11 5148   5.558   1.100   6.223  0.5882 -0.1945  0.3538
   64SAPC    C1 5149   5.444   1.137   6.310 -0.7410 -1.1176  0.9788
   64SAPC    HA 5150   5.361   1.170   6.244 -0.1012 -1.3002  0.0564
   64SAPC    HB 5151   5.406   1.054   6.374 -1.8348 -1.9738 -0.7178
   64SAPC    C2 5152   5.479   1.259   6.410  0.1073  0.6754  0.1634
   64SAPC    HS 5153   5.548   1.330   6.362  2.2511 -0.2325  1.7444
   64SAPC   O21 5154   5.546   1.195   6.522  0.3313  0.4475  0.0067
   64SAPC   C21 5155   5.660   1.245   6.560  0.0625 -0.4440 -0.1525
   64SAPC   O22 5156   5.703   1.349   6.515  0.3203 -0.5756 -0.2075
   64SAPC   C22 5157   5.729   1.159   6.664 -0.3494 -0.1055  0.4359
   64SAPC   H2R 5158   5.667   1.135   6.753 -0.1768  0.2374  0.6497
   64SAPC   H2S 5159   5.759   1.077   6.594 -2.0541 -0.2432 -0.1752
   64SAPC    C3 5160   5.342   1.316   6.452 -0.7540  0.2667 -0.0929
   64SAPC    HX 5161   5.278   1.229   6.478  0.5850 -0.4593  0.8769
   64SAPC    HY 5162   5.281   1.366   6.373 -0.1690 -0.2493 -0.8806
   64SAPC   O31 5163   5.352   1.405   6.571  0.1325  0.0661 -0.2520
   64SAPC   C31 5164   5.410   1.518   6.556 -0.1280  0.1833 -0.3015
   64SAPC   O32 5165   5.449   1.570   6.458 -0.3525 -0.4221 -0.7539
   64SAPC   C32 5166   5.403   1.589   6.693 -0.1289  0.4346 -0.3034
   64SAPC   H2X 5167   5.305   1.642   6.700 -1.8809 -2.7500  2.0311
   64SAPC   H2Y 5168   5.493   1.654   6.693  2.4720 -2.8982  0.5491
   64SAPC   C23 5169   5.862   1.227   6.710  0.4590  0.6141 -0.1870
   64SAPC   H3R 5170   5.831   1.306   6.781 -2.7765 -1.1976  0.6309
   64SAPC   H3S 5171   5.922   1.275   6.630 -0.7498 -0.2625 -1.6745
   64SAPC   C24 5172   5.943   1.121   6.785 -0.5214 -0.2839  0.1272
   64SAPC   H4R 5173   6.042   1.158   6.817  0.0189 -1.0531 -0.6159
   64SAPC   H4S 5174   5.966   1.055   6.699  0.6199 -0.0274  0.2272
   64SAPC   C25 5175   5.870   1.042   6.889  0.5401 -0.3461 -0.2274
   64SAPC   H5R 5176   5.865   0.933   6.878  0.5014 -0.2451 -1.3265
   64SAPC   C26 5177   5.823   1.090   7.004 -0.1615  0.2760 -0.3795
   64SAPC   H6R 5178   5.774   1.016   7.069 -0.0017 -0.7108 -1.3578
   64SAPC   C27 5179   5.842   1.227   7.059  0.2306 -0.3312  0.5662
   64SAPC   H7R 5180   5.889   1.296   6.986  0.3616 -1.8529 -0.8540
   64SAPC   H7S 5181   5.931   1.211   7.124  0.2746 -1.0633  0.3401
   64SAPC   C28 5182   5.732   1.298   7.144 -0.5565  0.0817 -0.8243
   64SAPC   H8R 5183   5.672   1.366   7.083  2.4691  1.8147 -2.0793
   64SAPC   C29 5184   5.741   1.296   7.277 -0.4685  0.0732 -0.2493
   64SAPC   H9R 5185   5.672   1.360   7.334 -1.3682 -0.5636 -0.6067
   64SAPC  C210 5186   5.846   1.225   7.360 -0.5291  0.0200 -0.3514
   64SAPC  H10R 5187   5.935   1.288   7.384 -0.1019 -0.7756  0.2195
   64SAPC  H10S 5188   5.889   1.143   7.299  0.8454  0.3912  0.0834
   64SAPC  C211 5189   5.785   1.171   7.485  0.2395 -0.4071  0.0215
   64SAPC  H11R 5190   5.710   1.091   7.477  0.7480 -0.8379 -0.4053
   64SAPC  C212 5191   5.822   1.203   7.612 -0.2376 -0.3108 -0.1947
   64SAPC  H12R 5192   5.766   1.160   7.696 -2.7236 -0.5285 -1.8705
   64SAPC  C213 5193   5.930   1.298   7.657 -0.2643 -0.6332 -0.2549
   64SAPC  H13R 5194   5.905   1.354   7.749  1.8269  1.9804 -1.1516
   64SAPC  H13S 5195   5.942   1.377   7.580 -1.6305 -1.0268 -0.9133
   64SAPC  C214 5196   6.060   1.234   7.672 -0.3915  0.1861  0.0170
   64SAPC  H14R 5197   6.076   1.152   7.600 -0.0757  0.5865 -0.3713
   64SAPC  C215 5198   6.160   1.253   7.764  0.0044 -0.5532  0.5238
   64SAPC  H15R 5199   6.253   1.199   7.744 -1.4328 -2.1907 -2.5609
   64SAPC  C216 5200   6.155   1.356   7.871 -0.2603 -0.2872 -0.7058
   64SAPC  H16R 5201   6.065   1.420   7.859 -0.1234  0.0041 -0.2182
   64SAPC  H16S 5202   6.236   1.431   7.859  0.8190 -0.5212  3.6560
   64SAPC  C217 5203   6.157   1.298   8.016  0.0994  0.2462  0.8312
   64SAPC  H17R 5204   6.065   1.237   8.010  0.6881 -0.5354 -2.7094
   64SAPC  H17S 5205   6.142   1.376   8.093 -0.8912  1.2251 -0.3329
   64SAPC  C218 5206   6.279   1.211   8.044 -0.2384 -0.3130  0.0081
   64SAPC  H18R 5207   6.370   1.262   8.006 -1.8304  1.8168 -1.1594
   64SAPC  H18S 5208   6.273   1.115   7.989  0.6762 -1.2209  1.4347
   64SAPC  C219 5209   6.287   1.176   8.191 -0.5739 -0.1372  0.4577
   64SAPC  H19R 5210   6.202   1.111   8.220 -0.2383 -0.0133  1.7989
   64SAPC  H19S 5211   6.257   1.269   8.244  0.7855  0.6234 -0.0440
   64SAPC  C220 5212   6.422   1.115   8.248  0.5384 -0.6272  0.7357
   64SAPC  H20R 5213   6.446   1.018   8.201 -1.0516 -0.3851 -0.6517
   64SAPC  H20S 5214   6.414   1.093   8.357  2.7219 -0.3819  1.0002
   64SAPC  H20T 5215   6.506   1.188   8.240 -1.4228  1.7106  0.3535
   64SAPC   C33 5216   5.408   1.489   6.814  0.2717 -0.4848  0.0147
   64SAPC   H3X 5217   5.481   1.406   6.804  0.7955 -0.0066 -0.1672
   64SAPC   H3Y 5218   5.323   1.418   6.801  0.3377 -0.9146  1.7294
   64SAPC   C34 5219   5.405   1.552   6.953  0.4585 -0.4508  0.4444
   64SAPC   H4X 5220   5.325   1.629   6.956  2.2614  1.6118 -1.2277
   64SAPC   H4Y 5221   5.507   1.591   6.973 -1.0433  2.5262  3.3429
   64SAPC   C35 5222   5.381   1.453   7.066  0.4303  0.9486  0.3362
   64SAPC   H5X 5223   5.437   1.359   7.049 -0.2313  0.5747  0.1761
   64SAPC   H5Y 5224   5.274   1.421   7.069  0.1196  1.8871 -0.1058
   64SAPC   C36 5225   5.424   1.501   7.202  1.1201  0.3007  0.3208
   64SAPC   H6X 5226   5.535   1.506   7.212  1.1929 -1.2540  0.6110
   64SAPC   H6Y 5227   5.387   1.420   7.269  0.0663 -0.1536 -0.7678
   64SAPC   C37 5228   5.357   1.634   7.231 -0.1395  0.1681  0.6775
   64SAPC   H7X 5229   5.248   1.620   7.215 -0.4036  0.8533  1.7561
   64SAPC   H7Y 5230   5.391   1.720   7.169 -0.7714 -0.0324  0.0454
   64SAPC   C38 5231   5.380   1.677   7.375  0.3452  0.0124  0.0858
   64SAPC   H8X 5232   5.322   1.767   7.405 -0.1356  0.4416 -1.9802
   64SAPC   H8Y 5233   5.485   1.705   7.397 -0.0786  0.4418  1.6649
   64SAPC   C39 5234   5.349   1.571   7.490  0.6142  0.1265  0.2516
   64SAPC   H9X 5235   5.420   1.487   7.473 -1.2791 -1.1508 -2.0728
   64SAPC   H9Y 5236   5.252   1.530   7.454  1.1016  1.0259 -2.3439
   64SAPC  C310 5237   5.324   1.609   7.636  0.3683 -0.0285  0.1651
   64SAPC  H10X 5238   5.264   1.533   7.690  0.0086  0.4338  0.4265
   64SAPC  H10Y 5239   5.258   1.697   7.648  1.3927  0.8997 -0.7307
   64SAPC  C311 5240   5.449   1.633   7.726  0.7359  0.2124  0.1370
   64SAPC  H11X 5241   5.409   1.643   7.829 -1.6806 -0.0800 -0.7231
   64SAPC  H11Y 5242   5.505   1.719   7.683  1.0784 -0.6638 -1.2138
   64SAPC  C312 5243   5.550   1.522   7.729  0.1645  0.5680  0.1512
   64SAPC  H12X 5244   5.591   1.513   7.626  1.9762 -0.3107  0.9078
   64SAPC  H12Y 5245   5.501   1.433   7.774  2.3771  0.9516  3.6645
   64SAPC  C313 5246   5.672   1.547   7.824  0.5003  0.2205  0.1544
   64SAPC  H13X 5247   5.732   1.634   7.790 -0.6337  1.0543  0.2224
   64SAPC  H13Y 5248   5.746   1.463   7.821  0.3361  0.1052 -1.0844
   64SAPC  C314 5249   5.639   1.577   7.972 -0.0149  0.5724 -0.3084
   64SAPC  H14X 5250   5.591   1.484   8.010 -0.5959  0.5369 -1.1097
   64SAPC  H14Y 5251   5.569   1.661   7.986 -0.1753  0.3527  0.2529
   64SAPC  C315 5252   5.760   1.598   8.062  0.2208  0.2419 -0.1223
   64SAPC  H15X 5253   5.803   1.693   8.024  0.5101 -1.4012 -4.4663
   64SAPC  H15Y 5254   5.838   1.521   8.045 -0.3500 -0.5003  0.5315
   64SAPC  C316 5255   5.724   1.607   8.211  0.2794  0.2204 -0.6650
   64SAPC  H16X 5256   5.656   1.524   8.241  0.8705 -0.4644 -1.1856
   64SAPC  H16Y 5257   5.688   1.710   8.230  3.7136  1.0957  1.9993
   64SAPC  C317 5258   5.853   1.594   8.299  0.4190  0.3809 -0.2368
   64SAPC  H17X 5259   5.929   1.522   8.262 -0.5077  0.2091 -1.8663
   64SAPC  H17Y 5260   5.826   1.555   8.400 -1.3810 -0.5962 -1.0624
   64SAPC  C318 5261   5.918   1.731   8.325 -0.2145  0.4683 -0.6425
   64SAPC  H18X 5262   6.019   1.713   8.366  0.4014  1.7583 -1.5312
   64SAPC  H18Y 5263   5.858   1.785   8.401 -1.1358 -0.2751 -0.8111
   64SAPC  H18Z 5264   5.929   1.804   8.241  0.9516  1.0612  0.0144
   65SAPC     N 5265   4.271   2.181   6.239 -0.2825  0.0673 -0.3645
   65SAPC   C12 5266   4.127   2.205   6.215 -0.1590  0.0575  0.3073
   65SAPC  H12A 5267   4.092   2.277   6.288 -0.9660  0.7956 -0.7811
   65SAPC  H12B 5268   4.071   2.113   6.213 -0.3090  0.1613 -0.6522
   65SAPC   C13 5269   4.333   2.088   6.135  0.3512 -0.1599 -0.1433
   65SAPC  H13A 5270   4.310   2.123   6.035 -1.3536 -0.8610 -0.0292
   65SAPC  H13B 5271   4.436   2.060   6.151  0.5565  0.3996 -0.4394
   65SAPC  H13C 5272   4.279   1.995   6.143  2.4496 -1.3857  0.5647
   65SAPC   C14 5273   4.355   2.313   6.239 -1.1002 -0.1552  0.5207
   65SAPC  H14A 5274   4.461   2.297   6.250 -1.2503 -2.1468 -0.4360
   65SAPC  H14B 5275   4.337   2.360   6.143  0.2171 -0.8336 -0.0779
   65SAPC  H14C 5276   4.324   2.375   6.322  0.0150 -0.2766  1.0302
   65SAPC   C15 5277   4.301   2.117   6.368  0.1928 -0.9359 -0.4376
   65SAPC  H15A 5278   4.280   2.011   6.377 -1.9247 -0.4942  0.5747
   65SAPC  H15B 5279   4.407   2.131   6.380  0.9092 -3.4125 -2.8732
   65SAPC  H15C 5280   4.250   2.171   6.447  3.7533 -0.3041  1.6078
   65SAPC   C11 5281   4.087   2.280   6.083 -0.3445  0.2555 -0.1644
   65SAPC  H11A 5282   3.976   2.279   6.086 -0.4086  2.7578  1.8983
   65SAPC  H11B 5283   4.127   2.227   5.994 -0.1938  0.5231 -0.2576
   65SAPC     P 5284   4.037   2.523   6.165  0.1132  0.1500 -0.0778
   65SAPC   O13 5285   4.118   2.644   6.204 -0.0284 -0.3657  0.0561
   65SAPC   O14 5286   3.916   2.552   6.076 -0.2189  0.2563 -0.4437
   65SAPC   O12 5287   4.131   2.419   6.081  0.2065  0.5192 -0.2060
   65SAPC   O11 5288   3.997   2.442   6.300  0.0603 -0.2906 -0.7309
   65SAPC    C1 5289   4.044   2.485   6.433  0.5053 -0.2062 -0.0604
   65SAPC    HA 5290   4.153   2.501   6.422  0.2500  1.4476 -0.4293
   65SAPC    HB 5291   3.997   2.582   6.461 -1.5427 -0.3869 -2.4934
   65SAPC    C2 5292   4.007   2.382   6.542  0.5960 -0.2573 -0.5587
   65SAPC    HS 5293   4.063   2.292   6.508 -0.8204 -1.3613 -0.0859
   65SAPC   O21 5294   3.871   2.359   6.544 -1.2041 -0.7367 -0.7609
   65SAPC   C21 5295   3.826   2.259   6.603  0.9156 -0.3966 -0.3850
   65SAPC   O22 5296   3.888   2.174   6.672  0.1436 -0.6876 -0.2297
   65SAPC   C22 5297   3.671   2.254   6.577  0.1878 -0.5510 -0.3880
   65SAPC   H2R 5298   3.634   2.356   6.554 -2.2963 -0.5558  2.8170
   65SAPC   H2S 5299   3.658   2.203   6.479  1.0321 -2.6495  0.5391
   65SAPC    C3 5300   4.072   2.430   6.681  0.6404 -0.6038  0.1580
   65SAPC    HX 5301   4.074   2.346   6.754  3.2727 -0.2451  0.5964
   65SAPC    HY 5302   4.007   2.511   6.719 -3.2381 -4.1231  1.8019
   65SAPC   O31 5303   4.207   2.485   6.672 -0.4467  0.1620  0.5226
   65SAPC   C31 5304   4.298   2.390   6.647 -0.0756 -0.2931 -0.0435
   65SAPC   O32 5305   4.263   2.271   6.639 -0.1845 -0.0285 -0.2737
   65SAPC   C32 5306   4.434   2.453   6.643  0.2592 -0.3274  0.0483
   65SAPC   H2X 5307   4.436   2.518   6.553 -1.0031  0.6022  0.6690
   65SAPC   H2Y 5308   4.510   2.373   6.635  1.6634  0.8408  1.1183
   65SAPC   C23 5309   3.570   2.185   6.675  0.0893 -0.2127  0.6643
   65SAPC   H3R 5310   3.608   2.081   6.687 -0.9272 -0.6298  0.4038
   65SAPC   H3S 5311   3.478   2.171   6.615  0.2807  1.1578  0.0272
   65SAPC   C24 5312   3.546   2.265   6.800 -0.1690 -0.0975 -0.4340
   65SAPC   H4R 5313   3.489   2.355   6.767 -1.4518 -0.7233  0.0303
   65SAPC   H4S 5314   3.641   2.302   6.845 -1.1007  1.2661  0.4883
   65SAPC   C25 5315   3.468   2.183   6.904 -0.0789  0.1303  0.3898
   65SAPC   H5R 5316   3.384   2.128   6.860  0.6302 -0.9543  0.3713
   65SAPC   C26 5317   3.515   2.142   7.029  0.0287 -0.3905 -0.9554
   65SAPC   H6R 5318   3.441   2.095   7.096 -1.9468  1.0971 -1.9698
   65SAPC   C27 5319   3.649   2.198   7.078 -0.4382 -0.1347 -0.4511
   65SAPC   H7R 5320   3.650   2.306   7.054  0.2501 -0.4562 -1.9536
   65SAPC   H7S 5321   3.726   2.144   7.019 -0.2810 -0.8089  0.3406
   65SAPC   C28 5322   3.674   2.162   7.225 -0.0381 -1.2632 -0.2819
   65SAPC   H8R 5323   3.651   2.063   7.265  0.4726 -1.1537  0.3064
   65SAPC   C29 5324   3.729   2.253   7.317  0.3184  0.2787 -0.4346
   65SAPC   H9R 5325   3.742   2.225   7.423 -1.5616  2.3656  0.4559
   65SAPC  C210 5326   3.782   2.391   7.293 -0.0504  0.5774  0.0678
   65SAPC  H10R 5327   3.746   2.429   7.195 -1.5178  2.0664  1.1336
   65SAPC  H10S 5328   3.893   2.388   7.279  0.3428  2.7370  2.1074
   65SAPC  C211 5329   3.756   2.493   7.394 -0.2909  0.0942 -0.4683
   65SAPC  H11R 5330   3.680   2.570   7.374  0.5750  1.2026  0.3462
   65SAPC  C212 5331   3.824   2.507   7.513  0.3372 -0.2472 -0.1097
   65SAPC  H12R 5332   3.802   2.590   7.582 -1.2826 -1.0051  0.3389
   65SAPC  C213 5333   3.941   2.421   7.554  0.0570  0.0010 -0.2624
   65SAPC  H13R 5334   3.937   2.333   7.488  1.0012 -0.4366  0.2417
   65SAPC  H13S 5335   3.944   2.390   7.661  0.9730 -0.7844 -0.5046
   65SAPC  C214 5336   4.060   2.508   7.528  0.3715 -0.1666 -0.3857
   65SAPC  H14R 5337   4.078   2.530   7.422  0.2608 -2.0761 -0.8361
   65SAPC  C215 5338   4.150   2.543   7.623 -0.7138 -0.5699 -0.0414
   65SAPC  H15R 5339   4.228   2.608   7.581  0.8548 -0.8629  2.2360
   65SAPC  C216 5340   4.161   2.515   7.770  0.4731  0.4232  0.3763
   65SAPC  H16R 5341   4.265   2.511   7.809  0.2621 -1.6173  0.8371
   65SAPC  H16S 5342   4.129   2.410   7.787  1.1911 -0.4572 -2.9396
   65SAPC  C217 5343   4.070   2.604   7.855  0.0997  0.1462 -0.4767
   65SAPC  H17R 5344   3.967   2.595   7.815  0.7554  0.3718 -2.2670
   65SAPC  H17S 5345   4.100   2.709   7.835  1.6803 -0.0369  0.7524
   65SAPC  C218 5346   4.082   2.567   8.001 -0.5420  0.3602  0.3687
   65SAPC  H18R 5347   4.188   2.570   8.036  0.6150 -1.9073 -2.5558
   65SAPC  H18S 5348   4.044   2.463   8.006  1.9911 -0.9008 -2.9579
   65SAPC  C219 5349   4.012   2.671   8.080 -0.2045  0.2851 -0.4859
   65SAPC  H19R 5350   3.905   2.670   8.052  0.1805  2.5768 -2.3281
   65SAPC  H19S 5351   4.053   2.771   8.058 -1.1806  0.7623 -0.1974
   65SAPC  C220 5352   4.026   2.637   8.229 -0.2741 -0.1235  0.4147
   65SAPC  H20R 5353   3.940   2.571   8.251  2.1704 -3.4023  0.9678
   65SAPC  H20S 5354   4.030   2.716   8.307  2.4625 -0.5759  0.8539
   65SAPC  H20T 5355   4.117   2.574   8.241 -0.2266 -0.6431 -2.0918
   65SAPC   C33 5356   4.454   2.546   6.765 -0.1279 -0.5869  0.1829
   65SAPC   H3X 5357   4.368   2.616   6.776  0.5242  0.0126  1.6683
   65SAPC   H3Y 5358   4.542   2.609   6.742 -0.9919  1.6549  2.5674
   65SAPC   C34 5359   4.474   2.473   6.898 -0.4025 -0.2065  0.2856
   65SAPC   H4X 5360   4.563   2.407   6.902 -0.0972  0.1398 -0.6313
   65SAPC   H4Y 5361   4.394   2.398   6.915  1.6307 -1.9904  2.9443
   65SAPC   C35 5362   4.476   2.554   7.026 -0.6028  0.4912  0.2250
   65SAPC   H5X 5363   4.374   2.594   7.041 -0.8621 -0.3018  0.6166
   65SAPC   H5Y 5364   4.556   2.631   7.021 -1.8351  1.8374  0.6962
   65SAPC   C36 5365   4.503   2.445   7.134 -0.1721 -0.2097 -0.3691
   65SAPC   H6X 5366   4.597   2.388   7.117 -0.2393 -0.2780 -0.5116
   65SAPC   H6Y 5367   4.426   2.366   7.125 -1.7080  1.3449 -1.5513
   65SAPC   C37 5368   4.515   2.508   7.271 -0.5445  0.6264 -0.0600
   65SAPC   H7X 5369   4.412   2.523   7.312 -0.0057 -0.5570  1.8413
   65SAPC   H7Y 5370   4.567   2.606   7.269  0.2823  0.1827 -1.1670
   65SAPC   C38 5371   4.606   2.426   7.368  0.0148  1.0044  0.4519
   65SAPC   H8X 5372   4.705   2.416   7.319  0.1376  4.5233 -0.2995
   65SAPC   H8Y 5373   4.562   2.327   7.393 -0.5892  1.1621  0.0560
   65SAPC   C39 5374   4.622   2.500   7.505 -0.2123 -0.2257  0.2119
   65SAPC   H9X 5375   4.671   2.598   7.484 -1.2770 -0.0140 -1.5362
   65SAPC   H9Y 5376   4.678   2.438   7.577  1.7380 -0.0736 -1.0808
   65SAPC  C310 5377   4.489   2.550   7.558  0.2071  0.0220 -0.7793
   65SAPC  H10X 5378   4.417   2.466   7.561 -0.6138  0.7162 -0.7597
   65SAPC  H10Y 5379   4.442   2.625   7.491 -3.2044 -0.3292  1.0003
   65SAPC  C311 5380   4.511   2.621   7.690  0.0758  0.1894 -1.0478
   65SAPC  H11X 5381   4.413   2.659   7.725 -0.3457  0.3465 -2.3375
   65SAPC  H11Y 5382   4.583   2.704   7.675  1.1619 -0.5376 -0.0497
   65SAPC  C312 5383   4.578   2.540   7.808  0.9964  0.6459 -0.1412
   65SAPC  H12X 5384   4.672   2.485   7.784 -0.5852 -3.2771  1.7174
   65SAPC  H12Y 5385   4.513   2.458   7.845  0.9008  1.3943  1.3999
   65SAPC  C313 5386   4.613   2.622   7.937 -0.2840 -0.1936 -0.4277
   65SAPC  H13X 5387   4.673   2.709   7.901 -0.5356 -0.1788 -0.8129
   65SAPC  H13Y 5388   4.673   2.561   8.007 -0.0285 -0.8440 -1.1923
   65SAPC  C314 5389   4.491   2.682   8.015  0.0065  0.6751 -0.4775
   65SAPC  H14X 5390   4.419   2.599   8.029 -1.6236  1.9120 -1.2989
   65SAPC  H14Y 5391   4.443   2.740   7.934  1.7112  1.3071 -1.0767
   65SAPC  C315 5392   4.510   2.758   8.141 -0.3033  0.2297  0.1390
   65SAPC  H15X 5393   4.580   2.842   8.121 -1.0335  0.5889 -0.9864
   65SAPC  H15Y 5394   4.562   2.691   8.213  0.3539  0.8303  0.2372
   65SAPC  C316 5395   4.375   2.798   8.210 -0.4421 -0.8670  0.3206
   65SAPC  H16X 5396   4.307   2.711   8.222 -1.8875  0.3698  1.3454
   65SAPC  H16Y 5397   4.318   2.870   8.147 -2.6044 -0.6264  2.4303
   65SAPC  C317 5398   4.398   2.857   8.347 -0.3362  0.4571  0.0065
   65SAPC  H17X 5399   4.454   2.952   8.337  3.1072 -1.4775 -0.8940
   65SAPC  H17Y 5400   4.449   2.791   8.420 -0.7047 -0.4079 -0.5025
   65SAPC  C318 5401   4.264   2.886   8.419  0.7790 -0.6350 -0.6319
   65SAPC  H18X 5402   4.207   2.793   8.436  1.4701 -0.9494  0.0028
   65SAPC  H18Y 5403   4.201   2.956   8.359  1.7163  2.0505  1.3107
   65SAPC  H18Z 5404   4.290   2.935   8.515 -0.5909 -0.7630 -0.1765
   66SAPC     N 5405   4.250   3.442   6.174  0.0184  0.1635 -0.3957
   66SAPC   C12 5406   4.369   3.489   6.254 -0.3955  0.3078 -0.7945
   66SAPC  H12A 5407   4.459   3.504   6.198  0.6527  0.7527  0.9219
   66SAPC  H12B 5408   4.393   3.423   6.336  0.6110  0.5749 -0.8603
   66SAPC   C13 5409   4.228   3.549   6.073 -0.2408 -0.0958  0.2190
   66SAPC  H13A 5410   4.160   3.521   5.994 -0.0216 -1.1488  0.3843
   66SAPC  H13B 5411   4.198   3.644   6.115 -0.3708 -0.1122  0.1663
   66SAPC  H13C 5412   4.327   3.568   6.036 -0.5749  1.8230  0.2037
   66SAPC   C14 5413   4.277   3.308   6.113 -0.3618 -0.0487 -0.2302
   66SAPC  H14A 5414   4.359   3.315   6.043 -0.5839  2.1421 -0.3389
   66SAPC  H14B 5415   4.307   3.232   6.184 -2.5173  0.2992  1.1433
   66SAPC  H14C 5416   4.191   3.263   6.066 -0.9714 -0.0569  0.8721
   66SAPC   C15 5417   4.128   3.422   6.259 -0.1289 -0.2420 -0.0909
   66SAPC  H15A 5418   4.041   3.388   6.204 -1.5999  1.6968  0.8967
   66SAPC  H15B 5419   4.152   3.356   6.341  1.1106 -0.5812 -0.6981
   66SAPC  H15C 5420   4.103   3.513   6.310  1.2738 -0.5411  1.1875
   66SAPC   C11 5421   4.358   3.633   6.319  0.4820 -0.8328 -0.3907
   66SAPC  H11A 5422   4.405   3.644   6.419 -2.1525  0.1373  0.8240
   66SAPC  H11B 5423   4.251   3.652   6.343  0.2528 -2.9998  0.4642
   66SAPC     P 5424   4.547   3.763   6.195  0.4454 -0.2326 -0.2542
   66SAPC   O13 5425   4.637   3.646   6.212 -0.0556  0.3212  0.2272
   66SAPC   O14 5426   4.560   3.842   6.067 -0.7017 -0.5163 -0.2319
   66SAPC   O12 5427   4.401   3.731   6.223  0.1862 -0.2190  0.0534
   66SAPC   O11 5428   4.581   3.858   6.314 -0.3599  0.2256  0.1311
   66SAPC    C1 5429   4.503   3.967   6.349  0.0143  0.0034 -0.1437
   66SAPC    HA 5430   4.532   4.055   6.288  2.1176  0.5150  1.4887
   66SAPC    HB 5431   4.396   3.943   6.333  0.4491 -0.9562 -1.7949
   66SAPC    C2 5432   4.517   4.018   6.495 -0.5680 -0.4479 -0.9696
   66SAPC    HS 5433   4.624   4.045   6.514 -0.8652  0.7428 -0.9289
   66SAPC   O21 5434   4.465   3.921   6.583  0.2572  0.5449 -0.6967
   66SAPC   C21 5435   4.505   3.917   6.709 -0.5996  0.0144  0.2591
   66SAPC   O22 5436   4.613   3.970   6.750  0.5905  0.5317 -0.4885
   66SAPC   C22 5437   4.405   3.853   6.801  0.0478 -0.4724 -0.1905
   66SAPC   H2R 5438   4.333   3.935   6.819 -0.0420 -0.3611 -1.0211
   66SAPC   H2S 5439   4.335   3.782   6.753 -0.7667 -0.7950  1.4131
   66SAPC    C3 5440   4.445   4.160   6.518 -0.7573  0.4010 -0.2739
   66SAPC    HX 5441   4.339   4.150   6.485 -0.2308 -0.4564 -1.7915
   66SAPC    HY 5442   4.498   4.235   6.456  0.1466 -0.9057 -1.1370
   66SAPC   O31 5443   4.443   4.192   6.659  0.0109  0.3822  0.0980
   66SAPC   C31 5444   4.548   4.260   6.701  0.4670  0.6702  0.4991
   66SAPC   O32 5445   4.634   4.302   6.632 -0.1404 -0.1229  0.6096
   66SAPC   C32 5446   4.522   4.302   6.845  0.4995 -0.1302  0.4762
   66SAPC   H2X 5447   4.467   4.223   6.899  1.8008 -1.9529 -0.7311
   66SAPC   H2Y 5448   4.455   4.391   6.840  1.9619  1.1012  1.6044
   66SAPC   C23 5449   4.471   3.783   6.934  0.0736  0.6279  0.4905
   66SAPC   H3R 5450   4.380   3.751   6.989 -1.4079  1.0276 -1.6168
   66SAPC   H3S 5451   4.514   3.866   6.994  0.5503 -0.1513  1.2433
   66SAPC   C24 5452   4.571   3.671   6.906  0.8094  0.4596  0.1747
   66SAPC   H4R 5453   4.626   3.637   6.997  1.7487 -0.4543 -0.7056
   66SAPC   H4S 5454   4.651   3.711   6.840 -0.2379  0.3345 -1.2071
   66SAPC   C25 5455   4.500   3.561   6.836 -0.2238  0.6080  0.2956
   66SAPC   H5R 5456   4.509   3.563   6.726 -1.0356 -3.4771  0.0120
   66SAPC   C26 5457   4.420   3.472   6.888  0.0617  0.4548  0.5732
   66SAPC   H6R 5458   4.365   3.407   6.818  0.6037  0.3225  0.2657
   66SAPC   C27 5459   4.382   3.459   7.032 -0.3330 -0.2576 -0.6975
   66SAPC   H7R 5460   4.291   3.522   7.040  0.5954  1.0502 -0.1924
   66SAPC   H7S 5461   4.456   3.511   7.096  0.8276 -0.5712 -1.7333
   66SAPC   C28 5462   4.350   3.319   7.078  0.4131 -0.4738  0.2646
   66SAPC   H8R 5463   4.280   3.261   7.017 -0.0841  0.6341 -0.2390
   66SAPC   C29 5464   4.373   3.285   7.207  0.5376 -0.0714  0.4343
   66SAPC   H9R 5465   4.356   3.181   7.242 -0.8418 -0.4688 -1.2734
   66SAPC  C210 5466   4.439   3.372   7.320 -0.5589 -0.2225 -0.1497
   66SAPC  H10R 5467   4.535   3.411   7.280  0.6075 -1.3459  1.4244
   66SAPC  H10S 5468   4.474   3.315   7.409 -0.7670  1.6028  1.1523
   66SAPC  C211 5469   4.352   3.477   7.373 -0.6809  0.2092  0.3414
   66SAPC  H11R 5470   4.277   3.514   7.301  2.5657  1.4684 -2.6455
   66SAPC  C212 5471   4.370   3.543   7.490 -0.6259  0.3139  0.4214
   66SAPC  H12R 5472   4.301   3.626   7.508 -0.8603 -0.2224  2.1493
   66SAPC  C213 5473   4.480   3.516   7.597  1.1153 -0.1126 -0.1364
   66SAPC  H13R 5474   4.580   3.485   7.558  0.2740 -1.7103 -1.1142
   66SAPC  H13S 5475   4.458   3.427   7.661  0.9437 -1.2681 -1.7517
   66SAPC  C214 5476   4.498   3.633   7.684 -0.8810 -0.7140 -0.0119
   66SAPC  H14R 5477   4.490   3.615   7.792 -0.1128 -1.4709 -0.0777
   66SAPC  C215 5478   4.541   3.755   7.640  0.9816  0.7097  0.1291
   66SAPC  H15R 5479   4.532   3.842   7.706 -3.0829 -1.0088  2.1880
   66SAPC  C216 5480   4.570   3.792   7.500 -0.0678  0.0759  0.5635
   66SAPC  H16R 5481   4.480   3.839   7.454  1.3291  1.9427 -0.4317
   66SAPC  H16S 5482   4.612   3.709   7.438  0.9517  0.9057  0.0995
   66SAPC  C217 5483   4.673   3.909   7.493  0.1265  0.0497 -0.4265
   66SAPC  H17R 5484   4.767   3.856   7.516 -0.9489 -1.4308  0.7742
   66SAPC  H17S 5485   4.642   3.985   7.568 -1.8508 -0.2869 -0.8462
   66SAPC  C218 5486   4.699   3.979   7.354 -0.6760 -0.1826 -0.6573
   66SAPC  H18R 5487   4.796   4.034   7.358 -0.6345 -0.2652 -0.5013
   66SAPC  H18S 5488   4.617   4.052   7.341 -1.8410 -1.1036  1.1191
   66SAPC  C219 5489   4.717   3.887   7.238 -0.0449  0.4517  0.5260
   66SAPC  H19R 5490   4.624   3.831   7.215  0.1154  0.1742  0.5430
   66SAPC  H19S 5491   4.788   3.808   7.270 -0.7606 -0.1511  0.6515
   66SAPC  C220 5492   4.762   3.953   7.108 -0.4831  0.3279 -0.7557
   66SAPC  H20R 5493   4.682   4.018   7.066 -2.5866 -0.5734  1.6484
   66SAPC  H20S 5494   4.780   3.882   7.025 -0.1604  0.4629 -0.8036
   66SAPC  H20T 5495   4.858   4.007   7.124  0.2011 -1.3664  1.2348
   66SAPC   C33 5496   4.658   4.330   6.914  0.1709  0.6811  0.6483
   66SAPC   H3X 5497   4.711   4.416   6.866  1.2252  0.2868  1.0828
   66SAPC   H3Y 5498   4.718   4.237   6.904  2.2364  1.7620  2.2421
   66SAPC   C34 5499   4.653   4.340   7.074 -0.2561  0.3113 -0.0788
   66SAPC   H4X 5500   4.616   4.241   7.107 -1.5257  0.9150  0.3846
   66SAPC   H4Y 5501   4.575   4.414   7.105  0.7979  1.3098  0.2852
   66SAPC   C35 5502   4.785   4.388   7.141  0.0158  1.4184  0.1613
   66SAPC   H5X 5503   4.817   4.488   7.105  0.6936  1.5971  1.2024
   66SAPC   H5Y 5504   4.864   4.327   7.092  0.9570  3.2954 -0.7693
   66SAPC   C36 5505   4.787   4.386   7.287  0.2544 -0.1302 -0.0463
   66SAPC   H6X 5506   4.759   4.286   7.327  3.5934 -0.6683  1.2789
   66SAPC   H6Y 5507   4.708   4.456   7.323 -0.0474  0.4759 -1.7835
   66SAPC   C37 5508   4.921   4.413   7.356  0.3012  1.1832 -0.0130
   66SAPC   H7X 5509   4.983   4.321   7.355  1.5773  1.9972  0.9932
   66SAPC   H7Y 5510   4.899   4.437   7.462  0.7726  0.7557  0.1848
   66SAPC   C38 5511   5.004   4.526   7.286 -0.6966  0.2995  0.2027
   66SAPC   H8X 5512   4.930   4.606   7.264 -0.4537  0.8703  1.3961
   66SAPC   H8Y 5513   5.052   4.492   7.192 -0.3601  0.6579  0.2452
   66SAPC   C39 5514   5.104   4.597   7.379 -0.3243  0.0501 -0.1243
   66SAPC   H9X 5515   5.122   4.695   7.331  0.6517 -0.2565 -0.3927
   66SAPC   H9Y 5516   5.196   4.538   7.399 -0.2081 -0.0474 -0.9277
   66SAPC  C310 5517   5.066   4.629   7.523  0.0543 -0.1906  0.1068
   66SAPC  H10X 5518   5.052   4.542   7.591  1.5179 -0.6350 -0.1295
   66SAPC  H10Y 5519   4.963   4.671   7.511 -0.5609 -2.0996 -1.8799
   66SAPC  C311 5520   5.164   4.728   7.587 -0.2082  0.1501  0.3993
   66SAPC  H11X 5521   5.163   4.831   7.547  0.6236  0.8719  2.1415
   66SAPC  H11Y 5522   5.266   4.693   7.562 -1.1271 -1.3832 -1.5994
   66SAPC  C312 5523   5.136   4.741   7.741 -0.6002  0.4109 -0.7361
   66SAPC  H12X 5524   5.167   4.646   7.788  0.2655  0.0846 -1.9217
   66SAPC  H12Y 5525   5.028   4.754   7.766 -0.7190 -0.5118 -0.7606
   66SAPC  C313 5526   5.205   4.862   7.810 -0.1846 -0.5410  0.6892
   66SAPC  H13X 5527   5.154   4.956   7.781 -0.2865 -0.6834  0.4037
   66SAPC  H13Y 5528   5.315   4.869   7.799 -0.2906 -1.0495 -0.9349
   66SAPC  C314 5529   5.198   4.851   7.961  0.6476  0.8381  0.1082
   66SAPC  H14X 5530   5.241   4.749   7.975 -1.5023 -0.0245  0.8466
   66SAPC  H14Y 5531   5.096   4.835   8.002  0.6030  0.0392 -0.2827
   66SAPC  C315 5532   5.285   4.953   8.040  0.6198 -0.3892  0.0873
   66SAPC  H15X 5533   5.251   5.057   8.025 -2.3570 -1.2896 -0.0692
   66SAPC  H15Y 5534   5.391   4.946   8.008  0.7686  0.8780  0.2846
   66SAPC  C316 5535   5.279   4.919   8.181 -0.2211  0.1467  0.3331
   66SAPC  H16X 5536   5.321   4.820   8.207 -1.3346 -0.4994 -0.2842
   66SAPC  H16Y 5537   5.170   4.909   8.200 -0.8393  1.1758 -2.1600
   66SAPC  C317 5538   5.340   5.025   8.280 -0.2005 -0.0669 -0.3608
   66SAPC  H17X 5539   5.324   5.000   8.387  0.1657 -1.2960 -0.5779
   66SAPC  H17Y 5540   5.297   5.127   8.267  0.3768  0.4711  1.6648
   66SAPC  C318 5541   5.489   5.057   8.270 -0.0299  0.0046 -0.2022
   66SAPC  H18X 5542   5.545   4.988   8.337  0.6574  0.0088 -0.7567
   66SAPC  H18Y 5543   5.503   5.161   8.307 -4.0032  0.6938 -0.1552
   66SAPC  H18Z 5544   5.520   5.042   8.165 -2.1133 -0.1432 -0.8424
   67SAPC     N 5545   6.149   4.664   6.355  0.3453  1.0321  0.1188
   67SAPC   C12 5546   6.137   4.579   6.476 -0.2182  0.2152  0.2950
   67SAPC  H12A 5547   6.093   4.637   6.556 -0.1198 -0.5422  0.9097
   67SAPC  H12B 5548   6.234   4.548   6.511 -1.1702 -2.0095  1.2019
   67SAPC   C13 5549   6.205   4.601   6.230 -0.3500 -0.1879  0.0703
   67SAPC  H13A 5550   6.185   4.666   6.146 -1.0710  0.4054  0.6845
   67SAPC  H13B 5551   6.313   4.596   6.236 -0.2445 -0.2281 -1.4999
   67SAPC  H13C 5552   6.152   4.508   6.218 -2.0272  0.2564  3.0351
   67SAPC   C14 5553   6.017   4.724   6.322  0.0518 -0.7383 -0.2448
   67SAPC  H14A 5554   5.937   4.651   6.315 -0.5934 -0.0763  0.1809
   67SAPC  H14B 5555   5.983   4.785   6.404 -2.5298 -2.1774 -0.1303
   67SAPC  H14C 5556   6.020   4.789   6.236  0.9404 -0.7874 -0.2665
   67SAPC   C15 5557   6.234   4.776   6.397  0.4374 -0.1228 -0.5864
   67SAPC  H15A 5558   6.318   4.734   6.450 -0.4315 -1.4110 -0.1632
   67SAPC  H15B 5559   6.262   4.834   6.311  0.5037 -0.0657 -0.5263
   67SAPC  H15C 5560   6.183   4.830   6.476  0.3933 -2.1215  0.8407
   67SAPC   C11 5561   6.040   4.454   6.469 -0.5223 -0.1853  0.5864
   67SAPC  H11A 5562   6.036   4.407   6.570  1.1146 -2.4387 -0.3108
   67SAPC  H11B 5563   6.104   4.375   6.423  0.7693  1.0968  0.0820
   67SAPC     P 5564   5.786   4.471   6.492 -0.1903  0.1115 -0.0882
   67SAPC   O13 5565   5.695   4.569   6.420 -0.2621  0.6506 -0.8254
   67SAPC   O14 5566   5.732   4.333   6.504  0.1635  0.3649  0.1999
   67SAPC   O12 5567   5.916   4.468   6.401 -0.4618 -0.2914  0.0581
   67SAPC   O11 5568   5.841   4.531   6.628  0.1980 -0.3956 -0.2923
   67SAPC    C1 5569   5.818   4.463   6.753 -0.2442  0.3288  0.2617
   67SAPC    HA 5570   5.817   4.353   6.736 -0.9792  0.4875 -0.8985
   67SAPC    HB 5571   5.894   4.490   6.829  0.8319 -1.4149 -0.1541
   67SAPC    C2 5572   5.687   4.511   6.814  0.3147 -0.0702  0.2735
   67SAPC    HS 5573   5.609   4.483   6.741  1.4183 -1.3399 -0.4723
   67SAPC   O21 5574   5.687   4.656   6.832  0.1622  0.2543  0.0043
   67SAPC   C21 5575   5.628   4.735   6.762  0.0988 -0.3972  0.9019
   67SAPC   O22 5576   5.546   4.714   6.673  0.3854 -0.0216 -0.5210
   67SAPC   C22 5577   5.686   4.871   6.805  0.6473  0.5283  0.6386
   67SAPC   H2R 5578   5.733   4.918   6.716  1.4995  0.0119  0.8091
   67SAPC   H2S 5579   5.599   4.928   6.845  1.6393  0.3225  3.2821
   67SAPC    C3 5580   5.641   4.430   6.936  0.3507  0.2957 -0.7383
   67SAPC    HX 5581   5.644   4.322   6.910 -1.2985  0.1524 -0.4109
   67SAPC    HY 5582   5.539   4.465   6.963  0.2435  0.8506 -1.8137
   67SAPC   O31 5583   5.726   4.448   7.056  0.1556 -0.1642 -0.7267
   67SAPC   C31 5584   5.816   4.349   7.079 -0.1583 -0.1741  0.1102
   67SAPC   O32 5585   5.847   4.263   7.003  1.1636 -0.2128  0.5031
   67SAPC   C32 5586   5.882   4.353   7.218  0.0543 -0.3622  0.1460
   67SAPC   H2X 5587   5.811   4.399   7.290 -0.5869 -1.6412  0.3593
   67SAPC   H2Y 5588   5.966   4.425   7.219 -0.2349 -0.0250  1.1657
   67SAPC   C23 5589   5.776   4.879   6.930  0.4701  0.1521 -0.4008
   67SAPC   H3R 5590   5.848   4.795   6.917 -0.8147 -1.2097  0.9106
   67SAPC   H3S 5591   5.722   4.839   7.018  1.2824  0.5572  0.2951
   67SAPC   C24 5592   5.828   5.019   6.967  0.2631  0.6645  0.3721
   67SAPC   H4R 5593   5.870   5.063   6.875 -0.1360 -1.6334 -0.9848
   67SAPC   H4S 5594   5.903   4.991   7.045  0.3943 -0.9368 -0.2923
   67SAPC   C25 5595   5.719   5.114   7.023 -0.1553  0.5007  0.4019
   67SAPC   H5R 5596   5.667   5.184   6.956 -2.5057  2.0066  3.5241
   67SAPC   C26 5597   5.690   5.122   7.152  0.0500 -0.0123  0.2705
   67SAPC   H6R 5598   5.614   5.194   7.182  1.0920  1.3280 -0.2208
   67SAPC   C27 5599   5.747   5.033   7.263 -0.5916 -0.2075 -1.0038
   67SAPC   H7R 5600   5.759   4.929   7.226 -2.0765 -1.0296  0.6858
   67SAPC   H7S 5601   5.668   4.996   7.332  0.5555 -0.5258  0.1646
   67SAPC   C28 5602   5.861   5.090   7.337  0.1586 -0.3281  0.2883
   67SAPC   H8R 5603   5.960   5.061   7.301 -0.0980 -2.4170  1.1366
   67SAPC   C29 5604   5.858   5.165   7.444  0.0362 -0.2642  0.6662
   67SAPC   H9R 5605   5.953   5.205   7.483  1.8048 -2.6064 -0.9612
   67SAPC  C210 5606   5.741   5.211   7.516 -0.0776  0.7747 -0.0055
   67SAPC  H10R 5607   5.780   5.248   7.613 -1.1345  1.3835  0.2028
   67SAPC  H10S 5608   5.683   5.120   7.543  1.2366 -0.3539 -0.8612
   67SAPC  C211 5609   5.650   5.315   7.453  0.0287 -0.5225 -0.2679
   67SAPC  H11R 5610   5.544   5.284   7.449 -0.6089  0.7239  3.2865
   67SAPC  C212 5611   5.680   5.442   7.411  0.0040 -0.1128  0.9072
   67SAPC  H12R 5612   5.604   5.496   7.352  0.0727 -0.1575  0.7775
   67SAPC  C213 5613   5.816   5.505   7.404  0.2650  0.1138  0.2459
   67SAPC  H13R 5614   5.860   5.476   7.307 -0.8256 -1.6668  0.2342
   67SAPC  H13S 5615   5.867   5.459   7.492  1.0999  1.0610  0.2685
   67SAPC  C214 5616   5.826   5.657   7.427 -0.2560 -0.2178  0.1218
   67SAPC  H14R 5617   5.851   5.684   7.531 -0.8938 -0.5635  0.3729
   67SAPC  C215 5618   5.799   5.748   7.329 -0.6121 -0.2338  0.0559
   67SAPC  H15R 5619   5.788   5.850   7.368 -0.2365 -0.2586  0.2369
   67SAPC  C216 5620   5.761   5.728   7.180 -0.3810  0.1933 -0.1707
   67SAPC  H16R 5621   5.653   5.750   7.168 -0.7518 -0.9812  0.7825
   67SAPC  H16S 5622   5.785   5.628   7.139  1.2753 -0.2003  1.5840
   67SAPC  C217 5623   5.833   5.831   7.089 -0.2037 -0.0844 -0.1019
   67SAPC  H17R 5624   5.938   5.796   7.084 -0.8784 -2.3985  0.4016
   67SAPC  H17S 5625   5.844   5.934   7.129  1.0031 -0.6216  1.0302
   67SAPC  C218 5626   5.780   5.835   6.945  0.2917  0.7690  0.9576
   67SAPC  H18R 5627   5.710   5.922   6.946  0.4536  0.9608 -0.8022
   67SAPC  H18S 5628   5.719   5.752   6.904  2.3279  1.3289 -3.8198
   67SAPC  C219 5629   5.886   5.868   6.835  1.1805 -0.1293  0.6927
   67SAPC  H19R 5630   5.944   5.955   6.871  2.1337 -0.1091 -0.8137
   67SAPC  H19S 5631   5.826   5.891   6.744  3.1545  1.6179 -0.2527
   67SAPC  C220 5632   5.970   5.749   6.813 -0.2014 -0.3795 -0.0959
   67SAPC  H20R 5633   5.913   5.654   6.826 -1.6545  0.4305 -0.2929
   67SAPC  H20S 5634   6.050   5.752   6.891 -0.2577  0.0564 -0.0481
   67SAPC  H20T 5635   6.011   5.740   6.710  0.3008  2.0500 -0.1653
   67SAPC   C33 5636   5.940   4.217   7.259 -0.7385 -0.3837  0.4270
   67SAPC   H3X 5637   6.039   4.196   7.213 -0.1971 -0.4363  1.5904
   67SAPC   H3Y 5638   5.876   4.136   7.219 -1.0111 -1.1905  2.3967
   67SAPC   C34 5639   5.958   4.201   7.414  0.2858  0.2105  0.1477
   67SAPC   H4X 5640   6.026   4.285   7.442 -2.1932  2.9035 -1.3630
   67SAPC   H4Y 5641   6.007   4.103   7.433 -1.0011 -0.1232  1.9315
   67SAPC   C35 5642   5.835   4.231   7.496  0.3427  0.5063  0.4232
   67SAPC   H5X 5643   5.755   4.156   7.476  1.8099 -0.9177 -0.2763
   67SAPC   H5Y 5644   5.804   4.332   7.462  3.4613  1.0373 -1.1554
   67SAPC   C36 5645   5.871   4.247   7.642 -0.3314  0.5350  0.5351
   67SAPC   H6X 5646   5.773   4.260   7.693 -0.0890 -1.2588  1.5717
   67SAPC   H6Y 5647   5.933   4.336   7.663 -0.3176  1.0369 -1.4706
   67SAPC   C37 5648   5.931   4.124   7.711  0.1546 -0.1281 -0.4713
   67SAPC   H7X 5649   6.030   4.129   7.660 -0.7488 -0.1727 -2.3463
   67SAPC   H7Y 5650   5.885   4.027   7.679  0.7484 -0.8479  0.7852
   67SAPC   C38 5651   5.957   4.142   7.861 -0.3870 -0.3312 -0.1829
   67SAPC   H8X 5652   6.031   4.063   7.886 -0.0942 -0.2201 -0.6738
   67SAPC   H8Y 5653   5.864   4.121   7.918  0.9658 -0.8535  1.9587
   67SAPC   C39 5654   5.997   4.290   7.898 -0.2175  0.3012 -0.1139
   67SAPC   H9X 5655   5.924   4.371   7.875 -2.4039 -1.1519  1.3143
   67SAPC   H9Y 5656   6.090   4.306   7.839 -0.1047  0.1076  0.0085
   67SAPC  C310 5657   6.030   4.319   8.035 -0.0290  0.1925 -0.2787
   67SAPC  H10X 5658   6.076   4.420   8.043  0.5851 -0.0524 -0.6236
   67SAPC  H10Y 5659   6.109   4.247   8.066 -2.3870 -3.2804 -1.6022
   67SAPC  C311 5660   5.912   4.304   8.133 -0.0018 -0.8238 -0.1284
   67SAPC  H11X 5661   5.884   4.196   8.136  1.0825 -1.1145  3.0410
   67SAPC  H11Y 5662   5.835   4.371   8.089  0.7173  1.9135  2.5020
   67SAPC  C312 5663   5.923   4.361   8.271 -0.3742  0.0400  0.1495
   67SAPC  H12X 5664   5.819   4.374   8.308 -0.5695 -0.1982 -0.2978
   67SAPC  H12Y 5665   5.970   4.460   8.257 -0.1653 -0.1192 -0.3002
   67SAPC  C313 5666   6.007   4.267   8.362 -0.0360  0.2780 -0.0903
   67SAPC  H13X 5667   6.062   4.198   8.294 -0.5160 -1.0976  0.8901
   67SAPC  H13Y 5668   5.930   4.221   8.427 -1.5441  0.3193 -1.7681
   67SAPC  C314 5669   6.120   4.337   8.441 -0.4355  0.0360 -0.0899
   67SAPC  H14X 5670   6.208   4.356   8.377 -0.1210  1.4865  0.7261
   67SAPC  H14Y 5671   6.159   4.272   8.523  1.0958  3.2106  1.8886
   67SAPC  C315 5672   6.080   4.462   8.516 -0.0098 -0.5076  0.6252
   67SAPC  H15X 5673   6.061   4.548   8.448  0.8154 -0.8798 -0.0749
   67SAPC  H15Y 5674   6.160   4.491   8.587 -0.5221  3.8920 -0.2731
   67SAPC  C316 5675   5.956   4.437   8.605 -0.2338 -0.2989  0.9393
   67SAPC  H16X 5676   5.978   4.354   8.675  0.4783  0.0097  1.0972
   67SAPC  H16Y 5677   5.874   4.416   8.533  0.7508 -0.4558 -0.1727
   67SAPC  C317 5678   5.935   4.547   8.706  0.4999  0.1338  0.5131
   67SAPC  H17X 5679   5.929   4.648   8.660 -0.7848 -0.0949  0.1266
   67SAPC  H17Y 5680   6.022   4.554   8.774  0.3282  0.9717  0.6602
   67SAPC  C318 5681   5.810   4.525   8.797 -0.3807 -0.6153  0.1318
   67SAPC  H18X 5682   5.839   4.439   8.860  0.8515 -0.6597 -0.4726
   67SAPC  H18Y 5683   5.721   4.492   8.739  0.1255 -0.1022 -0.9691
   67SAPC  H18Z 5684   5.792   4.606   8.870  2.1597 -1.0589  1.3278
   68SAPC     N 5685   4.675   4.869   5.974  0.1364 -0.0495  0.3470
   68SAPC   C12 5686   4.580   4.965   6.044 -0.4483 -0.2536 -0.1117
   68SAPC  H12A 5687   4.631   5.058   6.064 -1.4173  0.2251  0.2252
   68SAPC  H12B 5688   4.545   4.920   6.136 -0.7785  1.1496  0.4783
   68SAPC   C13 5689   4.740   4.940   5.857  0.4044 -0.1044  0.7135
   68SAPC  H13A 5690   4.673   4.978   5.782  1.2465 -0.9171 -0.4827
   68SAPC  H13B 5691   4.788   5.028   5.898  2.0879 -1.3316  1.4716
   68SAPC  H13C 5692   4.809   4.879   5.801 -0.0700  1.7690 -2.1289
   68SAPC   C14 5693   4.784   4.840   6.073 -0.1892  0.4977  0.2906
   68SAPC  H14A 5694   4.853   4.767   6.034  1.8170  1.1495  2.4072
   68SAPC  H14B 5695   4.834   4.935   6.088 -2.4622  1.5448  1.9289
   68SAPC  H14C 5696   4.742   4.798   6.163 -1.2935 -3.2449 -1.7627
   68SAPC   C15 5697   4.615   4.742   5.926 -0.3202 -0.0741  0.6772
   68SAPC  H15A 5698   4.603   4.681   6.014  0.6843 -2.7384 -0.9095
   68SAPC  H15B 5699   4.524   4.752   5.868  0.9596 -0.5707 -1.5317
   68SAPC  H15C 5700   4.685   4.692   5.862  0.8773  1.3786  0.7986
   68SAPC   C11 5701   4.450   5.001   5.979  0.9025 -0.0841  0.1866
   68SAPC  H11A 5702   4.465   5.022   5.871  0.3743 -0.8639 -0.0444
   68SAPC  H11B 5703   4.415   5.100   6.014 -1.3777 -0.6792 -0.2462
   68SAPC     P 5704   4.258   4.880   6.120  0.3347  0.3092 -0.0524
   68SAPC   O13 5705   4.171   5.002   6.131  0.0410  0.0349  0.5549
   68SAPC   O14 5706   4.194   4.747   6.121 -0.8295  0.4135 -0.1579
   68SAPC   O12 5707   4.348   4.891   5.997 -0.1088 -0.3338  0.0661
   68SAPC   O11 5708   4.369   4.874   6.233 -0.3037 -0.5408 -0.1763
   68SAPC    C1 5709   4.416   4.747   6.278  0.0958 -0.1835 -0.3009
   68SAPC    HA 5710   4.419   4.671   6.197  1.7446 -1.5577  0.9723
   68SAPC    HB 5711   4.525   4.756   6.302 -0.3430  2.2295  1.1232
   68SAPC    C2 5712   4.352   4.693   6.409  0.2246 -1.2538  0.4322
   68SAPC    HS 5713   4.244   4.709   6.391 -0.4087  1.8327  5.1706
   68SAPC   O21 5714   4.403   4.777   6.516 -0.0443 -0.3374  0.3954
   68SAPC   C21 5715   4.317   4.821   6.606  1.0500  0.2669 -0.3858
   68SAPC   O22 5716   4.197   4.795   6.605  0.3401  0.2311  0.2390
   68SAPC   C22 5717   4.393   4.925   6.687  0.6965  0.1815  0.0292
   68SAPC   H2R 5718   4.408   5.010   6.617  0.3345  0.2417  0.0202
   68SAPC   H2S 5719   4.332   4.967   6.770 -1.9744  1.8651 -2.6038
   68SAPC    C3 5720   4.367   4.541   6.430 -0.4669 -0.5856  0.9768
   68SAPC    HX 5721   4.472   4.522   6.461  1.3005  4.4289 -0.8774
   68SAPC    HY 5722   4.348   4.488   6.334 -1.8060 -2.2177  2.0827
   68SAPC   O31 5723   4.290   4.496   6.537  0.1094  0.6705  0.4192
   68SAPC   C31 5724   4.183   4.426   6.511 -0.0613 -0.8504  0.1673
   68SAPC   O32 5725   4.155   4.380   6.397 -0.0042  0.6486 -0.0227
   68SAPC   C32 5726   4.089   4.417   6.628 -0.6898  0.0784 -0.3205
   68SAPC   H2X 5727   4.034   4.322   6.613 -2.0884  0.9431 -0.8825
   68SAPC   H2Y 5728   4.012   4.496   6.614 -1.0339 -0.1977  0.0221
   68SAPC   C23 5729   4.535   4.876   6.740  0.0705  0.5833  0.1074
   68SAPC   H3R 5730   4.574   4.945   6.818 -0.1170 -0.5453  1.2472
   68SAPC   H3S 5731   4.579   4.863   6.639  0.5211 -0.2518  0.4015
   68SAPC   C24 5732   4.531   4.737   6.813 -0.3980 -0.0566 -0.0267
   68SAPC   H4R 5733   4.634   4.724   6.853  0.1338  0.4746 -1.1691
   68SAPC   H4S 5734   4.512   4.655   6.740 -0.7226 -0.5919  0.6434
   68SAPC   C25 5735   4.426   4.712   6.919  0.3434  0.1923  0.3101
   68SAPC   H5R 5736   4.334   4.655   6.897  0.4018  0.0060  0.5370
   68SAPC   C26 5737   4.444   4.752   7.052 -0.1119 -0.3651 -0.3887
   68SAPC   H6R 5738   4.372   4.732   7.132 -0.1098 -0.9552 -0.5263
   68SAPC   C27 5739   4.570   4.820   7.103  0.3015 -0.8317  0.6285
   68SAPC   H7R 5740   4.602   4.891   7.023 -0.4599 -0.2810  0.7977
   68SAPC   H7S 5741   4.644   4.738   7.114  0.1070 -1.1804 -0.5180
   68SAPC   C28 5742   4.552   4.906   7.231  0.2240 -0.0376 -0.2387
   68SAPC   H8R 5743   4.560   5.015   7.216  1.4166 -0.2859 -1.6301
   68SAPC   C29 5744   4.544   4.857   7.355 -0.0380 -0.1682 -0.5372
   68SAPC   H9R 5745   4.527   4.925   7.440 -0.9602 -0.8948 -0.1268
   68SAPC  C210 5746   4.554   4.715   7.396  0.0642  1.0042  0.1683
   68SAPC  H10R 5747   4.651   4.690   7.444 -0.6284 -0.1829  1.0193
   68SAPC  H10S 5748   4.558   4.648   7.308  4.3710 -0.4869  1.2561
   68SAPC  C211 5749   4.444   4.673   7.484  0.6123 -0.1079  0.7587
   68SAPC  H11R 5750   4.361   4.635   7.422  1.7996 -1.0796 -0.2876
   68SAPC  C212 5751   4.432   4.687   7.617  0.3751  0.1361 -0.0712
   68SAPC  H12R 5752   4.341   4.656   7.670  0.0206 -0.1586 -0.8301
   68SAPC  C213 5753   4.530   4.748   7.713 -0.0232 -0.5345  0.2950
   68SAPC  H13R 5754   4.501   4.856   7.714 -2.7243 -1.1305  3.7337
   68SAPC  H13S 5755   4.636   4.751   7.682 -0.1598  0.4961 -0.1190
   68SAPC  C214 5756   4.508   4.709   7.855  0.0008 -0.1781  0.6219
   68SAPC  H14R 5757   4.405   4.675   7.874 -0.9380 -0.0530 -3.3507
   68SAPC  C215 5758   4.598   4.707   7.955  0.0830  0.0793  0.3821
   68SAPC  H15R 5759   4.574   4.670   8.055 -1.5399  0.3695  0.1339
   68SAPC  C216 5760   4.743   4.739   7.941 -0.1604  0.7554 -0.1965
   68SAPC  H16R 5761   4.769   4.822   8.010  1.2143 -0.3543  0.6603
   68SAPC  H16S 5762   4.779   4.777   7.843  0.9272  0.9618  0.2730
   68SAPC  C217 5763   4.840   4.621   7.977  0.5821 -0.3973 -0.0282
   68SAPC  H17R 5764   4.931   4.628   7.913  1.2130  0.8332  0.9585
   68SAPC  H17S 5765   4.798   4.521   7.953 -0.3657  0.2280 -1.0440
   68SAPC  C218 5766   4.875   4.624   8.135  0.4747 -0.6034  0.7312
   68SAPC  H18R 5767   4.780   4.594   8.185 -0.3803 -1.8621 -1.4950
   68SAPC  H18S 5768   4.901   4.731   8.149 -0.6872  0.1252 -1.8961
   68SAPC  C219 5769   4.998   4.543   8.168 -0.1910 -0.0836 -0.2761
   68SAPC  H19R 5770   5.088   4.567   8.108 -0.0841  1.9124  0.5873
   68SAPC  H19S 5771   4.972   4.437   8.147  2.1123 -0.4121 -1.8454
   68SAPC  C220 5772   5.027   4.554   8.319 -1.0253  0.2084 -0.2709
   68SAPC  H20R 5773   5.079   4.457   8.334 -0.8000  0.3893  0.1377
   68SAPC  H20S 5774   4.933   4.548   8.377  0.1248 -1.7344  1.5625
   68SAPC  H20T 5775   5.096   4.636   8.348  1.7649 -1.4443 -1.7645
   68SAPC   C33 5776   4.158   4.411   6.765  0.2489  0.3595  0.2229
   68SAPC   H3X 5777   4.227   4.496   6.782  1.8441 -1.1890  2.0306
   68SAPC   H3Y 5778   4.228   4.324   6.768 -1.2065 -0.8856 -0.8395
   68SAPC   C34 5779   4.063   4.403   6.889 -0.3660 -0.1781  0.5727
   68SAPC   H4X 5780   3.980   4.336   6.859  0.7189 -1.8863  1.2132
   68SAPC   H4Y 5781   4.027   4.505   6.916 -0.7042  0.2993 -1.5197
   68SAPC   C35 5782   4.131   4.332   7.006  0.4724  0.5517 -0.1564
   68SAPC   H5X 5783   4.200   4.252   6.971 -1.0516 -1.5018  1.2473
   68SAPC   H5Y 5784   4.057   4.279   7.069  2.8320 -2.6466  0.1766
   68SAPC   C36 5785   4.211   4.424   7.096 -0.1380  0.2879 -0.2183
   68SAPC   H6X 5786   4.140   4.484   7.156 -0.3339 -0.5884  0.4358
   68SAPC   H6Y 5787   4.259   4.503   7.033 -1.3161  2.6156  1.6164
   68SAPC   C37 5788   4.302   4.363   7.207 -0.1460 -0.7323  0.1460
   68SAPC   H7X 5789   4.362   4.440   7.260  0.4328 -1.5859  0.7422
   68SAPC   H7Y 5790   4.379   4.301   7.157  0.4648 -0.1074  0.2885
   68SAPC   C38 5791   4.222   4.271   7.303 -0.3167  0.0152  0.3101
   68SAPC   H8X 5792   4.175   4.183   7.254  0.1976 -1.5809  2.5148
   68SAPC   H8Y 5793   4.142   4.332   7.351 -1.2042 -1.2408  0.4917
   68SAPC   C39 5794   4.302   4.210   7.425 -0.3187 -0.0907 -0.0783
   68SAPC   H9X 5795   4.360   4.127   7.380 -0.2486 -0.2625  0.3272
   68SAPC   H9Y 5796   4.226   4.167   7.495 -1.1310  2.0747  0.4448
   68SAPC  C310 5797   4.385   4.313   7.505 -0.0133 -0.1522  0.2382
   68SAPC  H10X 5798   4.320   4.389   7.555 -0.2971 -1.0454  1.2592
   68SAPC  H10Y 5799   4.454   4.373   7.442 -0.1009 -1.2826 -0.9662
   68SAPC  C311 5800   4.462   4.241   7.618 -0.0476 -0.4204  0.3480
   68SAPC  H11X 5801   4.472   4.132   7.600 -1.3820 -0.2770 -1.5760
   68SAPC  H11Y 5802   4.408   4.241   7.716 -0.0535  2.9880  0.4934
   68SAPC  C312 5803   4.605   4.299   7.633  0.4288 -1.1109 -0.1900
   68SAPC  H12X 5804   4.595   4.404   7.668  0.9872 -0.9002 -0.6605
   68SAPC  H12Y 5805   4.658   4.301   7.535  0.8313 -1.5308  0.0178
   68SAPC  C313 5806   4.696   4.244   7.740 -0.1005 -0.3356 -0.2614
   68SAPC  H13X 5807   4.790   4.301   7.723 -0.6106  0.6107  0.0101
   68SAPC  H13Y 5808   4.708   4.136   7.720  1.2853  0.0029 -1.3991
   68SAPC  C314 5809   4.641   4.261   7.885  0.7870  0.2130  0.0973
   68SAPC  H14X 5810   4.539   4.218   7.895  0.9173  0.3637  2.6646
   68SAPC  H14Y 5811   4.632   4.371   7.894 -0.9211  0.1906 -0.7855
   68SAPC  C315 5812   4.727   4.203   7.994 -0.0451  0.2681  0.0495
   68SAPC  H15X 5813   4.832   4.233   7.972 -0.1127  1.3026  1.0322
   68SAPC  H15Y 5814   4.733   4.092   7.997  0.4013  0.2986  0.8052
   68SAPC  C316 5815   4.690   4.259   8.136  0.4066 -0.2098  0.6079
   68SAPC  H16X 5816   4.695   4.369   8.123 -0.4240  0.0402  2.1650
   68SAPC  H16Y 5817   4.765   4.241   8.216 -0.5337 -1.1945  1.3062
   68SAPC  C317 5818   4.553   4.232   8.187  0.1831  0.4241 -0.3831
   68SAPC  H17X 5819   4.467   4.267   8.126  1.0244 -1.2712 -2.6726
   68SAPC  H17Y 5820   4.532   4.289   8.280 -1.5219  0.8158 -0.9718
   68SAPC  C318 5821   4.512   4.089   8.214 -0.5294 -0.5620  0.0887
   68SAPC  H18X 5822   4.501   4.026   8.123 -1.7497 -0.9413  0.4777
   68SAPC  H18Y 5823   4.419   4.087   8.274  0.3315  0.8623  1.5487
   68SAPC  H18Z 5824   4.582   4.036   8.282 -0.5122 -0.7754 -0.0912
   69SLPC     N 5825   5.199   6.413  10.941 -0.6642  0.0629  0.3550
   69SLPC   C13 5826   5.278   6.492  10.840  0.3580 -0.4299  0.1908
   69SLPC  H13A 5827   5.308   6.427  10.759 -1.9541 -1.4534  0.0707
   69SLPC  H13B 5828   5.211   6.565  10.795 -0.2843  0.3785  2.3428
   69SLPC  H13C 5829   5.364   6.539  10.886  0.4516  0.7004 -1.0454
   69SLPC   C14 5830   5.147   6.492  11.063 -0.1606 -0.0842  0.1665
   69SLPC  H14A 5831   5.089   6.430  11.130  0.1256  0.0631  0.5569
   69SLPC  H14B 5832   5.234   6.523  11.119 -0.6133 -0.8649  1.3438
   69SLPC  H14C 5833   5.092   6.583  11.044 -0.3477  0.1026  1.4903
   69SLPC   C15 5834   5.292   6.305  10.986  0.3068 -0.5746 -0.3850
   69SLPC  H15A 5835   5.307   6.226  10.913  0.3690 -1.8441  0.9542
   69SLPC  H15B 5836   5.390   6.337  11.020 -0.8269  0.0500  2.6245
   69SLPC  H15C 5837   5.243   6.253  11.067 -0.1391  0.2294 -0.1365
   69SLPC   C12 5838   5.078   6.350  10.876  0.5676  0.3562 -0.4482
   69SLPC  H12A 5839   5.096   6.296  10.784 -1.8982 -1.8299  0.2500
   69SLPC  H12B 5840   5.008   6.423  10.839 -1.3066 -1.9466 -1.7225
   69SLPC   C11 5841   4.985   6.245  10.949 -0.6021 -0.7335  0.0992
   69SLPC  H11A 5842   4.889   6.242  10.893 -0.6254 -0.8624  0.1461
   69SLPC  H11B 5843   4.960   6.280  11.052  0.7033 -1.1791  0.5861
   69SLPC     P 5844   4.982   5.997  11.029 -0.3086 -0.4761  0.1143
   69SLPC   O13 5845   5.090   5.913  11.074  0.7272  0.2476  0.0893
   69SLPC   O14 5846   4.872   6.038  11.122  0.2838  0.1740  0.0379
   69SLPC   O12 5847   5.047   6.116  10.952  0.7931  0.4180  0.1770
   69SLPC   O11 5848   4.910   5.927  10.910 -0.1058  0.6857  0.0408
   69SLPC    C1 5849   4.969   5.857  10.797 -0.8086 -0.5433 -0.4674
   69SLPC    HA 5850   5.076   5.841  10.822 -1.5186 -0.5093  3.1081
   69SLPC    HB 5851   4.929   5.753  10.787 -0.6479 -0.4768 -2.1518
   69SLPC    C2 5852   4.943   5.932  10.661 -0.1852  0.5316  0.1655
   69SLPC    HS 5853   4.973   6.033  10.694 -0.0984  0.4083  0.4653
   69SLPC   O21 5854   4.805   5.913  10.632 -0.0799 -0.0472  0.3330
   69SLPC   C21 5855   4.758   6.027  10.583 -0.2241 -1.5110 -0.1050
   69SLPC   O22 5856   4.814   6.133  10.576 -0.6281  0.5789 -0.3671
   69SLPC   C22 5857   4.616   6.014  10.544  0.7140 -0.0060  0.5764
   69SLPC   H2R 5858   4.582   5.908  10.544  1.2067 -0.1853  1.7721
   69SLPC   H2S 5859   4.555   6.066  10.621  0.2375  1.3472 -0.6722
   69SLPC    C3 5860   5.032   5.877  10.545 -0.1513 -0.3537  0.5325
   69SLPC    HX 5861   4.984   5.780  10.520  0.1594  0.2868 -3.0767
   69SLPC    HY 5862   5.140   5.861  10.564  0.5122  0.8055 -1.8632
   69SLPC   O31 5863   5.025   5.970  10.440  0.5857  0.2716  0.1886
   69SLPC   C31 5864   5.101   6.077  10.439 -0.5015 -0.0857 -0.3940
   69SLPC   O32 5865   5.177   6.113  10.526 -0.1446  0.7750 -0.7679
   69SLPC   C32 5866   5.077   6.170  10.321 -0.8030 -0.3574  0.3563
   69SLPC   H2X 5867   5.049   6.269  10.364 -0.2246 -0.1968  0.3692
   69SLPC   H2Y 5868   4.991   6.128  10.266 -1.8179  0.3079  1.3818
   69SLPC   C23 5869   4.583   6.068  10.407  0.0683  0.0332  0.3843
   69SLPC   H3R 5870   4.635   6.165  10.402  0.9703 -0.4329  0.5873
   69SLPC   H3S 5871   4.473   6.079  10.397 -0.1733 -2.9006 -1.1845
   69SLPC   C24 5872   4.646   5.989  10.287  0.0410  0.1595 -0.8131
   69SLPC   H4R 5873   4.635   5.879  10.288  2.5651 -0.1360  1.2974
   69SLPC   H4S 5874   4.754   6.006  10.300  0.0898 -0.1394 -0.8175
   69SLPC   C25 5875   4.597   6.050  10.154 -0.3603 -0.0517  0.1606
   69SLPC   H5R 5876   4.594   6.161  10.160 -0.3861  0.0127 -0.9483
   69SLPC   H5S 5877   4.494   6.015  10.132 -0.1616 -0.6125  0.0960
   69SLPC   C26 5878   4.688   5.995  10.033  0.2301 -0.2900 -1.0603
   69SLPC   H6R 5879   4.687   5.885  10.020  1.8501 -0.7881  2.1328
   69SLPC   H6S 5880   4.792   6.022  10.064 -0.5673  1.0397  0.6706
   69SLPC   C27 5881   4.646   6.065   9.906 -0.0080  0.4419  0.2263
   69SLPC   H7R 5882   4.639   6.172   9.935 -0.8700 -0.0764  2.1081
   69SLPC   H7S 5883   4.552   6.024   9.865  2.3293 -2.1036 -3.1616
   69SLPC   C28 5884   4.742   6.052   9.784  0.7684  0.6608  0.0162
   69SLPC   H8R 5885   4.848   6.059   9.817  0.8647 -0.2758 -0.0703
   69SLPC   H8S 5886   4.728   6.144   9.724 -2.2115  1.0147  1.0646
   69SLPC   C29 5887   4.744   5.923   9.705 -0.0050 -0.2162  0.2406
   69SLPC   H9R 5888   4.765   5.838   9.771  2.1442  0.7154  0.8428
   69SLPC  C210 5889   4.734   5.908   9.576 -0.8644 -0.2877 -0.1937
   69SLPC  H10R 5890   4.745   5.806   9.538  2.5877  0.3731 -1.3672
   69SLPC  C211 5891   4.711   6.022   9.472  1.0263  0.5651  0.2428
   69SLPC  H11R 5892   4.767   6.002   9.378  0.5081 -0.8228  0.2037
   69SLPC  H11S 5893   4.775   6.104   9.510 -0.0084  2.5402 -2.0141
   69SLPC  C212 5894   4.564   6.071   9.447 -0.0953  0.2457 -0.1675
   69SLPC  H12R 5895   4.524   6.146   9.516 -1.3503 -0.2728 -0.3132
   69SLPC  C213 5896   4.496   6.030   9.341  0.4276 -0.0855  1.0149
   69SLPC  H13R 5897   4.394   6.068   9.324 -0.5083 -2.1334  1.6606
   69SLPC  C214 5898   4.533   5.941   9.225  0.1513  0.2614  0.7036
   69SLPC  H14R 5899   4.444   5.877   9.203  0.3869  0.3361 -0.4950
   69SLPC  H14S 5900   4.615   5.874   9.261 -1.5140 -1.5376  1.3687
   69SLPC  C215 5901   4.565   6.024   9.104  0.3963  0.3838 -0.0910
   69SLPC  H15R 5902   4.667   6.065   9.117  1.0366 -1.2223  0.2236
   69SLPC  H15S 5903   4.496   6.108   9.080 -1.1943 -1.2330 -1.4987
   69SLPC  C216 5904   4.565   5.939   8.974 -0.8838  0.1863  0.0001
   69SLPC  H16R 5905   4.462   5.903   8.955 -1.6886  2.8538 -1.2717
   69SLPC  H16S 5906   4.638   5.856   8.977 -1.1500 -0.0232  1.0435
   69SLPC  C217 5907   4.583   6.028   8.849 -0.2786 -0.6460  0.6276
   69SLPC  H17R 5908   4.623   5.964   8.767 -2.6576 -0.3910 -0.8429
   69SLPC  H17S 5909   4.657   6.105   8.875 -0.5891  0.5948 -1.8297
   69SLPC  C218 5910   4.457   6.098   8.795  0.2693 -0.0620 -0.2813
   69SLPC  H18R 5911   4.395   6.017   8.751 -1.3411  0.0262  1.6830
   69SLPC  H18S 5912   4.487   6.174   8.719  0.9426 -1.3281 -1.3135
   69SLPC  H18T 5913   4.398   6.143   8.878 -1.2629 -0.0993 -1.3273
   69SLPC   C33 5914   5.194   6.180  10.214  0.7932  0.5272 -0.0592
   69SLPC   H3X 5915   5.138   6.246  10.146 -1.6983 -1.7024 -0.3539
   69SLPC   H3Y 5916   5.205   6.087  10.154 -3.9440  1.4458 -2.8006
   69SLPC   C34 5917   5.327   6.234  10.254  0.9413 -0.2604  0.0760
   69SLPC   H4X 5918   5.362   6.176  10.342 -0.9881  0.5610  1.4493
   69SLPC   H4Y 5919   5.297   6.335  10.290 -0.7631 -0.6713 -0.0792
   69SLPC   C35 5920   5.424   6.226  10.137 -0.4817  0.0508  0.7586
   69SLPC   H5X 5921   5.457   6.120  10.125 -1.5140 -0.3347  1.1703
   69SLPC   H5Y 5922   5.508   6.294  10.161  1.0420 -0.7445 -1.8842
   69SLPC   C36 5923   5.379   6.279   9.998 -0.2762 -0.7684 -0.0967
   69SLPC   H6X 5924   5.326   6.375  10.011 -0.4040 -0.7015 -1.0460
   69SLPC   H6Y 5925   5.293   6.216   9.966 -0.3077 -0.3868 -0.7855
   69SLPC   C37 5926   5.487   6.281   9.890 -0.2625  0.7448 -0.4159
   69SLPC   H7X 5927   5.511   6.174   9.871  0.3979  0.9833 -0.9835
   69SLPC   H7Y 5928   5.579   6.336   9.921 -0.1672  0.7563 -0.7131
   69SLPC   C38 5929   5.425   6.331   9.760  0.6837  0.7869  0.1242
   69SLPC   H8X 5930   5.399   6.438   9.771 -1.0143  0.3888  0.2838
   69SLPC   H8Y 5931   5.335   6.270   9.740  0.4068  1.3005 -0.2149
   69SLPC   C39 5932   5.525   6.327   9.642 -0.0676 -0.0595 -0.1374
   69SLPC   H9X 5933   5.559   6.221   9.654  0.5871  0.1791  0.1585
   69SLPC   H9Y 5934   5.619   6.380   9.669  0.0657 -0.3901  0.0630
   69SLPC  C310 5935   5.469   6.356   9.503  0.6578  0.4394  0.3818
   69SLPC  H10X 5936   5.455   6.463   9.480 -2.4810  0.0210 -0.1301
   69SLPC  H10Y 5937   5.375   6.297   9.499  1.0591 -0.1442 -1.4627
   69SLPC  C311 5938   5.555   6.307   9.379 -0.3346  0.1911 -0.8641
   69SLPC  H11X 5939   5.579   6.199   9.384  4.1028  1.0244  0.9685
   69SLPC  H11Y 5940   5.652   6.360   9.372 -0.9106  1.2703 -0.8885
   69SLPC  C312 5941   5.499   6.342   9.244 -0.0428  0.0890  0.0713
   69SLPC  H12X 5942   5.521   6.450   9.231  2.0478 -0.2140  0.7066
   69SLPC  H12Y 5943   5.388   6.335   9.253 -0.1610  2.6062  1.5817
   69SLPC  C313 5944   5.541   6.258   9.126 -0.2417  0.4460  0.4873
   69SLPC  H13X 5945   5.474   6.169   9.123 -0.1643  0.3924  0.3430
   69SLPC  H13Y 5946   5.640   6.209   9.138 -0.9811 -0.8873  1.4866
   69SLPC  C314 5947   5.520   6.324   8.994 -0.2182  1.2232  0.7676
   69SLPC  H14X 5948   5.591   6.410   8.993 -0.3275  1.3110  0.6484
   69SLPC  H14Y 5949   5.416   6.364   8.989 -0.1348  1.5638  1.5493
   69SLPC  C315 5950   5.544   6.230   8.883  0.0182  0.1039 -0.1207
   69SLPC  H15X 5951   5.452   6.168   8.878  0.0793 -0.1369  1.3576
   69SLPC  H15Y 5952   5.625   6.155   8.899 -2.1389 -2.2595  0.3635
   69SLPC  C316 5953   5.565   6.297   8.741 -0.3605 -0.7232  0.2110
   69SLPC  H16X 5954   5.649   6.369   8.753 -1.4148  0.6909 -0.6342
   69SLPC  H16Y 5955   5.474   6.351   8.708 -0.3355 -1.3995 -1.0161
   69SLPC  C317 5956   5.611   6.197   8.631 -0.5682  0.3457 -0.6132
   69SLPC  H17X 5957   5.548   6.106   8.635  0.1673 -0.1479  1.3766
   69SLPC  H17Y 5958   5.717   6.168   8.647 -0.5111  1.4554  1.3066
   69SLPC  C318 5959   5.616   6.263   8.493  1.0059  0.7054  0.0385
   69SLPC  H18X 5960   5.645   6.185   8.419 -1.9315 -0.9795  0.4811
   69SLPC  H18Y 5961   5.685   6.348   8.480  0.3850  1.1464 -0.4469
   69SLPC  H18Z 5962   5.515   6.305   8.473  1.0572  1.7296  1.7427
   70SLPC     N 5963   0.342   3.087  11.022 -0.0080 -0.5684 -0.4248
   70SLPC   C13 5964   0.311   2.947  10.995 -0.7617  0.1320  0.3703
   70SLPC  H13A 5965   0.291   2.897  11.089  0.0546 -0.0413  0.4547
   70SLPC  H13B 5966   0.213   2.936  10.949 -1.6119 -0.1158  2.1484
   70SLPC  H13C 5967   0.391   2.894  10.946 -0.3591 -1.7260  2.8516
   70SLPC   C14 5968   0.471   3.099  11.084 -0.1042  0.1926  0.3454
   70SLPC  H14A 5969   0.563   3.064  11.039  1.2585 -0.4600  3.4043
   70SLPC  H14B 5970   0.483   3.204  11.108 -0.4183  0.6571 -1.3916
   70SLPC  H14C 5971   0.480   3.049  11.179  0.7751 -1.5882 -0.6378
   70SLPC   C15 5972   0.252   3.128  11.137  0.0743  0.2941 -0.1684
   70SLPC  H15A 5973   0.265   3.231  11.168 -2.4156 -0.0017  2.2424
   70SLPC  H15B 5974   0.160   3.127  11.082  0.2247 -1.3198 -0.4390
   70SLPC  H15C 5975   0.252   3.057  11.218  0.5943 -1.2469 -1.4679
   70SLPC   C12 5976   0.324   3.161  10.896 -0.6252 -0.0918  0.0398
   70SLPC  H12A 5977   0.389   3.128  10.816 -1.1925 -3.6909  0.8822
   70SLPC  H12B 5978   0.349   3.265  10.913  0.4768 -0.4883  1.0319
   70SLPC   C11 5979   0.181   3.157  10.826  0.1088  0.2586  0.0788
   70SLPC  H11A 5980   0.174   3.055  10.785  1.9765 -0.3798  1.2144
   70SLPC  H11B 5981   0.190   3.217  10.733  1.1993 -1.7309 -1.1713
   70SLPC     P 5982  -0.065   3.140  10.900  0.3018  0.2095  0.4009
   70SLPC   O13 5983  -0.064   2.997  10.855 -1.0842  0.3705 -0.5117
   70SLPC   O14 5984  -0.151   3.172  11.020  0.0655  0.5304 -0.3035
   70SLPC   O12 5985   0.080   3.201  10.924 -0.1568 -0.0368  0.6741
   70SLPC   O11 5986  -0.110   3.234  10.779  0.3499 -0.0619 -0.0252
   70SLPC    C1 5987  -0.123   3.368  10.807 -0.0018 -0.1098  0.0769
   70SLPC    HA 5988  -0.218   3.377  10.863 -0.8104 -0.3754 -1.2151
   70SLPC    HB 5989  -0.034   3.414  10.856 -1.9562  1.8840  1.9559
   70SLPC    C2 5990  -0.128   3.452  10.679 -0.7984  0.1072 -0.2360
   70SLPC    HS 5991  -0.120   3.556  10.718 -1.3012 -0.1813  0.6787
   70SLPC   O21 5992  -0.259   3.431  10.613 -0.4293 -0.4292  0.4561
   70SLPC   C21 5993  -0.313   3.545  10.561 -0.2923  0.7245 -0.3419
   70SLPC   O22 5994  -0.269   3.657  10.576 -0.1663 -0.1692  0.3894
   70SLPC   C22 5995  -0.434   3.507  10.488  0.5252 -0.3958  0.5639
   70SLPC   H2R 5996  -0.456   3.399  10.473 -0.6834 -0.3595  1.8162
   70SLPC   H2S 5997  -0.521   3.547  10.545  0.2191 -1.1874  0.6788
   70SLPC    C3 5998  -0.019   3.424  10.577 -0.1067 -0.2137  0.0575
   70SLPC    HX 5999  -0.033   3.324  10.530  2.8328 -0.5080 -0.3373
   70SLPC    HY 6000   0.073   3.419  10.637  0.0236  0.7748 -0.0458
   70SLPC   O31 6001  -0.015   3.513  10.460  0.2129  0.2496 -1.3316
   70SLPC   C31 6002   0.065   3.617  10.473  1.0568 -0.3074  0.0903
   70SLPC   O32 6003   0.126   3.646  10.575  0.1928  0.4715 -0.0352
   70SLPC   C32 6004   0.054   3.693  10.345  0.0844 -0.9742  0.2042
   70SLPC   H2X 6005  -0.052   3.697  10.310  0.1443  0.1761  0.1252
   70SLPC   H2Y 6006   0.107   3.626  10.275  1.9310  0.8286 -0.2160
   70SLPC   C23 6007  -0.445   3.579  10.358  0.7274  0.0090 -0.0804
   70SLPC   H3R 6008  -0.437   3.688  10.375 -1.5895  0.2622 -0.3547
   70SLPC   H3S 6009  -0.541   3.561  10.306  0.7339  0.2558 -0.1793
   70SLPC   C24 6010  -0.339   3.539  10.253 -0.3638  0.3784 -0.1187
   70SLPC   H4R 6011  -0.347   3.438  10.206  0.5674  0.4252 -0.3912
   70SLPC   H4S 6012  -0.247   3.523  10.313  0.0675  0.0417 -0.8488
   70SLPC   C25 6013  -0.310   3.646  10.143 -0.4611  0.2183  0.4828
   70SLPC   H5R 6014  -0.268   3.731  10.200  4.2748 -0.8755 -0.9677
   70SLPC   H5S 6015  -0.407   3.660  10.090  0.3765 -2.0776 -1.8943
   70SLPC   C26 6016  -0.200   3.608  10.044 -0.7086 -0.5884  0.3831
   70SLPC   H6R 6017  -0.229   3.524   9.976 -1.1533 -0.5619  0.5326
   70SLPC   H6S 6018  -0.111   3.577  10.103 -0.8798 -0.8839  0.4898
   70SLPC   C27 6019  -0.163   3.732   9.960  0.0197  0.0362 -0.5443
   70SLPC   H7R 6020  -0.069   3.708   9.906  0.6817  1.9711 -0.3146
   70SLPC   H7S 6021  -0.144   3.817  10.029  3.3767  0.8755 -2.2922
   70SLPC   C28 6022  -0.267   3.787   9.862 -0.1175 -0.1036  0.3566
   70SLPC   H8R 6023  -0.210   3.877   9.832  1.3369 -0.6220  1.4729
   70SLPC   H8S 6024  -0.361   3.828   9.906 -0.6807 -1.2813  0.2963
   70SLPC   C29 6025  -0.301   3.687   9.754  0.0061  0.6784 -0.4986
   70SLPC   H9R 6026  -0.366   3.604   9.787 -0.3996  1.3533  0.4272
   70SLPC  C210 6027  -0.286   3.687   9.619 -0.2372 -0.2631  0.2959
   70SLPC  H10R 6028  -0.324   3.604   9.559  0.0258 -0.0487 -0.1724
   70SLPC  C211 6029  -0.216   3.799   9.546  0.3850 -0.8068  0.3467
   70SLPC  H11R 6030  -0.186   3.758   9.447 -2.1210 -0.5011 -0.6122
   70SLPC  H11S 6031  -0.122   3.819   9.601 -0.0720  2.5497  0.1198
   70SLPC  C212 6032  -0.295   3.925   9.535 -0.3619 -0.0177 -0.0774
   70SLPC  H12R 6033  -0.299   3.992   9.623 -1.0826 -0.7866  0.4896
   70SLPC  C213 6034  -0.375   3.953   9.434 -0.8368 -0.8650 -0.2831
   70SLPC  H13R 6035  -0.439   4.041   9.454  3.1800  1.7977  2.1917
   70SLPC  C214 6036  -0.395   3.869   9.314  0.2708 -0.1580  0.0236
   70SLPC  H14R 6037  -0.499   3.882   9.275 -0.0973  0.2322  1.0949
   70SLPC  H14S 6038  -0.399   3.761   9.337 -0.1752 -0.1656 -0.0770
   70SLPC  C215 6039  -0.302   3.902   9.193 -0.4911  0.6186  0.2136
   70SLPC  H15R 6040  -0.208   3.844   9.207  0.2402  1.8657  0.6153
   70SLPC  H15S 6041  -0.285   4.011   9.183  5.1197  0.0334  0.2569
   70SLPC  C216 6042  -0.370   3.861   9.058 -0.6225  0.0734  0.2107
   70SLPC  H16R 6043  -0.462   3.923   9.060 -0.5276  0.2000  1.3272
   70SLPC  H16S 6044  -0.408   3.757   9.067 -0.8584  0.0531 -0.8352
   70SLPC  C217 6045  -0.275   3.874   8.934 -0.1256  0.0720  0.2650
   70SLPC  H17R 6046  -0.186   3.820   8.972 -0.9631 -0.8419  0.9726
   70SLPC  H17S 6047  -0.248   3.982   8.925  1.6829 -0.1956  1.9184
   70SLPC  C218 6048  -0.337   3.801   8.810 -0.5467 -0.8406  0.3193
   70SLPC  H18R 6049  -0.274   3.805   8.719  0.6715 -0.6621  1.1487
   70SLPC  H18S 6050  -0.440   3.840   8.792 -0.0241 -0.2951 -1.7957
   70SLPC  H18T 6051  -0.349   3.693   8.833  0.6028 -0.7445  1.4915
   70SLPC   C33 6052   0.110   3.841  10.343  0.1819  0.0096 -0.4998
   70SLPC   H3X 6053   0.207   3.841  10.398 -1.9256  2.7131  3.7870
   70SLPC   H3Y 6054   0.038   3.912  10.390  1.9426  1.6716 -0.1556
   70SLPC   C34 6055   0.134   3.885  10.200  0.0600 -0.5307 -0.6982
   70SLPC   H4X 6056   0.184   3.984  10.209  0.7843 -0.8572 -1.0161
   70SLPC   H4Y 6057   0.033   3.892  10.155 -2.5109 -0.9790  4.2215
   70SLPC   C35 6058   0.239   3.800  10.133 -0.0610  0.0444  0.4332
   70SLPC   H5X 6059   0.202   3.699  10.106 -0.4053  0.6007 -1.2381
   70SLPC   H5Y 6060   0.323   3.805  10.206  0.5667  4.2620 -0.3456
   70SLPC   C36 6061   0.296   3.879  10.009 -0.2575  0.4196 -0.0188
   70SLPC   H6X 6062   0.382   3.820   9.970  0.8476  2.4711 -0.8513
   70SLPC   H6Y 6063   0.348   3.973  10.039  1.2664  0.0988 -1.4962
   70SLPC   C37 6064   0.197   3.894   9.898  0.1926 -0.2904 -0.3350
   70SLPC   H7X 6065   0.123   3.969   9.936  1.1803 -0.2920  1.7014
   70SLPC   H7Y 6066   0.143   3.799   9.876  0.7767 -0.7506  0.2138
   70SLPC   C38 6067   0.249   3.952   9.763  0.3683  0.4648  0.2157
   70SLPC   H8X 6068   0.343   3.905   9.725  0.4762  1.0565 -0.2494
   70SLPC   H8Y 6069   0.283   4.057   9.776 -0.7417  1.0735 -1.5356
   70SLPC   C39 6070   0.144   3.933   9.657 -0.2351 -0.5353 -0.4944
   70SLPC   H9X 6071   0.044   3.976   9.681  0.6048  0.5547  1.2522
   70SLPC   H9Y 6072   0.148   3.827   9.626  2.8668  0.0716 -2.6541
   70SLPC  C310 6073   0.185   4.006   9.530 -0.5294 -0.4320  0.1836
   70SLPC  H10X 6074   0.290   3.977   9.510  0.5792  1.0784  3.1902
   70SLPC  H10Y 6075   0.185   4.114   9.554 -1.1634 -0.4779  0.4060
   70SLPC  C311 6076   0.100   3.989   9.401 -0.6395 -0.0627 -0.0015
   70SLPC  H11X 6077  -0.002   4.030   9.420 -0.5237  0.6933 -0.9734
   70SLPC  H11Y 6078   0.088   3.879   9.387 -0.7787 -0.4286  2.4538
   70SLPC  C312 6079   0.156   4.048   9.273  0.1457 -0.4143 -0.0537
   70SLPC  H12X 6080   0.250   3.996   9.246  0.5526  0.5420 -0.5170
   70SLPC  H12Y 6081   0.192   4.150   9.298 -1.2548  0.3052 -0.8338
   70SLPC  C313 6082   0.060   4.059   9.162 -0.0279  0.0222  0.2465
   70SLPC  H13X 6083  -0.017   4.131   9.197 -0.6369 -0.9395  0.9348
   70SLPC  H13Y 6084   0.005   3.962   9.167  0.1734 -0.1934 -1.1849
   70SLPC  C314 6085   0.122   4.093   9.028 -0.1621  0.2529  0.4310
   70SLPC  H14X 6086   0.208   4.026   9.007 -1.9511 -1.6765 -1.0814
   70SLPC  H14Y 6087   0.166   4.195   9.035  0.0793  0.2517 -0.9461
   70SLPC  C315 6088   0.023   4.081   8.908  0.7420 -0.5404 -0.2862
   70SLPC  H15X 6089  -0.074   4.131   8.929  0.9095 -0.0910 -0.5720
   70SLPC  H15Y 6090  -0.013   3.976   8.898 -1.8602  0.2402  0.0234
   70SLPC  C316 6091   0.065   4.130   8.766 -0.0620  0.4962 -0.2809
   70SLPC  H16X 6092   0.161   4.074   8.758 -0.9049 -1.3002  1.1827
   70SLPC  H16Y 6093   0.079   4.240   8.771 -0.5505  0.6464 -1.9007
   70SLPC  C317 6094  -0.024   4.071   8.658 -0.4931 -0.3205  0.7804
   70SLPC  H17X 6095  -0.127   4.107   8.678 -1.2066 -0.9772 -1.4065
   70SLPC  H17Y 6096  -0.023   3.960   8.664 -0.0816 -0.3908 -0.2952
   70SLPC  C318 6097   0.025   4.114   8.515 -0.5936  0.3460 -0.7059
   70SLPC  H18X 6098   0.122   4.066   8.493 -0.1245  1.4886 -1.2197
   70SLPC  H18Y 6099   0.025   4.224   8.496  0.7602  0.3307 -0.8843
   70SLPC  H18Z 6100  -0.046   4.072   8.440  2.5373 -2.9542 -2.1300
   71SLPC     N 6101   4.297   2.757  10.998 -0.2761 -0.5995 -0.4897
   71SLPC   C13 6102   4.427   2.682  10.968  0.6133 -0.3763  0.0721
   71SLPC  H13A 6103   4.510   2.742  11.003  0.8099 -0.2443 -0.5983
   71SLPC  H13B 6104   4.421   2.583  11.010 -0.4727  0.0476  0.9455
   71SLPC  H13C 6105   4.434   2.684  10.860 -1.9256  0.9400 -0.1497
   71SLPC   C14 6106   4.333   2.906  11.004  0.6950 -0.5039 -0.5299
   71SLPC  H14A 6107   4.248   2.970  11.024  1.8938  0.5614  1.5209
   71SLPC  H14B 6108   4.403   2.921  11.085  0.6309  1.5731 -0.8080
   71SLPC  H14C 6109   4.384   2.941  10.916  1.9093 -0.8288  0.0292
   71SLPC   C15 6110   4.248   2.713  11.132  0.4610 -0.6822 -0.2752
   71SLPC  H15A 6111   4.229   2.607  11.124 -0.7220 -0.3799 -2.2024
   71SLPC  H15B 6112   4.309   2.733  11.218 -1.1287  0.6137  0.6215
   71SLPC  H15C 6113   4.148   2.750  11.152  1.3560  1.7594  0.1050
   71SLPC   C12 6114   4.184   2.725  10.893 -0.1358  0.3178  0.0460
   71SLPC  H12A 6115   4.213   2.781  10.805 -1.5102  2.9557  1.1711
   71SLPC  H12B 6116   4.087   2.764  10.918  0.2227  1.5371 -0.3770
   71SLPC   C11 6117   4.161   2.577  10.854 -0.5042  0.8491  0.9088
   71SLPC  H11A 6118   4.259   2.538  10.818 -1.1936 -0.6776  0.5897
   71SLPC  H11B 6119   4.085   2.580  10.773 -2.4656 -0.8122  2.5723
   71SLPC     P 6120   4.115   2.343  10.955 -0.1656 -0.0069 -0.4412
   71SLPC   O13 6121   4.254   2.297  10.982 -0.2633  0.0653  0.3130
   71SLPC   O14 6122   4.010   2.284  11.043 -0.0094 -0.3061  0.5629
   71SLPC   O12 6123   4.108   2.500  10.962 -0.1116  0.2335 -0.3293
   71SLPC   O11 6124   4.077   2.311  10.813 -0.2101 -0.0443  0.5222
   71SLPC    C1 6125   4.001   2.200  10.774 -0.0903  0.5615 -0.1331
   71SLPC    HA 6126   4.043   2.103  10.808 -1.1615 -0.2044 -0.9173
   71SLPC    HB 6127   3.901   2.211  10.822  0.6807  1.8522  1.2528
   71SLPC    C2 6128   3.982   2.193  10.616  0.4319 -0.1245 -0.1307
   71SLPC    HS 6129   3.905   2.116  10.596  0.9287 -0.6077 -0.1876
   71SLPC   O21 6130   4.112   2.165  10.560 -0.6091 -0.0847 -0.0085
   71SLPC   C21 6131   4.120   2.081  10.456 -0.1041 -0.6789  0.1234
   71SLPC   O22 6132   4.029   2.012  10.414 -0.1334 -0.0062 -0.6112
   71SLPC   C22 6133   4.252   2.103  10.401 -0.0387  0.4275  0.5849
   71SLPC   H2R 6134   4.328   2.113  10.481  0.9188  2.6100 -0.5185
   71SLPC   H2S 6135   4.277   2.013  10.339 -1.1793 -0.3311  1.1902
   71SLPC    C3 6136   3.933   2.327  10.562 -0.8819 -0.3452  0.1722
   71SLPC    HX 6137   4.009   2.401  10.598  0.9884 -2.2599  0.3309
   71SLPC    HY 6138   3.841   2.354  10.619  0.0960 -1.1041  2.2340
   71SLPC   O31 6139   3.925   2.336  10.425  0.1800  0.4882  0.4953
   71SLPC   C31 6140   3.824   2.268  10.369  0.4275 -0.7387  0.4641
   71SLPC   O32 6141   3.736   2.215  10.432 -0.4864 -0.5924  0.1051
   71SLPC   C32 6142   3.818   2.287  10.221 -0.4013  0.0618 -0.2038
   71SLPC   H2X 6143   3.883   2.209  10.177  0.3737  0.1141  0.8070
   71SLPC   H2Y 6144   3.854   2.386  10.186 -0.9683  0.6506  0.8327
   71SLPC   C23 6145   4.269   2.233  10.325  0.1965 -0.0706  0.5551
   71SLPC   H3R 6146   4.368   2.280  10.344 -0.1455 -0.2040  2.9813
   71SLPC   H3S 6147   4.198   2.308  10.365  2.0542  2.7501 -1.0523
   71SLPC   C24 6148   4.253   2.213  10.178 -0.2757 -0.2299 -0.0113
   71SLPC   H4R 6149   4.181   2.129  10.166  0.8423 -0.8856 -2.8349
   71SLPC   H4S 6150   4.347   2.194  10.121 -0.7515  2.2501 -1.7891
   71SLPC   C25 6151   4.191   2.334  10.114  0.4120 -0.0274  0.7021
   71SLPC   H5R 6152   4.255   2.422  10.094 -1.2296  0.6427 -2.0975
   71SLPC   H5S 6153   4.111   2.365  10.184 -0.9104  0.2874 -0.8893
   71SLPC   C26 6154   4.126   2.290   9.979 -1.0414 -0.3993 -0.0546
   71SLPC   H6R 6155   4.071   2.383   9.954 -0.0131  0.2483  0.0305
   71SLPC   H6S 6156   4.054   2.206   9.993  0.0401 -2.2112 -3.8322
   71SLPC   C27 6157   4.233   2.262   9.861 -0.2102  0.7229  0.5875
   71SLPC   H7R 6158   4.299   2.182   9.901 -1.9855 -0.9439  0.3329
   71SLPC   H7S 6159   4.297   2.351   9.842  2.8252 -1.2083  0.9133
   71SLPC   C28 6160   4.152   2.214   9.740 -0.0913  0.6225  0.7531
   71SLPC   H8R 6161   4.101   2.121   9.774  0.8289 -0.5706 -0.9467
   71SLPC   H8S 6162   4.212   2.187   9.651 -2.6387  0.7596 -1.0999
   71SLPC   C29 6163   4.039   2.307   9.704 -0.2224  0.0314  0.4354
   71SLPC   H9R 6164   3.944   2.292   9.756 -0.4717 -0.0592 -0.0369
   71SLPC  C210 6165   4.040   2.386   9.594 -0.6266 -0.1793  0.1424
   71SLPC  H10R 6166   3.958   2.459   9.587 -0.0515  0.6084  1.2494
   71SLPC  C211 6167   4.145   2.413   9.491  0.0045  0.7398  0.1705
   71SLPC  H11R 6168   4.240   2.415   9.548 -0.8761  0.5835  1.6750
   71SLPC  H11S 6169   4.130   2.519   9.460 -0.5104  0.5076 -0.4102
   71SLPC  C212 6170   4.126   2.300   9.384  0.5556 -0.2710  0.2463
   71SLPC  H12R 6171   4.073   2.214   9.426  2.6347 -0.6166  2.4064
   71SLPC  C213 6172   4.168   2.293   9.255  0.5235  0.2716  0.2154
   71SLPC  H13R 6173   4.151   2.196   9.206  1.1276 -0.2103  0.9351
   71SLPC  C214 6174   4.245   2.403   9.191 -1.2231 -0.1878  0.5945
   71SLPC  H14R 6175   4.347   2.370   9.161 -0.1122  3.1827  0.2569
   71SLPC  H14S 6176   4.271   2.479   9.269  1.0556 -1.0391  0.7431
   71SLPC  C215 6177   4.194   2.480   9.060 -0.1018 -0.2158 -0.0275
   71SLPC  H15R 6178   4.227   2.585   9.067 -0.6209 -0.0301 -0.2980
   71SLPC  H15S 6179   4.083   2.477   9.066 -0.3176 -1.6250 -2.8931
   71SLPC  C216 6180   4.232   2.418   8.924 -0.3394 -0.4075 -0.5382
   71SLPC  H16R 6181   4.168   2.327   8.918 -0.3193 -0.3545 -1.8962
   71SLPC  H16S 6182   4.334   2.376   8.932  0.0010  0.5382  0.2481
   71SLPC  C217 6183   4.200   2.498   8.792  0.0318  0.6261 -0.2558
   71SLPC  H17R 6184   4.089   2.501   8.792 -0.0582  0.4875  2.6567
   71SLPC  H17S 6185   4.231   2.431   8.709  1.1087  2.5197 -1.4592
   71SLPC  C218 6186   4.270   2.636   8.789 -0.1825 -0.3465 -0.0318
   71SLPC  H18R 6187   4.380   2.631   8.775  0.6463  2.4282  3.7053
   71SLPC  H18S 6188   4.246   2.687   8.885  2.0091 -0.4214  0.6166
   71SLPC  H18T 6189   4.226   2.707   8.715  0.3267  0.2677  0.2411
   71SLPC   C33 6190   3.682   2.264  10.147 -0.2928 -0.1045 -0.1335
   71SLPC   H3X 6191   3.605   2.338  10.179 -0.2419  0.1927 -0.6887
   71SLPC   H3Y 6192   3.648   2.164  10.184 -1.1275  0.5034  0.8151
   71SLPC   C34 6193   3.706   2.272   9.996 -0.2340 -0.4679 -0.1214
   71SLPC   H4X 6194   3.760   2.183   9.956 -0.0100  0.5211 -2.1388
   71SLPC   H4Y 6195   3.763   2.363   9.967 -0.8644  0.3704  1.1672
   71SLPC   C35 6196   3.571   2.273   9.921 -0.1706  0.3465  0.5709
   71SLPC   H5X 6197   3.530   2.375   9.935 -2.5112 -0.1593 -1.8634
   71SLPC   H5Y 6198   3.502   2.199   9.968 -0.8133 -0.9727 -2.2593
   71SLPC   C36 6199   3.572   2.248   9.765  0.0603 -0.3442  0.1615
   71SLPC   H6X 6200   3.612   2.146   9.749  1.1218 -0.3763  2.5442
   71SLPC   H6Y 6201   3.638   2.321   9.714  1.1934 -1.4512  0.0056
   71SLPC   C37 6202   3.428   2.254   9.706  0.3844 -0.9937  0.1400
   71SLPC   H7X 6203   3.377   2.352   9.720 -1.1065 -1.6686 -0.3450
   71SLPC   H7Y 6204   3.361   2.180   9.755 -0.2805  0.5798  1.6964
   71SLPC   C38 6205   3.434   2.224   9.560 -0.7289  0.3848  0.1201
   71SLPC   H8X 6206   3.493   2.132   9.544  0.1697  0.4058  2.8189
   71SLPC   H8Y 6207   3.497   2.305   9.517 -0.7902 -0.9796 -2.7390
   71SLPC   C39 6208   3.304   2.214   9.487 -0.0072 -0.1929  0.0345
   71SLPC   H9X 6209   3.238   2.300   9.509 -0.0960 -0.1343 -0.4512
   71SLPC   H9Y 6210   3.260   2.119   9.525  0.9326 -0.2260  1.1149
   71SLPC  C310 6211   3.305   2.212   9.336  0.3600  0.1761  0.1751
   71SLPC  H10X 6212   3.205   2.203   9.288  1.2019 -0.4873 -1.5449
   71SLPC  H10Y 6213   3.361   2.124   9.299  3.0000  1.7678  0.1498
   71SLPC  C311 6214   3.369   2.342   9.273  0.4488  0.0421  0.2536
   71SLPC  H11X 6215   3.465   2.372   9.319  1.0060  2.3644 -2.1793
   71SLPC  H11Y 6216   3.294   2.420   9.297 -0.1044 -0.1960 -0.6511
   71SLPC  C312 6217   3.392   2.320   9.123 -0.5065  0.4023 -0.0343
   71SLPC  H12X 6218   3.299   2.287   9.070 -0.1786 -1.2051  0.3419
   71SLPC  H12Y 6219   3.471   2.242   9.120  0.0524  0.9319  0.7802
   71SLPC  C313 6220   3.455   2.443   9.047 -0.3274 -0.0125 -0.2427
   71SLPC  H13X 6221   3.526   2.490   9.119 -1.1549  0.2940  0.3923
   71SLPC  H13Y 6222   3.383   2.527   9.037 -0.7845 -0.2467  0.9500
   71SLPC  C314 6223   3.508   2.412   8.911 -0.1819  0.3343  0.0118
   71SLPC  H14X 6224   3.559   2.314   8.919  2.0018  1.5053  1.9110
   71SLPC  H14Y 6225   3.594   2.478   8.886  1.1791 -0.7778  1.5112
   71SLPC  C315 6226   3.415   2.418   8.790  0.3635  0.8983  0.6625
   71SLPC  H15X 6227   3.364   2.516   8.780 -0.2532  0.4081 -1.6525
   71SLPC  H15Y 6228   3.339   2.340   8.807 -0.2729  1.6199  1.1823
   71SLPC  C316 6229   3.487   2.394   8.650 -0.0802 -0.2976 -0.0270
   71SLPC  H16X 6230   3.543   2.298   8.658 -0.4680 -0.7206 -1.8399
   71SLPC  H16Y 6231   3.562   2.475   8.637 -1.9743  1.2916 -1.6502
   71SLPC  C317 6232   3.393   2.372   8.532  0.5867 -0.0687 -0.3831
   71SLPC  H17X 6233   3.324   2.458   8.520  1.4488  0.7875  0.4977
   71SLPC  H17Y 6234   3.329   2.284   8.554  0.3205  0.4565  1.0508
   71SLPC  C318 6235   3.472   2.348   8.398  0.3049  0.4449  0.4898
   71SLPC  H18X 6236   3.537   2.258   8.404  0.0011  0.1824 -0.0750
   71SLPC  H18Y 6237   3.529   2.437   8.366 -0.1047  0.0322 -1.5003
   71SLPC  H18Z 6238   3.397   2.339   8.317  1.6607 -1.6829 -0.6405
   72SLPC     N 6239   5.513   1.726  10.913 -0.4634 -0.2405  0.4855
   72SLPC   C13 6240   5.592   1.845  10.868  0.1890 -0.6285 -0.1334
   72SLPC  H13A 6241   5.608   1.850  10.761 -1.8198  1.2402 -0.4224
   72SLPC  H13B 6242   5.538   1.937  10.887 -0.1949 -1.2002  1.7132
   72SLPC  H13C 6243   5.685   1.858  10.920  1.5892  0.0403 -2.6564
   72SLPC   C14 6244   5.381   1.736  10.861  0.1915  0.2145 -0.5397
   72SLPC  H14A 6245   5.349   1.837  10.843  0.7217  1.0981  2.8608
   72SLPC  H14B 6246   5.370   1.672  10.774 -1.3133  0.3871 -0.5094
   72SLPC  H14C 6247   5.319   1.677  10.927  0.1784  0.4884 -0.3055
   72SLPC   C15 6248   5.500   1.732  11.067 -0.1247 -0.5447 -0.3848
   72SLPC  H15A 6249   5.595   1.764  11.109 -0.5935  0.6632 -0.2031
   72SLPC  H15B 6250   5.425   1.804  11.096 -1.9610 -1.3350 -2.8905
   72SLPC  H15C 6251   5.467   1.638  11.110  1.0629  0.5547  3.3104
   72SLPC   C12 6252   5.592   1.601  10.877  0.0508 -0.2666 -0.0467
   72SLPC  H12A 6253   5.527   1.519  10.902  0.2931 -0.1521  1.0080
   72SLPC  H12B 6254   5.672   1.595  10.949  0.0507  0.1812 -0.0079
   72SLPC   C11 6255   5.651   1.596  10.726 -0.0059 -0.1588  0.8709
   72SLPC  H11A 6256   5.575   1.627  10.652  1.4020  0.0992 -0.5249
   72SLPC  H11B 6257   5.680   1.490  10.706 -1.0070 -0.5703  1.5330
   72SLPC     P 6258   5.894   1.660  10.787 -0.0615  0.5698 -0.0979
   72SLPC   O13 6259   5.903   1.772  10.881 -0.3939  0.1980 -0.1119
   72SLPC   O14 6260   5.909   1.524  10.842  0.2938 -0.2644 -0.1827
   72SLPC   O12 6261   5.762   1.682  10.701  0.2430  0.4869  0.6157
   72SLPC   O11 6262   5.996   1.677  10.667  0.1903  0.0395 -0.0600
   72SLPC    C1 6263   5.986   1.786  10.574  0.2074 -0.9428 -0.1679
   72SLPC    HA 6264   5.928   1.872  10.614 -1.1001 -0.7782 -2.2980
   72SLPC    HB 6265   6.085   1.833  10.553 -0.4816  0.7742  0.2863
   72SLPC    C2 6266   5.935   1.733  10.432  0.0030 -0.6202 -0.0198
   72SLPC    HS 6267   5.835   1.690  10.456 -0.0846  0.2169  1.2499
   72SLPC   O21 6268   6.034   1.649  10.383 -0.2717 -0.0130  0.6385
   72SLPC   C21 6269   5.991   1.547  10.316 -0.3087  0.3983  0.3720
   72SLPC   O22 6270   5.880   1.496  10.313 -0.3999  0.1404  0.3092
   72SLPC   C22 6271   6.115   1.506  10.237 -0.0185 -1.3578  0.1723
   72SLPC   H2R 6272   6.199   1.510  10.310  1.0634 -1.3275 -1.0352
   72SLPC   H2S 6273   6.098   1.399  10.210 -1.1699 -1.2610  0.4666
   72SLPC    C3 6274   5.905   1.847  10.323 -0.4608 -0.5300 -0.1584
   72SLPC    HX 6275   6.000   1.897  10.294 -0.9819  0.9309  0.5593
   72SLPC    HY 6276   5.851   1.926  10.379  1.3021 -0.0442  0.9368
   72SLPC   O31 6277   5.838   1.791  10.209 -0.1460  0.3199 -0.7073
   72SLPC   C31 6278   5.705   1.778  10.220  0.0880  0.3263  0.2899
   72SLPC   O32 6279   5.634   1.834  10.299 -0.1169 -0.5896  0.4948
   72SLPC   C32 6280   5.653   1.695  10.105 -0.5641  0.1055  0.2681
   72SLPC   H2X 6281   5.544   1.677  10.108 -0.9943  2.3498 -0.3362
   72SLPC   H2Y 6282   5.705   1.597  10.096  0.4027  0.7698 -2.0686
   72SLPC   C23 6283   6.148   1.588  10.113  0.2734 -0.7552  0.2014
   72SLPC   H3R 6284   6.247   1.590  10.064  0.6643 -1.1187  0.9538
   72SLPC   H3S 6285   6.124   1.696  10.128  0.0400 -0.7209 -0.3834
   72SLPC   C24 6286   6.044   1.550   9.999  0.7940  0.4140  0.3612
   72SLPC   H4R 6287   5.937   1.562  10.026  0.8205  0.0299  0.6419
   72SLPC   H4S 6288   6.055   1.445   9.965 -0.2023  0.7443 -1.0781
   72SLPC   C25 6289   6.064   1.623   9.873  0.4793 -0.1045  0.2733
   72SLPC   H5R 6290   6.173   1.632   9.851  0.7071 -3.0733 -0.1956
   72SLPC   H5S 6291   6.015   1.721   9.888 -3.2279 -1.7194 -0.0719
   72SLPC   C26 6292   5.997   1.541   9.749 -0.1324 -0.2862 -0.5335
   72SLPC   H6R 6293   5.887   1.557   9.757 -0.3891 -2.4512  1.5954
   72SLPC   H6S 6294   6.004   1.431   9.760  0.5363 -0.1661  0.3968
   72SLPC   C27 6295   6.054   1.593   9.628 -0.8483  0.0105 -0.2759
   72SLPC   H7R 6296   6.164   1.577   9.632 -0.8138  0.0102 -1.2030
   72SLPC   H7S 6297   6.055   1.704   9.632 -0.8268  0.1835 -3.1767
   72SLPC   C28 6298   5.994   1.537   9.499  0.5456 -0.2040  0.3163
   72SLPC   H8R 6299   5.888   1.567   9.497  0.4868 -0.4276 -0.5346
   72SLPC   H8S 6300   6.010   1.427   9.501  0.1850 -0.2662 -0.2140
   72SLPC   C29 6301   6.043   1.606   9.376 -0.3916 -0.5641 -0.2630
   72SLPC   H9R 6302   6.055   1.715   9.383  1.4372 -0.7174 -0.5561
   72SLPC  C210 6303   6.095   1.555   9.265  0.0808  0.2480 -0.3666
   72SLPC  H10R 6304   6.128   1.631   9.192 -1.8647  1.2790 -0.2451
   72SLPC  C211 6305   6.117   1.413   9.223  0.6076  0.0090  0.1116
   72SLPC  H11R 6306   6.032   1.372   9.166  0.8438 -0.3552  0.0154
   72SLPC  H11S 6307   6.140   1.356   9.316 -2.3495 -0.5406  0.6085
   72SLPC  C212 6308   6.232   1.408   9.130  0.4144  0.4410  0.0134
   72SLPC  H12R 6309   6.320   1.367   9.183 -0.7114  0.7569  2.2358
   72SLPC  C213 6310   6.242   1.436   8.996 -0.2713  0.2293 -0.3763
   72SLPC  H13R 6311   6.341   1.433   8.946  0.6241  0.4609  1.3236
   72SLPC  C214 6312   6.136   1.491   8.904  0.4530 -0.0247 -0.1370
   72SLPC  H14R 6313   6.175   1.591   8.876 -0.6654  0.2438 -0.8156
   72SLPC  H14S 6314   6.040   1.519   8.953  0.9445 -0.2055  0.9558
   72SLPC  C215 6315   6.103   1.403   8.782 -0.0633  0.4559 -0.3817
   72SLPC  H15R 6316   6.024   1.460   8.729 -1.0597 -1.9133 -1.5438
   72SLPC  H15S 6317   6.070   1.299   8.800  2.1406 -0.3212 -0.4972
   72SLPC  C216 6318   6.220   1.404   8.682 -0.3184  0.6349 -0.6570
   72SLPC  H16R 6319   6.296   1.335   8.723  0.8440  1.6262 -1.0563
   72SLPC  H16S 6320   6.264   1.506   8.670 -1.5811  1.1073 -1.5446
   72SLPC  C217 6321   6.194   1.353   8.540  0.4456 -0.0750  0.2489
   72SLPC  H17R 6322   6.107   1.283   8.536  0.1796  0.3132 -1.4076
   72SLPC  H17S 6323   6.280   1.290   8.508  0.8665 -0.0297  1.2432
   72SLPC  C218 6324   6.165   1.472   8.440  0.4994  0.0518 -0.0766
   72SLPC  H18R 6325   6.235   1.558   8.435  0.2193  0.2752 -0.2295
   72SLPC  H18S 6326   6.065   1.515   8.462  1.3787  1.7919  0.7176
   72SLPC  H18T 6327   6.164   1.439   8.334  1.8660 -0.6382  0.1041
   72SLPC   C33 6328   5.691   1.772   9.974  0.5928  0.1250 -0.1769
   72SLPC   H3X 6329   5.799   1.754   9.959  0.5563  0.2804 -0.6312
   72SLPC   H3Y 6330   5.668   1.880   9.967  2.0807  0.6320  1.7053
   72SLPC   C34 6331   5.608   1.709   9.859  0.3705 -0.0222  0.4747
   72SLPC   H4X 6332   5.498   1.717   9.872  0.2327 -1.8943  0.7354
   72SLPC   H4Y 6333   5.631   1.601   9.852 -2.6437 -0.7101 -0.1178
   72SLPC   C35 6334   5.625   1.771   9.720 -0.4732 -0.4030 -0.2829
   72SLPC   H5X 6335   5.735   1.759   9.704  0.0049  0.6296  1.8370
   72SLPC   H5Y 6336   5.598   1.877   9.735  1.5743 -0.0270  1.2649
   72SLPC   C36 6337   5.560   1.697   9.600 -0.0502 -0.6577  0.2369
   72SLPC   H6X 6338   5.451   1.715   9.611 -0.3073 -0.0837 -2.4600
   72SLPC   H6Y 6339   5.582   1.591   9.623 -2.2025 -1.0857  0.5235
   72SLPC   C37 6340   5.613   1.726   9.453 -0.2709  0.7736  0.6905
   72SLPC   H7X 6341   5.603   1.627   9.405 -0.5203  0.5087  1.2927
   72SLPC   H7Y 6342   5.719   1.759   9.452 -0.3139  1.1063 -2.0109
   72SLPC   C38 6343   5.516   1.823   9.381 -0.2397  0.7130 -0.1453
   72SLPC   H8X 6344   5.547   1.926   9.410 -2.3991  1.6283 -0.8682
   72SLPC   H8Y 6345   5.411   1.805   9.414  0.0586  0.7124  0.8307
   72SLPC   C39 6346   5.526   1.805   9.230  0.7009 -0.3800 -0.2058
   72SLPC   H9X 6347   5.482   1.704   9.212 -0.6889 -0.1555  1.6012
   72SLPC   H9Y 6348   5.633   1.788   9.207  1.2321  0.6980  1.3441
   72SLPC  C310 6349   5.487   1.919   9.141  0.3393  0.8652 -0.1638
   72SLPC  H10X 6350   5.566   1.996   9.152  1.9121 -0.5959 -0.7477
   72SLPC  H10Y 6351   5.396   1.969   9.180  1.4594  3.2175 -0.4013
   72SLPC  C311 6352   5.453   1.883   8.994 -0.2510 -0.4259  0.1418
   72SLPC  H11X 6353   5.458   1.980   8.939 -0.7663  0.1172  1.0347
   72SLPC  H11Y 6354   5.350   1.842   8.994  0.2126 -1.6413  0.4788
   72SLPC  C312 6355   5.559   1.786   8.939 -0.4314  0.5026  0.7023
   72SLPC  H12X 6356   5.537   1.766   8.832 -0.9410  1.1542  0.6766
   72SLPC  H12Y 6357   5.566   1.691   8.996 -0.4166  1.0174  1.5819
   72SLPC  C313 6358   5.697   1.849   8.932 -0.1880 -0.0096  0.2484
   72SLPC  H13X 6359   5.753   1.831   9.026 -0.9370 -0.6436  0.5861
   72SLPC  H13Y 6360   5.690   1.958   8.912 -0.7858 -0.5052 -2.7174
   72SLPC  C314 6361   5.787   1.793   8.814  0.6349 -0.5334  0.0276
   72SLPC  H14X 6362   5.723   1.816   8.726  0.5491 -0.5239  0.0916
   72SLPC  H14Y 6363   5.780   1.683   8.828  0.1827 -0.4111  0.8245
   72SLPC  C315 6364   5.927   1.853   8.811 -0.2664 -0.0884 -0.5107
   72SLPC  H15X 6365   5.984   1.838   8.905 -1.9056  0.7204  0.6573
   72SLPC  H15Y 6366   5.914   1.962   8.792 -1.2486 -0.2066 -0.5443
   72SLPC  C316 6367   6.005   1.793   8.698 -0.0117  0.3360 -0.2702
   72SLPC  H16X 6368   5.966   1.845   8.609 -1.6020  1.5871  1.0903
   72SLPC  H16Y 6369   5.989   1.685   8.679 -0.9110  0.4636 -0.2494
   72SLPC  C317 6370   6.153   1.832   8.703  0.2139 -0.3285 -0.1714
   72SLPC  H17X 6371   6.193   1.759   8.629 -3.0145 -0.7779 -1.6509
   72SLPC  H17Y 6372   6.191   1.810   8.805  1.1137  0.5573 -0.3070
   72SLPC  C318 6373   6.196   1.972   8.635 -0.0269 -0.1969  0.5891
   72SLPC  H18X 6374   6.151   1.996   8.536 -1.2391  0.3020  1.2412
   72SLPC  H18Y 6375   6.307   1.980   8.640  0.0792 -1.1735  0.0470
   72SLPC  H18Z 6376   6.151   2.047   8.704  0.0743 -0.4473  0.9322
   73SLPC     N 6377   0.351   0.925  11.240  0.5188  0.1930 -0.1645
   73SLPC   C13 6378   0.412   1.062  11.234  0.1209 -1.2518  0.0732
   73SLPC  H13A 6379   0.517   1.048  11.255 -0.3834 -1.5320  2.7783
   73SLPC  H13B 6380   0.408   1.110  11.137  1.2673 -2.1686 -0.4416
   73SLPC  H13C 6381   0.382   1.128  11.314  2.3030  0.1784 -0.1712
   73SLPC   C14 6382   0.202   0.935  11.221 -0.3030 -0.9446 -1.0169
   73SLPC  H14A 6383   0.156   0.838  11.232  0.6625 -1.1854  1.6531
   73SLPC  H14B 6384   0.168   1.005  11.296  1.3598 -0.9381 -0.2246
   73SLPC  H14C 6385   0.181   0.967  11.120 -2.0710 -0.9189 -0.6785
   73SLPC   C15 6386   0.367   0.869  11.381 -0.6940  0.4539  0.2669
   73SLPC  H15A 6387   0.306   0.916  11.457  1.6332  3.9125  0.2050
   73SLPC  H15B 6388   0.331   0.767  11.382  0.7794 -0.0952 -0.3956
   73SLPC  H15C 6389   0.469   0.875  11.415 -1.7062  3.1689  3.3246
   73SLPC   C12 6390   0.410   0.832  11.137 -0.1425  0.5963  0.1953
   73SLPC  H12A 6391   0.361   0.736  11.143 -1.6486  1.3427  0.2824
   73SLPC  H12B 6392   0.514   0.830  11.165 -0.2737  1.6286  0.8112
   73SLPC   C11 6393   0.394   0.875  10.984 -0.9814 -0.2220 -0.3138
   73SLPC  H11A 6394   0.289   0.907  10.969 -0.8315  0.6683  0.4548
   73SLPC  H11B 6395   0.422   0.785  10.925  1.7411  0.4196 -0.1579
   73SLPC     P 6396   0.633   0.948  10.900  0.1355 -0.1243 -0.4223
   73SLPC   O13 6397   0.719   1.065  10.930  0.1364 -0.8911 -0.9294
   73SLPC   O14 6398   0.679   0.822  10.968  0.1935  0.3882 -0.1491
   73SLPC   O12 6399   0.480   0.987  10.950  0.1760 -0.0171 -0.0371
   73SLPC   O11 6400   0.627   0.924  10.743 -0.1317 -0.0694 -0.2651
   73SLPC    C1 6401   0.520   0.992  10.670  0.0535  0.6698  0.0847
   73SLPC    HA 6402   0.425   1.004  10.726  0.7344 -0.4092  1.5068
   73SLPC    HB 6403   0.554   1.085  10.617  3.7802 -1.1135 -1.0348
   73SLPC    C2 6404   0.464   0.894  10.554  0.6211 -0.0877  0.6602
   73SLPC    HS 6405   0.437   0.794  10.594  0.2658 -0.5532 -0.7000
   73SLPC   O21 6406   0.561   0.885  10.441  0.7014  0.0500  0.2868
   73SLPC   C21 6407   0.621   0.766  10.437  0.9934  0.2060  0.1899
   73SLPC   O22 6408   0.618   0.680  10.524  0.0918  0.8058  0.3403
   73SLPC   C22 6409   0.690   0.750  10.299 -0.2983 -0.6156  0.1636
   73SLPC   H2R 6410   0.716   0.854  10.270 -0.9013 -0.6167 -0.4091
   73SLPC   H2S 6411   0.781   0.691  10.322 -0.0423  0.4815  2.1777
   73SLPC    C3 6412   0.334   0.946  10.485 -0.5570 -0.2876 -0.0175
   73SLPC    HX 6413   0.339   1.056  10.472  3.1573 -0.4408 -1.1009
   73SLPC    HY 6414   0.257   0.920  10.561  0.1829 -2.9202 -0.0385
   73SLPC   O31 6415   0.303   0.880  10.358  0.0812 -0.2119  0.1700
   73SLPC   C31 6416   0.236   0.768  10.367 -0.1554  0.2645 -0.3819
   73SLPC   O32 6417   0.209   0.718  10.477  0.1598 -0.2217  0.3065
   73SLPC   C32 6418   0.187   0.727  10.226  0.9866  0.3354  0.0084
   73SLPC   H2X 6419   0.136   0.629  10.223 -2.1775  1.6706  2.8899
   73SLPC   H2Y 6420   0.271   0.735  10.154  0.4543  0.5721 -0.6070
   73SLPC   C23 6421   0.599   0.705  10.181 -0.3498 -0.3311  0.7409
   73SLPC   H3R 6422   0.508   0.768  10.181  0.7545  1.3874 -1.2815
   73SLPC   H3S 6423   0.570   0.601  10.208  0.1109 -0.8810 -0.7785
   73SLPC   C24 6424   0.664   0.698  10.047 -0.1054 -0.3240  0.0491
   73SLPC   H4R 6425   0.747   0.624  10.044  0.6492  0.5187 -0.2625
   73SLPC   H4S 6426   0.709   0.795  10.015  0.0310 -0.2483  0.4711
   73SLPC   C25 6427   0.570   0.643   9.936  0.4171 -1.0246 -0.0555
   73SLPC   H5R 6428   0.502   0.567   9.979 -0.3745 -0.2792  0.0383
   73SLPC   H5S 6429   0.625   0.588   9.857  0.3317 -0.2154 -0.6840
   73SLPC   C26 6430   0.499   0.755   9.853  0.1550 -0.1269 -0.4669
   73SLPC   H6R 6431   0.581   0.808   9.800  0.3849  1.0925  1.0436
   73SLPC   H6S 6432   0.438   0.821   9.918 -1.4977  0.1049 -2.1478
   73SLPC   C27 6433   0.394   0.693   9.759  0.1189  0.1465  0.6064
   73SLPC   H7R 6434   0.298   0.665   9.808  1.1823 -1.1230  2.0346
   73SLPC   H7S 6435   0.439   0.601   9.717  1.4932  0.7448  0.7106
   73SLPC   C28 6436   0.366   0.783   9.633 -0.1100 -0.1491 -0.5820
   73SLPC   H8R 6437   0.468   0.797   9.591  0.3843 -0.5356  0.4496
   73SLPC   H8S 6438   0.340   0.887   9.662  1.1048 -0.0087  0.0606
   73SLPC   C29 6439   0.265   0.735   9.532 -0.9248  1.0150 -0.3594
   73SLPC   H9R 6440   0.169   0.697   9.571 -1.1922 -0.2905 -2.2002
   73SLPC  C210 6441   0.272   0.747   9.398 -0.5855  0.1553  0.1162
   73SLPC  H10R 6442   0.194   0.696   9.339 -3.1793  2.4620  1.3102
   73SLPC  C211 6443   0.384   0.800   9.312  0.0222  0.5482  0.2072
   73SLPC  H11R 6444   0.473   0.829   9.372  1.3845 -1.2229 -0.8445
   73SLPC  H11S 6445   0.348   0.880   9.245 -1.5043 -1.6764 -1.8124
   73SLPC  C212 6446   0.441   0.689   9.232  0.5878  1.2553 -0.5481
   73SLPC  H12R 6447   0.480   0.603   9.288 -3.2078  0.0530  0.5388
   73SLPC  C213 6448   0.446   0.680   9.093  0.2416  0.5418 -0.5913
   73SLPC  H13R 6449   0.487   0.585   9.054  1.6516  0.7369  0.3374
   73SLPC  C214 6450   0.396   0.770   8.985 -0.1705  0.1697  0.6862
   73SLPC  H14R 6451   0.485   0.813   8.936  0.1164 -0.4568  0.6453
   73SLPC  H14S 6452   0.342   0.861   9.020  0.3273  1.3819 -1.5121
   73SLPC  C215 6453   0.326   0.711   8.865  0.5707  0.5667  0.1211
   73SLPC  H15R 6454   0.330   0.600   8.861  0.6081  0.6172 -2.0824
   73SLPC  H15S 6455   0.371   0.729   8.766 -0.7079  0.0312 -0.5781
   73SLPC  C216 6456   0.165   0.748   8.849 -0.0753  0.2610 -0.5112
   73SLPC  H16R 6457   0.155   0.857   8.836 -1.1767  0.2453  0.0915
   73SLPC  H16S 6458   0.130   0.726   8.952  0.5126  2.5261  0.2201
   73SLPC  C217 6459   0.086   0.678   8.730 -0.0926  0.2383  0.4483
   73SLPC  H17R 6460   0.116   0.729   8.636 -1.0086 -0.9779 -0.5181
   73SLPC  H17S 6461  -0.021   0.702   8.752 -0.1733  0.3083 -0.0229
   73SLPC  C218 6462   0.106   0.531   8.705 -0.5823  0.1558  0.2406
   73SLPC  H18R 6463   0.197   0.520   8.642 -0.5249  0.3412  0.2912
   73SLPC  H18S 6464   0.015   0.485   8.660 -0.8387  0.4914  0.4114
   73SLPC  H18T 6465   0.111   0.473   8.800  0.4433 -1.9003 -0.9777
   73SLPC   C33 6466   0.062   0.816  10.191  0.0066  0.2063  0.6093
   73SLPC   H3X 6467   0.003   0.836  10.282 -1.9776 -0.5839 -0.4556
   73SLPC   H3Y 6468   0.000   0.772  10.110  0.2715  0.0113  0.5093
   73SLPC   C34 6469   0.107   0.956  10.128  0.6400 -0.4838 -1.0112
   73SLPC   H4X 6470   0.165   0.939  10.035 -1.9845  1.4263 -3.1711
   73SLPC   H4Y 6471   0.176   1.007  10.197 -1.0510  1.0180 -0.3466
   73SLPC   C35 6472  -0.011   1.053  10.101 -1.0307  0.1385  0.4910
   73SLPC   H5X 6473   0.018   1.160  10.088  1.5779 -0.5682 -0.1065
   73SLPC   H5Y 6474  -0.065   1.042  10.197  0.8674 -3.6840  1.3378
   73SLPC   C36 6475  -0.100   1.015   9.979 -0.2819 -0.3088 -0.6935
   73SLPC   H6X 6476  -0.180   1.092   9.973  1.1579  1.1882 -2.1433
   73SLPC   H6Y 6477  -0.139   0.912   9.993 -0.5419  0.0961  2.1590
   73SLPC   C37 6478  -0.018   1.012   9.846 -0.3511  0.4552  0.7162
   73SLPC   H7X 6479   0.044   0.921   9.833 -0.4583  0.6964 -1.9104
   73SLPC   H7Y 6480   0.056   1.094   9.849 -0.4996  0.5955  0.4641
   73SLPC   C38 6481  -0.102   1.024   9.721 -0.1426 -0.9290 -0.1870
   73SLPC   H8X 6482  -0.149   1.124   9.734  1.5406 -0.2488  1.1283
   73SLPC   H8Y 6483  -0.184   0.950   9.713 -1.6818  0.3342  2.3607
   73SLPC   C39 6484  -0.014   1.040   9.587 -0.1279  0.2099 -0.4138
   73SLPC   H9X 6485   0.060   0.957   9.586  0.1372  0.4499 -0.5180
   73SLPC   H9Y 6486   0.050   1.129   9.575 -0.0716  0.2457  0.1331
   73SLPC  C310 6487  -0.096   1.027   9.453 -0.2721 -0.5311  0.3484
   73SLPC  H10X 6488  -0.163   1.115   9.462 -1.1385 -1.1719  0.3592
   73SLPC  H10Y 6489  -0.165   0.940   9.455 -0.6109 -0.2856 -0.3150
   73SLPC  C311 6490   0.004   1.015   9.332 -0.4529 -0.4484  0.6341
   73SLPC  H11X 6491   0.057   0.921   9.359 -0.7170 -0.6234  0.5356
   73SLPC  H11Y 6492   0.080   1.095   9.348 -0.2190 -0.6518  0.5477
   73SLPC  C312 6493  -0.077   1.016   9.207  0.4095 -0.3885  1.0398
   73SLPC  H12X 6494  -0.148   1.101   9.212  1.4296  0.4931  0.8084
   73SLPC  H12Y 6495  -0.136   0.923   9.195 -0.4091  0.3441 -1.1557
   73SLPC  C313 6496   0.013   1.043   9.086 -0.2841  0.2542 -0.4410
   73SLPC  H13X 6497   0.105   0.980   9.090  0.0743  0.8264  1.2192
   73SLPC  H13Y 6498   0.045   1.149   9.091 -0.4350  0.2992 -0.4353
   73SLPC  C314 6499  -0.071   1.008   8.957  0.2491 -0.8183  0.8505
   73SLPC  H14X 6500  -0.118   0.908   8.962  1.6720 -1.7254 -1.9723
   73SLPC  H14Y 6501   0.001   0.998   8.873 -0.7388 -1.6243  0.0856
   73SLPC  C315 6502  -0.172   1.115   8.919 -0.0529 -0.2002  0.6375
   73SLPC  H15X 6503  -0.131   1.218   8.912 -0.1335 -0.2015  0.0676
   73SLPC  H15Y 6504  -0.245   1.114   9.002 -0.2621 -1.9093  0.4796
   73SLPC  C316 6505  -0.241   1.084   8.788  0.1933 -0.1847  0.9138
   73SLPC  H16X 6506  -0.326   1.152   8.767 -0.1695 -0.7277  0.6098
   73SLPC  H16Y 6507  -0.272   0.979   8.805 -1.9810  0.0421 -1.1287
   73SLPC  C317 6508  -0.152   1.083   8.666 -0.7575  0.2493 -0.2566
   73SLPC  H17X 6509  -0.213   1.046   8.581 -1.4137  1.3774 -0.3036
   73SLPC  H17Y 6510  -0.064   1.017   8.680  0.0568  0.9540 -1.7450
   73SLPC  C318 6511  -0.105   1.223   8.625  0.0489 -0.1231 -0.1701
   73SLPC  H18X 6512  -0.192   1.286   8.596  0.8650  0.4153 -1.5510
   73SLPC  H18Y 6513  -0.037   1.217   8.537  1.7324 -0.1402  1.0816
   73SLPC  H18Z 6514  -0.045   1.273   8.704  1.1655  0.9611 -1.6460
   74SLPC     N 6515   1.065   0.751  10.830  0.4216  0.4099 -0.4590
   74SLPC   C13 6516   0.996   0.650  10.913 -0.2547  0.6926 -0.0820
   74SLPC  H13A 6517   0.975   0.694  11.009 -0.1944  1.2365 -0.3156
   74SLPC  H13B 6518   0.897   0.629  10.877 -2.2045  5.5726  1.6541
   74SLPC  H13C 6519   1.052   0.558  10.902  1.9267  1.7849  1.2258
   74SLPC   C14 6520   1.215   0.740  10.849  0.2751 -0.0632 -0.1356
   74SLPC  H14A 6521   1.245   0.724  10.951 -0.7254 -2.8331 -0.1803
   74SLPC  H14B 6522   1.246   0.657  10.786 -0.2048  1.2860 -2.2646
   74SLPC  H14C 6523   1.268   0.830  10.822  0.2068  0.0716  0.1850
   74SLPC   C15 6524   1.010   0.884  10.855 -0.6060  0.4133 -0.6962
   74SLPC  H15A 6525   1.054   0.956  10.787  2.1255 -1.7567 -1.3804
   74SLPC  H15B 6526   0.903   0.897  10.857 -0.7442 -0.6441  1.6179
   74SLPC  H15C 6527   1.044   0.896  10.957  2.7476 -1.2049 -1.4870
   74SLPC   C12 6528   1.046   0.734  10.681  0.0379  0.7586  0.1201
   74SLPC  H12A 6529   1.106   0.808  10.632 -0.5509 -0.3528 -2.4378
   74SLPC  H12B 6530   0.947   0.756  10.646  0.3094  0.5317 -0.7968
   74SLPC   C11 6531   1.072   0.591  10.621 -0.9640  0.8266  0.1365
   74SLPC  H11A 6532   1.038   0.580  10.516  1.4467 -1.2761 -0.4930
   74SLPC  H11B 6533   1.003   0.528  10.681 -0.9972  1.3805  0.6980
   74SLPC     P 6534   1.313   0.582  10.539  0.0131 -0.1280  0.2583
   74SLPC   O13 6535   1.339   0.725  10.558  0.1271  0.1974 -0.0576
   74SLPC   O14 6536   1.424   0.495  10.578 -0.8618  0.4147  0.2720
   74SLPC   O12 6537   1.203   0.537  10.643  0.3221 -0.5628  0.3151
   74SLPC   O11 6538   1.262   0.564  10.391  0.0755 -0.2994 -0.2187
   74SLPC    C1 6539   1.340   0.487  10.297 -0.0336  0.4363 -0.7066
   74SLPC    HA 6540   1.355   0.386  10.341 -2.1614 -0.9209 -2.8461
   74SLPC    HB 6541   1.287   0.476  10.200  0.9779  2.7208 -1.5743
   74SLPC    C2 6542   1.482   0.542  10.276  0.1683 -0.4742  0.1446
   74SLPC    HS 6543   1.534   0.528  10.373 -0.0160  1.8802  0.6421
   74SLPC   O21 6544   1.463   0.682  10.240  0.3278  0.0967 -0.2435
   74SLPC   C21 6545   1.539   0.772  10.299  0.8904 -0.4784  0.4236
   74SLPC   O22 6546   1.632   0.747  10.373  0.2928 -0.3629  0.1979
   74SLPC   C22 6547   1.486   0.906  10.251  0.1387  0.2988 -0.4539
   74SLPC   H2R 6548   1.375   0.907  10.253 -0.0471  4.9590 -1.2227
   74SLPC   H2S 6549   1.516   0.999  10.304 -0.0718  0.1676 -0.1045
   74SLPC    C3 6550   1.565   0.471  10.166 -0.5778  0.6713 -0.1075
   74SLPC    HX 6551   1.574   0.368  10.208  0.4299  0.6645 -0.3226
   74SLPC    HY 6552   1.661   0.525  10.162 -0.3489  0.1863 -2.8384
   74SLPC   O31 6553   1.499   0.471  10.039  0.0190 -0.0836  0.5820
   74SLPC   C31 6554   1.559   0.515   9.935  0.1663  0.5414 -0.6553
   74SLPC   O32 6555   1.675   0.544   9.931 -0.0765  0.1965  0.4136
   74SLPC   C32 6556   1.471   0.509   9.809  0.5116 -0.7984  0.0614
   74SLPC   H2X 6557   1.403   0.598   9.809 -1.2083 -1.9745 -2.3829
   74SLPC   H2Y 6558   1.415   0.413   9.816 -0.6750 -0.2083 -0.9183
   74SLPC   C23 6559   1.544   0.941  10.116  0.5280  0.8616 -0.1916
   74SLPC   H3R 6560   1.481   1.020  10.069 -1.8926 -1.9205 -1.9522
   74SLPC   H3S 6561   1.537   0.853  10.048  0.2577  0.5485  0.2419
   74SLPC   C24 6562   1.690   0.988  10.115 -0.0019 -0.0624 -0.1078
   74SLPC   H4R 6563   1.765   0.929  10.169  0.9110  1.1343 -0.0263
   74SLPC   H4S 6564   1.689   1.083  10.173 -0.4846 -0.3009  0.2790
   74SLPC   C25 6565   1.757   1.016   9.975  0.4494 -0.3237  0.4742
   74SLPC   H5R 6566   1.786   0.921   9.926  3.6291  0.4886  0.6096
   74SLPC   H5S 6567   1.856   1.065   9.970 -0.9794  2.7809 -0.0268
   74SLPC   C26 6568   1.660   1.071   9.870 -0.4143  0.6574  0.5254
   74SLPC   H6R 6569   1.630   1.176   9.891 -0.2406  0.6842  0.6362
   74SLPC   H6S 6570   1.569   1.009   9.856 -0.2102  0.7860 -1.8134
   74SLPC   C27 6571   1.742   1.075   9.733  0.2694 -0.0198  0.3669
   74SLPC   H7R 6572   1.788   0.977   9.706  0.5531 -0.5224  2.5020
   74SLPC   H7S 6573   1.819   1.155   9.741  0.9815 -0.5632 -0.7840
   74SLPC   C28 6574   1.654   1.122   9.615  0.8306  0.6088  0.6852
   74SLPC   H8R 6575   1.597   1.213   9.645  1.1109  1.3904 -1.0071
   74SLPC   H8S 6576   1.569   1.052   9.600  0.1846  1.7810 -1.7786
   74SLPC   C29 6577   1.728   1.133   9.485 -0.1937 -0.0805  0.1606
   74SLPC   H9R 6578   1.778   1.228   9.462 -1.1191  0.0406 -1.5314
   74SLPC  C210 6579   1.757   1.027   9.403  0.6288 -0.2273  0.6034
   74SLPC  H10R 6580   1.822   1.044   9.315  2.1156 -3.0340  1.0454
   74SLPC  C211 6581   1.724   0.879   9.424 -0.3404  0.4858  0.3871
   74SLPC  H11R 6582   1.680   0.858   9.524 -0.3724  1.0193  0.4905
   74SLPC  H11S 6583   1.813   0.814   9.422  0.3335  1.3915  0.2561
   74SLPC  C212 6584   1.620   0.832   9.328 -0.3888  0.4958 -0.0312
   74SLPC  H12R 6585   1.522   0.806   9.371 -0.4846  0.2399 -0.3918
   74SLPC  C213 6586   1.636   0.818   9.191 -0.1479 -0.4406  0.0374
   74SLPC  H13R 6587   1.550   0.766   9.147  0.0221 -1.2878  0.6651
   74SLPC  C214 6588   1.756   0.849   9.107 -0.0991  0.1170 -0.2731
   74SLPC  H14R 6589   1.823   0.920   9.161  0.1136 -0.5155  0.3050
   74SLPC  H14S 6590   1.712   0.895   9.016 -2.4690 -0.9910  0.2321
   74SLPC  C215 6591   1.837   0.729   9.050 -0.0682 -0.1625  0.1021
   74SLPC  H15R 6592   1.925   0.761   8.989 -0.5042 -0.1121 -0.5070
   74SLPC  H15S 6593   1.764   0.677   8.985 -0.7539 -1.0324  1.5308
   74SLPC  C216 6594   1.881   0.635   9.163 -0.1388 -0.1025  0.1440
   74SLPC  H16R 6595   1.789   0.579   9.189 -2.1236  2.2327 -1.3630
   74SLPC  H16S 6596   1.916   0.695   9.249  1.6452 -2.4761  1.1937
   74SLPC  C217 6597   1.996   0.540   9.119 -1.0430 -0.0541 -0.4146
   74SLPC  H17R 6598   2.094   0.592   9.114 -1.7150  2.0601  3.7853
   74SLPC  H17S 6599   1.968   0.508   9.016  0.0543  0.1553 -0.7891
   74SLPC  C218 6600   2.002   0.414   9.202 -0.8128  0.6226  0.3424
   74SLPC  H18R 6601   2.106   0.379   9.223 -0.8331  0.3409 -0.0215
   74SLPC  H18S 6602   1.952   0.330   9.150 -0.2964  0.7558 -0.3864
   74SLPC  H18T 6603   1.955   0.439   9.300 -0.3812  3.3208 -0.0751
   74SLPC   C33 6604   1.553   0.514   9.677  0.0681  0.3378  0.2276
   74SLPC   H3X 6605   1.626   0.431   9.674 -1.5614 -1.1918  0.9906
   74SLPC   H3Y 6606   1.605   0.612   9.674  0.0543  0.3627  0.7981
   74SLPC   C34 6607   1.460   0.501   9.556  0.1141 -0.0551 -0.3423
   74SLPC   H4X 6608   1.402   0.594   9.544  0.8798  0.1956 -2.5123
   74SLPC   H4Y 6609   1.386   0.419   9.566 -0.9006  0.6506 -1.7225
   74SLPC   C35 6610   1.550   0.469   9.436 -0.0654  0.0934  0.4734
   74SLPC   H5X 6611   1.597   0.369   9.448 -1.5661 -1.1539 -2.7628
   74SLPC   H5Y 6612   1.629   0.547   9.426  0.7767 -0.7925  0.0877
   74SLPC   C36 6613   1.467   0.456   9.307  0.2051  0.1759 -1.1136
   74SLPC   H6X 6614   1.535   0.428   9.224  1.6945 -1.1606  0.4832
   74SLPC   H6Y 6615   1.415   0.552   9.284 -0.1665  0.4288  0.5964
   74SLPC   C37 6616   1.367   0.336   9.296 -0.0852 -0.2949 -0.1151
   74SLPC   H7X 6617   1.296   0.339   9.382  0.3304 -0.2473  0.2311
   74SLPC   H7Y 6618   1.421   0.239   9.292  0.1560 -0.1576 -0.2566
   74SLPC   C38 6619   1.264   0.346   9.178 -0.2227 -0.4166 -0.5789
   74SLPC   H8X 6620   1.329   0.351   9.088  0.6217  1.6156  0.0844
   74SLPC   H8Y 6621   1.210   0.443   9.190 -0.0429 -0.4292  0.4051
   74SLPC   C39 6622   1.154   0.239   9.168 -0.2259  0.1677 -0.1394
   74SLPC   H9X 6623   1.071   0.284   9.108 -2.2130 -1.6355  1.1358
   74SLPC   H9Y 6624   1.116   0.214   9.269 -0.4905  0.2989 -0.2049
   74SLPC  C310 6625   1.195   0.109   9.102 -0.4094 -0.0465 -0.1113
   74SLPC  H10X 6626   1.293   0.075   9.142 -0.5142  1.4188  1.4938
   74SLPC  H10Y 6627   1.195   0.133   8.994 -0.8646  0.1399 -0.0708
   74SLPC  C311 6628   1.090  -0.008   9.119 -0.3223 -0.1555 -0.4181
   74SLPC  H11X 6629   0.988   0.025   9.088  0.6471  5.7834  1.4893
   74SLPC  H11Y 6630   1.089  -0.030   9.228 -0.9962 -1.4893 -0.6662
   74SLPC  C312 6631   1.139  -0.133   9.053 -0.4583 -0.6032  0.1392
   74SLPC  H12X 6632   1.084  -0.220   9.094 -0.2653 -0.0670  1.6024
   74SLPC  H12Y 6633   1.249  -0.140   9.071 -0.4315  2.4794  1.8693
   74SLPC  C313 6634   1.117  -0.137   8.906  0.7070  0.1898  0.2924
   74SLPC  H13X 6635   1.164  -0.231   8.869  0.6245  0.2186  0.1185
   74SLPC  H13Y 6636   1.170  -0.052   8.857  0.5388  0.1524  0.0447
   74SLPC  C314 6637   0.967  -0.125   8.862 -0.0520  0.2104 -0.7455
   74SLPC  H14X 6638   0.963  -0.118   8.751 -0.5095  0.6003 -0.7058
   74SLPC  H14Y 6639   0.923  -0.034   8.908  0.7169 -0.8832  2.4124
   74SLPC  C315 6640   0.877  -0.239   8.903 -0.0123 -0.0369  0.1929
   74SLPC  H15X 6641   0.896  -0.247   9.012  0.4274  0.8453  0.1851
   74SLPC  H15Y 6642   0.904  -0.323   8.835  0.0132 -0.9909  1.3471
   74SLPC  C316 6643   0.726  -0.196   8.898  0.2610 -0.2840 -0.5844
   74SLPC  H16X 6644   0.702  -0.166   8.794 -0.0898  0.9237 -0.1662
   74SLPC  H16Y 6645   0.715  -0.110   8.967  0.4748 -1.2167  0.6454
   74SLPC  C317 6646   0.628  -0.305   8.952 -0.0340  0.3579  0.1213
   74SLPC  H17X 6647   0.648  -0.341   9.055 -1.9452  0.4808  0.5742
   74SLPC  H17Y 6648   0.638  -0.394   8.887 -0.1402  1.3588 -1.3293
   74SLPC  C318 6649   0.483  -0.258   8.941 -0.5787  0.1696 -0.2617
   74SLPC  H18X 6650   0.408  -0.336   8.964  1.1818 -2.5391 -2.9558
   74SLPC  H18Y 6651   0.454  -0.238   8.835  1.0910  0.3414 -0.7168
   74SLPC  H18Z 6652   0.473  -0.161   8.994 -0.1925  0.8494 -1.4024
   75SLPC     N 6653   2.521   5.387   6.009  0.3096 -0.8076  0.3541
   75SLPC   C13 6654   2.531   5.411   5.865 -0.8664 -0.5393 -0.1168
   75SLPC  H13A 6655   2.559   5.318   5.817 -2.6958 -1.9635  1.4380
   75SLPC  H13B 6656   2.443   5.436   5.808  0.0475 -1.5475 -2.1110
   75SLPC  H13C 6657   2.608   5.481   5.835 -1.6500  0.6641  0.5902
   75SLPC   C14 6658   2.482   5.523   6.068  0.4302 -0.0243 -0.1774
   75SLPC  H14A 6659   2.561   5.595   6.048  1.2926 -0.6540  0.8308
   75SLPC  H14B 6660   2.390   5.558   6.024  0.3272 -0.3601 -0.2318
   75SLPC  H14C 6661   2.465   5.528   6.174 -0.2583  2.0735 -0.3486
   75SLPC   C15 6662   2.656   5.350   6.061 -0.9063 -0.2706 -0.4073
   75SLPC  H15A 6663   2.733   5.424   6.043 -1.1441 -0.3694 -2.0209
   75SLPC  H15B 6664   2.652   5.344   6.169  0.1964 -1.2297 -0.4003
   75SLPC  H15C 6665   2.695   5.258   6.021 -1.0158  0.6235 -2.7096
   75SLPC   C12 6666   2.414   5.281   6.037 -0.1747  1.0054  0.0229
   75SLPC  H12A 6667   2.432   5.206   5.962 -0.7348  0.5245  0.3635
   75SLPC  H12B 6668   2.320   5.329   6.015 -0.7123  0.1561  0.4175
   75SLPC   C11 6669   2.410   5.221   6.172 -0.3523 -0.6493  0.1234
   75SLPC  H11A 6670   2.493   5.154   6.204 -0.7461 -1.3571 -0.3159
   75SLPC  H11B 6671   2.322   5.152   6.172  0.0773 -1.2359  1.3605
   75SLPC     P 6672   2.465   5.332   6.398 -0.4331 -0.1343  0.1026
   75SLPC   O13 6673   2.612   5.331   6.369  0.4441  0.0146  0.1296
   75SLPC   O14 6674   2.422   5.442   6.489 -0.2957  0.3670 -1.1083
   75SLPC   O12 6675   2.382   5.320   6.263  0.0500 -0.7514  0.2210
   75SLPC   O11 6676   2.427   5.191   6.472  0.4290  0.0458  0.3733
   75SLPC    C1 6677   2.514   5.081   6.484 -0.6180  0.2514  0.0021
   75SLPC    HA 6678   2.583   5.086   6.398 -0.4697 -0.5828  0.0684
   75SLPC    HB 6679   2.573   5.091   6.578 -0.3279 -0.8465 -0.0525
   75SLPC    C2 6680   2.444   4.945   6.480 -0.3041  0.2636  0.3171
   75SLPC    HS 6681   2.406   4.916   6.380  2.5218 -0.8429 -0.5424
   75SLPC   O21 6682   2.333   4.954   6.578 -0.2712 -0.2186 -0.3729
   75SLPC   C21 6683   2.218   5.010   6.535  0.1193  0.7188  0.3057
   75SLPC   O22 6684   2.197   5.034   6.416 -0.0807 -0.1266 -0.4874
   75SLPC   C22 6685   2.115   5.025   6.638  0.2691 -0.2470 -0.2796
   75SLPC   H2R 6686   2.111   5.129   6.679 -0.3247  0.5737 -2.3152
   75SLPC   H2S 6687   2.018   5.010   6.585  0.5316 -3.1379 -0.0676
   75SLPC    C3 6688   2.527   4.815   6.506  0.2718 -0.2322 -0.5854
   75SLPC    HX 6689   2.606   4.819   6.427  0.5561  0.7921 -0.2618
   75SLPC    HY 6690   2.472   4.723   6.474  0.6363 -0.4534 -0.5909
   75SLPC   O31 6691   2.591   4.799   6.636  0.3770 -0.1914 -0.3090
   75SLPC   C31 6692   2.515   4.750   6.730  0.2771 -0.1231  0.0745
   75SLPC   O32 6693   2.423   4.671   6.719  0.2776 -0.2267  0.1972
   75SLPC   C32 6694   2.579   4.808   6.860  0.6316 -0.9061 -0.3103
   75SLPC   H2X 6695   2.560   4.917   6.864 -1.3670 -1.2634  2.3742
   75SLPC   H2Y 6696   2.686   4.780   6.851  1.2570  1.4140 -0.7800
   75SLPC   C23 6697   2.107   4.917   6.750  0.2728  0.2400  0.2291
   75SLPC   H3R 6698   2.153   4.824   6.711 -0.2499  0.3310 -0.6314
   75SLPC   H3S 6699   2.000   4.901   6.778  0.2369 -1.0615 -0.5859
   75SLPC   C24 6700   2.183   4.948   6.879  0.1552  0.1029 -0.0427
   75SLPC   H4R 6701   2.152   5.049   6.915 -1.1629 -0.1288 -0.4634
   75SLPC   H4S 6702   2.291   4.942   6.854  0.1861 -0.3981  0.2033
   75SLPC   C25 6703   2.138   4.835   6.983 -0.0123 -0.5343  0.4024
   75SLPC   H5R 6704   2.195   4.746   6.948 -1.3973 -1.6213  0.8173
   75SLPC   H5S 6705   2.031   4.803   6.983 -0.0509 -0.5068  1.9934
   75SLPC   C26 6706   2.177   4.890   7.128 -0.5338 -0.0654  0.6683
   75SLPC   H6R 6707   2.152   4.997   7.144  1.1200  0.6364 -1.0279
   75SLPC   H6S 6708   2.288   4.889   7.130 -0.1467  2.7996 -3.9636
   75SLPC   C27 6709   2.108   4.808   7.235  0.8215  0.0494 -0.6118
   75SLPC   H7R 6710   2.106   4.700   7.208  2.6255 -0.5324  1.2967
   75SLPC   H7S 6711   2.002   4.843   7.238  0.9513  0.5825 -1.8008
   75SLPC   C28 6712   2.176   4.825   7.372  0.7054  0.1609  0.4145
   75SLPC   H8R 6713   2.192   4.933   7.390  3.1258 -0.2240  0.9676
   75SLPC   H8S 6714   2.274   4.773   7.367 -0.3617 -1.9802  0.5874
   75SLPC   C29 6715   2.104   4.762   7.493 -1.0658 -0.1340 -0.1199
   75SLPC   H9R 6716   2.031   4.682   7.473 -3.1690  0.2547  4.6866
   75SLPC  C210 6717   2.118   4.791   7.623  0.0177  0.1297 -0.1467
   75SLPC  H10R 6718   2.046   4.742   7.690  2.1229 -1.5529  1.0239
   75SLPC  C211 6719   2.207   4.892   7.683 -0.1562 -0.0728 -0.0709
   75SLPC  H11R 6720   2.137   4.965   7.730 -1.9099  0.4812 -3.2262
   75SLPC  H11S 6721   2.250   4.957   7.604 -2.1109  1.4551  0.0489
   75SLPC  C212 6722   2.311   4.843   7.783  0.0770 -0.2290  0.2345
   75SLPC  H12R 6723   2.379   4.760   7.759  0.3892 -0.4055  1.6182
   75SLPC  C213 6724   2.323   4.891   7.911  0.4546  0.1580 -0.1351
   75SLPC  H13R 6725   2.398   4.850   7.981 -0.5013 -1.2775  0.0926
   75SLPC  C214 6726   2.225   4.986   7.972  0.1565  0.7034 -0.5660
   75SLPC  H14R 6727   2.122   4.948   7.959  0.3760 -0.2597  0.3869
   75SLPC  H14S 6728   2.224   5.079   7.912 -1.2462  0.3529 -1.1253
   75SLPC  C215 6729   2.244   5.000   8.121 -0.1737 -0.1911 -0.1692
   75SLPC  H15R 6730   2.261   4.903   8.172  3.0813 -1.1550 -2.6899
   75SLPC  H15S 6731   2.158   5.048   8.171  0.0568 -1.4115  1.4759
   75SLPC  C216 6732   2.363   5.094   8.149 -0.1644  0.0353  0.7217
   75SLPC  H16R 6733   2.354   5.203   8.130 -0.4625 -0.0070  0.6174
   75SLPC  H16S 6734   2.446   5.059   8.083 -0.3859  0.4527  0.2076
   75SLPC  C217 6735   2.395   5.091   8.298  0.1278  0.2206  0.0051
   75SLPC  H17R 6736   2.439   4.991   8.315  1.8425  0.7009 -1.3298
   75SLPC  H17S 6737   2.295   5.095   8.347 -0.4482  0.5229 -1.1516
   75SLPC  C218 6738   2.480   5.210   8.343  0.5148  0.1732  0.1410
   75SLPC  H18R 6739   2.424   5.303   8.321 -1.6981 -1.1686 -0.1765
   75SLPC  H18S 6740   2.581   5.206   8.296  0.5246 -1.7757  0.2201
   75SLPC  H18T 6741   2.496   5.192   8.452  0.8900 -0.8975 -0.0815
   75SLPC   C33 6742   2.521   4.760   6.997 -0.0932  0.1567 -0.0922
   75SLPC   H3X 6743   2.412   4.781   6.999 -0.3035 -0.8510  1.7470
   75SLPC   H3Y 6744   2.530   4.649   7.008 -0.3976 -0.0421 -1.6360
   75SLPC   C34 6745   2.600   4.828   7.102  0.3970  0.7707  0.5088
   75SLPC   H4X 6746   2.612   4.937   7.086  3.3771  0.5002  0.3708
   75SLPC   H4Y 6747   2.704   4.791   7.088  0.4927  0.9605  0.7093
   75SLPC   C35 6748   2.562   4.794   7.250  0.2164  0.5813  1.6716
   75SLPC   H5X 6749   2.563   4.683   7.255 -2.3969  0.3767 -0.4957
   75SLPC   H5Y 6750   2.455   4.823   7.254 -0.7233 -1.6638 -2.1535
   75SLPC   C36 6751   2.648   4.869   7.357  0.2493  0.5750  0.1570
   75SLPC   H6X 6752   2.671   4.968   7.314  0.5861  1.5532  2.4725
   75SLPC   H6Y 6753   2.739   4.810   7.381  0.7127  1.1757 -0.1008
   75SLPC   C37 6754   2.559   4.884   7.483 -0.3499  0.5635 -0.4714
   75SLPC   H7X 6755   2.518   4.783   7.506  1.5600  0.4906  3.4390
   75SLPC   H7Y 6756   2.473   4.954   7.474  0.2740  1.3617 -0.3414
   75SLPC   C38 6757   2.635   4.933   7.605  0.1153 -0.3594  0.4623
   75SLPC   H8X 6758   2.563   4.937   7.690 -1.2340  1.5851 -0.7049
   75SLPC   H8Y 6759   2.657   5.041   7.596  2.0331 -0.7402  0.0174
   75SLPC   C39 6760   2.756   4.852   7.648 -0.2139  0.2071  0.2102
   75SLPC   H9X 6761   2.827   4.847   7.562 -1.4947 -0.1439 -0.8580
   75SLPC   H9Y 6762   2.717   4.751   7.673  1.5744 -0.7918 -0.7473
   75SLPC  C310 6763   2.828   4.911   7.767  0.4195 -0.0393 -0.5423
   75SLPC  H10X 6764   2.850   5.019   7.754  1.4844 -0.1784  0.0110
   75SLPC  H10Y 6765   2.924   4.860   7.787 -0.9558 -3.1259 -1.1668
   75SLPC  C311 6766   2.740   4.892   7.895  0.1137 -0.0742 -1.6415
   75SLPC  H11X 6767   2.698   4.789   7.896 -1.3895  0.4805  1.0723
   75SLPC  H11Y 6768   2.660   4.969   7.902  0.5138  0.2088  1.2109
   75SLPC  C312 6769   2.818   4.907   8.025  0.1911 -0.3810 -0.1315
   75SLPC  H12X 6770   2.909   4.966   8.000 -0.8667  0.5324 -2.0401
   75SLPC  H12Y 6771   2.854   4.808   8.060 -0.8376 -1.1875 -1.2852
   75SLPC  C313 6772   2.734   4.969   8.135  0.5948  1.1728 -0.0725
   75SLPC  H13X 6773   2.657   4.891   8.152  1.0213  1.0048  1.2123
   75SLPC  H13Y 6774   2.691   5.060   8.088 -0.7536  0.3549 -0.4537
   75SLPC  C314 6775   2.810   4.998   8.267 -0.4864  0.0858  0.1136
   75SLPC  H14X 6776   2.856   4.907   8.309 -0.8540 -0.3694 -0.4532
   75SLPC  H14Y 6777   2.731   5.038   8.334 -1.4994  2.7011 -2.4068
   75SLPC  C315 6778   2.925   5.107   8.250 -0.4894 -0.1795  0.3696
   75SLPC  H15X 6779   2.886   5.198   8.200  0.2639  1.1285  2.0832
   75SLPC  H15Y 6780   3.003   5.074   8.178 -1.4280  1.4211 -1.4411
   75SLPC  C316 6781   3.004   5.145   8.378  0.3720  0.5190  0.8755
   75SLPC  H16X 6782   3.066   5.059   8.411  0.4497 -0.6481 -2.0477
   75SLPC  H16Y 6783   2.938   5.178   8.461  0.6837 -0.4417  1.5193
   75SLPC  C317 6784   3.115   5.246   8.341  0.7751  0.6814  0.0792
   75SLPC  H17X 6785   3.172   5.203   8.256 -1.0987 -0.4133 -0.6848
   75SLPC  H17Y 6786   3.179   5.251   8.432 -1.3842 -0.0558  1.7254
   75SLPC  C318 6787   3.058   5.388   8.321 -0.5451 -0.6213  0.1588
   75SLPC  H18X 6788   2.981   5.388   8.242  0.0914  0.5141 -0.4855
   75SLPC  H18Y 6789   3.145   5.453   8.299 -0.2953 -1.0730 -0.2261
   75SLPC  H18Z 6790   3.011   5.433   8.411 -2.0317  0.3028 -1.0375
   76SLPC     N 6791   3.898   4.864   6.297 -0.0580 -0.2263 -0.0520
   76SLPC   C13 6792   3.768   4.879   6.375  0.1386  0.0748 -0.3331
   76SLPC  H13A 6793   3.752   4.788   6.432 -1.4917  1.4964  1.6046
   76SLPC  H13B 6794   3.771   4.962   6.444  0.4375  1.3976 -1.8758
   76SLPC  H13C 6795   3.679   4.889   6.315 -0.6607 -0.5855  0.7117
   76SLPC   C14 6796   4.004   4.900   6.389  0.9246 -0.5785 -0.0594
   76SLPC  H14A 6797   3.982   4.991   6.443 -1.1495 -1.0774 -0.0066
   76SLPC  H14B 6798   4.024   4.822   6.462 -1.0767 -0.7986  0.3120
   76SLPC  H14C 6799   4.098   4.913   6.338  0.1779 -0.6941 -1.5006
   76SLPC   C15 6800   3.894   4.947   6.180  0.1618 -0.3188 -0.8766
   76SLPC  H15A 6801   3.864   5.048   6.205  0.1422 -0.9453  1.9114
   76SLPC  H15B 6802   3.990   4.950   6.132  0.3177  0.4960 -0.5265
   76SLPC  H15C 6803   3.832   4.903   6.103  0.8355 -0.4289 -1.3582
   76SLPC   C12 6804   3.904   4.723   6.239  0.2618 -0.3985 -0.3922
   76SLPC  H12A 6805   3.988   4.709   6.173  0.0130  0.4370 -0.9032
   76SLPC  H12B 6806   3.823   4.715   6.168 -0.4289  0.7082  0.2460
   76SLPC   C11 6807   3.896   4.599   6.334  0.1762 -0.1130 -0.4215
   76SLPC  H11A 6808   3.968   4.612   6.418 -1.2717 -1.0538  1.0299
   76SLPC  H11B 6809   3.922   4.510   6.273  1.1501  0.1854 -0.4665
   76SLPC     P 6810   3.647   4.520   6.311 -0.5966 -0.2224  0.5206
   76SLPC   O13 6811   3.514   4.581   6.345 -0.3367  0.0488  0.2594
   76SLPC   O14 6812   3.678   4.530   6.163 -0.1588  0.3949  0.6721
   76SLPC   O12 6813   3.763   4.589   6.384 -0.1478  0.0803 -0.5473
   76SLPC   O11 6814   3.650   4.363   6.346  0.1001 -0.1471 -0.0202
   76SLPC    C1 6815   3.690   4.322   6.474  0.1917 -0.2156  0.1146
   76SLPC    HA 6816   3.743   4.226   6.460 -0.8594 -0.9763  1.1378
   76SLPC    HB 6817   3.764   4.388   6.524 -0.1888 -0.1259  0.5735
   76SLPC    C2 6818   3.568   4.312   6.568 -0.2364  0.1299 -0.2486
   76SLPC    HS 6819   3.520   4.409   6.591  0.0712 -0.3997  3.2310
   76SLPC   O21 6820   3.591   4.246   6.694 -0.3225  0.3881 -0.9411
   76SLPC   C21 6821   3.626   4.330   6.796 -0.2002 -0.2143  0.2171
   76SLPC   O22 6822   3.615   4.450   6.793 -0.1417 -0.2377  0.3729
   76SLPC   C22 6823   3.670   4.260   6.926 -0.1535  0.4200 -0.0123
   76SLPC   H2R 6824   3.594   4.187   6.960  1.4061 -0.9748  0.6109
   76SLPC   H2S 6825   3.763   4.210   6.891  0.1091  0.6649  0.3321
   76SLPC    C3 6826   3.462   4.235   6.491  0.2696  0.3907 -0.8959
   76SLPC    HX 6827   3.513   4.148   6.445  1.4764  0.6898 -0.1632
   76SLPC    HY 6828   3.410   4.304   6.421  0.9734  1.6133 -0.2393
   76SLPC   O31 6829   3.354   4.187   6.574  0.0456  0.1695 -0.1515
   76SLPC   C31 6830   3.349   4.064   6.613  0.0244  0.3005 -0.3348
   76SLPC   O32 6831   3.431   3.978   6.576 -0.3492 -0.1958 -0.5672
   76SLPC   C32 6832   3.236   4.047   6.715  0.1994 -0.1291  0.4385
   76SLPC   H2X 6833   3.250   3.941   6.745 -1.2037 -0.2389  0.7691
   76SLPC   H2Y 6834   3.140   4.049   6.660 -0.5018 -0.2589  1.6071
   76SLPC   C23 6835   3.702   4.346   7.053 -0.0374 -0.0353 -0.0696
   76SLPC   H3R 6836   3.606   4.382   7.096  0.2069  1.2287 -0.5561
   76SLPC   H3S 6837   3.769   4.434   7.038  0.8452 -0.8725 -1.2105
   76SLPC   C24 6838   3.766   4.264   7.169 -0.2735  0.3627  0.4691
   76SLPC   H4R 6839   3.869   4.227   7.150 -0.5211 -0.4915  0.7418
   76SLPC   H4S 6840   3.710   4.172   7.197  2.0291 -1.8769 -1.7407
   76SLPC   C25 6841   3.780   4.348   7.301 -0.6682 -0.8779  0.0583
   76SLPC   H5R 6842   3.677   4.373   7.335 -1.0047 -1.4492 -0.5245
   76SLPC   H5S 6843   3.846   4.433   7.272 -1.5401 -0.4156 -0.6208
   76SLPC   C26 6844   3.848   4.257   7.407  0.0618 -0.9039 -0.3126
   76SLPC   H6R 6845   3.958   4.254   7.392  0.3930 -1.7671  1.8385
   76SLPC   H6S 6846   3.806   4.154   7.406  2.0668 -1.7700 -0.9891
   76SLPC   C27 6847   3.843   4.320   7.554  0.0827  0.2278  0.0417
   76SLPC   H7R 6848   3.751   4.304   7.613  1.5154 -1.5267  1.9475
   76SLPC   H7S 6849   3.867   4.427   7.539 -1.5495  0.5526 -0.4448
   76SLPC   C28 6850   3.969   4.275   7.645 -0.4805 -0.7045 -0.3799
   76SLPC   H8R 6851   3.979   4.167   7.619  1.8527 -0.3314 -1.3165
   76SLPC   H8S 6852   4.058   4.322   7.599 -1.5065  0.6130 -1.0578
   76SLPC   C29 6853   3.945   4.297   7.795  0.0829 -0.0397  0.5594
   76SLPC   H9R 6854   3.851   4.255   7.833  0.2113 -0.7449  0.1060
   76SLPC  C210 6855   4.022   4.362   7.881 -0.3720 -0.9131  0.4919
   76SLPC  H10R 6856   3.995   4.365   7.988 -1.2906 -0.2326  0.2537
   76SLPC  C211 6857   4.151   4.431   7.846  0.3202  0.1405  0.7610
   76SLPC  H11R 6858   4.147   4.542   7.844  4.1035  0.4178  0.4425
   76SLPC  H11S 6859   4.197   4.412   7.746 -1.9205  1.6242 -0.6598
   76SLPC  C212 6860   4.261   4.412   7.941 -0.4650  0.5546 -0.4301
   76SLPC  H12R 6861   4.335   4.335   7.913 -0.8562  0.4161 -1.1031
   76SLPC  C213 6862   4.279   4.474   8.060 -0.2643  0.5225 -0.3971
   76SLPC  H13R 6863   4.371   4.448   8.115  0.5532  0.8087 -1.5885
   76SLPC  C214 6864   4.189   4.582   8.121 -0.3632  0.2544  0.3984
   76SLPC  H14R 6865   4.117   4.533   8.191  1.1889  0.3345  2.1137
   76SLPC  H14S 6866   4.127   4.621   8.037  1.9290 -1.4777 -2.2833
   76SLPC  C215 6867   4.274   4.683   8.198  0.3600  0.5684 -0.1633
   76SLPC  H15R 6868   4.197   4.756   8.231 -0.1842  0.7686 -1.7767
   76SLPC  H15S 6869   4.347   4.738   8.134 -0.6058  2.5811  0.3903
   76SLPC  C216 6870   4.342   4.632   8.329  0.0145  0.4733  0.2081
   76SLPC  H16R 6871   4.421   4.561   8.296 -0.6134  0.9420 -2.5744
   76SLPC  H16S 6872   4.273   4.565   8.384 -1.0795 -1.1386 -2.8590
   76SLPC  C217 6873   4.407   4.748   8.398 -0.2201  0.3940  0.0717
   76SLPC  H17R 6874   4.322   4.810   8.432 -0.1494 -0.0954  1.1920
   76SLPC  H17S 6875   4.471   4.811   8.333 -0.7723 -0.0574 -0.9284
   76SLPC  C218 6876   4.475   4.717   8.528  0.1956  0.2249 -0.1242
   76SLPC  H18R 6877   4.572   4.664   8.518 -0.7978 -1.8614  0.8711
   76SLPC  H18S 6878   4.412   4.661   8.600  1.0190 -0.5020  0.0542
   76SLPC  H18T 6879   4.496   4.816   8.574  0.4624 -0.3666  1.0465
   76SLPC   C33 6880   3.245   4.145   6.835 -0.7460 -0.1348  0.9168
   76SLPC   H3X 6881   3.227   4.248   6.797  0.6216  0.4945  1.8688
   76SLPC   H3Y 6882   3.350   4.151   6.872 -0.0970  0.0599 -0.8588
   76SLPC   C34 6883   3.157   4.094   6.954 -0.6118 -0.0643 -0.1558
   76SLPC   H4X 6884   3.211   4.015   7.012 -1.0488 -0.3575 -0.1461
   76SLPC   H4Y 6885   3.066   4.050   6.910 -1.9422  2.9913 -0.6846
   76SLPC   C35 6886   3.106   4.207   7.048 -0.3626  0.6125  0.6229
   76SLPC   H5X 6887   3.059   4.157   7.135  0.8301 -1.2041  0.2847
   76SLPC   H5Y 6888   3.027   4.268   7.000 -1.3193  0.6942  2.2380
   76SLPC   C36 6889   3.220   4.296   7.098 -0.0886  0.0389 -0.8850
   76SLPC   H6X 6890   3.180   4.382   7.156  1.6190  0.4832 -0.3063
   76SLPC   H6Y 6891   3.261   4.343   7.007  3.4736 -0.2092  0.4399
   76SLPC   C37 6892   3.325   4.222   7.181 -0.8646  0.2437  0.2609
   76SLPC   H7X 6893   3.397   4.297   7.218 -0.0781 -0.4844  0.2249
   76SLPC   H7Y 6894   3.382   4.160   7.109 -1.8521  2.6428 -2.8177
   76SLPC   C38 6895   3.277   4.137   7.295  0.2880 -0.2514 -1.0824
   76SLPC   H8X 6896   3.365   4.107   7.356 -0.5529  0.0030  0.3010
   76SLPC   H8Y 6897   3.221   4.046   7.261 -1.6017  0.8158 -0.9704
   76SLPC   C39 6898   3.194   4.230   7.388 -0.1527 -0.3160 -0.4417
   76SLPC   H9X 6899   3.094   4.241   7.341 -0.0625 -3.4871 -1.6245
   76SLPC   H9Y 6900   3.258   4.320   7.384  0.2804 -0.5321  0.8950
   76SLPC  C310 6901   3.164   4.188   7.530  0.5032 -0.6082 -0.0542
   76SLPC  H10X 6902   3.087   4.108   7.523  1.0535 -1.2873  1.2665
   76SLPC  H10Y 6903   3.130   4.277   7.588  1.2167 -0.2317 -0.2030
   76SLPC  C311 6904   3.260   4.118   7.628  0.5002  0.3362  0.6441
   76SLPC  H11X 6905   3.363   4.159   7.632  1.4562 -1.9553  1.0268
   76SLPC  H11Y 6906   3.262   4.012   7.595 -0.3874  1.2061 -2.6574
   76SLPC  C312 6907   3.208   4.123   7.774 -0.0214 -0.1825 -0.1038
   76SLPC  H12X 6908   3.104   4.163   7.768  0.7829  2.0453  0.0539
   76SLPC  H12Y 6909   3.277   4.186   7.833  0.7048  0.5355 -1.6480
   76SLPC  C313 6910   3.214   3.991   7.838  0.3735 -0.1829 -0.9953
   76SLPC  H13X 6911   3.311   3.937   7.831  0.3353 -0.5405  0.7707
   76SLPC  H13Y 6912   3.138   3.922   7.795 -0.6502  1.5518 -2.1084
   76SLPC  C314 6913   3.184   3.995   7.987  0.1233 -0.0174  0.4475
   76SLPC  H14X 6914   3.087   4.047   8.002  1.0574  1.9561 -0.0712
   76SLPC  H14Y 6915   3.265   4.057   8.033  2.3588 -3.5133  1.6514
   76SLPC  C315 6916   3.177   3.855   8.050  0.8009  0.0533 -0.2772
   76SLPC  H15X 6917   3.138   3.788   7.971  2.3461 -1.5292  0.2413
   76SLPC  H15Y 6918   3.102   3.860   8.132 -0.0887 -1.4648 -0.9592
   76SLPC  C316 6919   3.311   3.804   8.108 -0.3430 -0.5195 -0.2492
   76SLPC  H16X 6920   3.335   3.867   8.197  1.7761 -0.8679 -0.5099
   76SLPC  H16Y 6921   3.395   3.827   8.039  0.9072 -3.1429  0.2568
   76SLPC  C317 6922   3.318   3.655   8.150  0.4172  0.2434  0.0146
   76SLPC  H17X 6923   3.418   3.608   8.144 -0.5717 -1.8564 -1.4894
   76SLPC  H17Y 6924   3.257   3.596   8.078 -1.2233 -0.8674  2.1963
   76SLPC  C318 6925   3.246   3.631   8.281  0.1256  0.5536 -0.0454
   76SLPC  H18X 6926   3.315   3.676   8.356  0.1933  0.0881  0.1689
   76SLPC  H18Y 6927   3.239   3.523   8.305  4.8530  0.1817  0.7279
   76SLPC  H18Z 6928   3.149   3.685   8.289  0.9376  1.8448  1.6833
   77SLPC     N 6929   5.420   4.328   6.342 -0.8996 -0.3857 -0.1229
   77SLPC   C13 6930   5.278   4.298   6.297 -0.6312  0.0077 -0.0352
   77SLPC  H13A 6931   5.230   4.385   6.256  1.8157  2.5144  1.9761
   77SLPC  H13B 6932   5.269   4.223   6.220  0.0213  0.5924 -0.6963
   77SLPC  H13C 6933   5.216   4.262   6.378 -0.5625  0.8249  0.3889
   77SLPC   C14 6934   5.498   4.382   6.225  0.8229 -0.4267  0.4464
   77SLPC  H14A 6935   5.446   4.461   6.172  0.4929 -1.4024 -0.7399
   77SLPC  H14B 6936   5.599   4.404   6.256  0.8952 -0.5946  0.3330
   77SLPC  H14C 6937   5.493   4.300   6.154  1.1432  0.9318 -1.2011
   77SLPC   C15 6938   5.478   4.207   6.402  0.1403 -1.1221 -0.2226
   77SLPC  H15A 6939   5.584   4.219   6.421 -0.0072 -0.3746  0.1693
   77SLPC  H15B 6940   5.438   4.197   6.502 -0.6412  2.1310 -0.0927
   77SLPC  H15C 6941   5.450   4.120   6.345 -1.5634 -1.6590  1.3494
   77SLPC   C12 6942   5.409   4.442   6.446 -0.0568 -0.1364 -0.3163
   77SLPC  H12A 6943   5.359   4.527   6.404  2.6003  1.7634  0.1370
   77SLPC  H12B 6944   5.511   4.475   6.461 -0.5197  1.5624 -0.7616
   77SLPC   C11 6945   5.356   4.430   6.590  0.9354  0.4286 -0.4592
   77SLPC  H11A 6946   5.368   4.530   6.637  0.7557 -0.6810  2.1237
   77SLPC  H11B 6947   5.421   4.363   6.650  1.8892  0.3022 -1.6033
   77SLPC     P 6948   5.096   4.470   6.569  0.0981  0.9210 -0.0055
   77SLPC   O13 6949   5.130   4.606   6.540  0.2930  0.3525 -0.4514
   77SLPC   O14 6950   5.015   4.401   6.465 -0.0965 -0.4340 -0.3011
   77SLPC   O12 6951   5.224   4.377   6.600  0.0625  0.2903 -0.1079
   77SLPC   O11 6952   5.006   4.460   6.698 -1.1685  0.6417 -0.1500
   77SLPC    C1 6953   5.058   4.388   6.813 -0.1510 -0.5926  0.7852
   77SLPC    HA 6954   4.970   4.355   6.871 -0.8610 -5.3906 -2.4310
   77SLPC    HB 6955   5.114   4.294   6.793  1.5794 -0.1422  3.0545
   77SLPC    C2 6956   5.163   4.489   6.890 -0.1157  0.8301 -0.6795
   77SLPC    HS 6957   5.255   4.498   6.829  0.5039 -1.2888 -0.1371
   77SLPC   O21 6958   5.192   4.431   7.023 -0.9286 -0.4007  0.3368
   77SLPC   C21 6959   5.276   4.326   7.011  0.0177 -0.1000  0.9839
   77SLPC   O22 6960   5.335   4.292   6.904 -0.1151  0.5748  0.5485
   77SLPC   C22 6961   5.272   4.246   7.140 -0.7208 -0.4251 -0.0124
   77SLPC   H2R 6962   5.169   4.214   7.167  0.0755 -2.8811  0.3286
   77SLPC   H2S 6963   5.340   4.163   7.112  0.3619  0.2323  0.6199
   77SLPC    C3 6964   5.100   4.638   6.912 -0.2402  0.2887 -0.1011
   77SLPC    HX 6965   4.994   4.620   6.943  0.2058 -2.1877  0.1835
   77SLPC    HY 6966   5.101   4.676   6.808  1.3014  0.5756  0.0010
   77SLPC   O31 6967   5.165   4.721   7.009 -0.3117 -0.1065  0.1843
   77SLPC   C31 6968   5.269   4.784   6.967 -0.0708  0.2301 -0.7606
   77SLPC   O32 6969   5.324   4.765   6.860  1.2335 -0.3244  0.0664
   77SLPC   C32 6970   5.319   4.882   7.076 -0.3633  0.4841  0.5862
   77SLPC   H2X 6971   5.252   4.891   7.164  1.8343  0.5524  2.3510
   77SLPC   H2Y 6972   5.320   4.978   7.019 -0.3176  0.5724  0.7349
   77SLPC   C23 6973   5.352   4.314   7.252 -0.0961 -0.2412 -0.1709
   77SLPC   H3R 6974   5.294   4.402   7.286  0.1441  0.4827 -1.5204
   77SLPC   H3S 6975   5.449   4.360   7.223 -0.0354  0.3978  1.0052
   77SLPC   C24 6976   5.376   4.223   7.373  0.8344  0.3861 -0.5602
   77SLPC   H4R 6977   5.442   4.136   7.351  1.7228  1.2258 -1.3413
   77SLPC   H4S 6978   5.276   4.181   7.398  0.2172  1.0433 -1.8370
   77SLPC   C25 6979   5.430   4.308   7.486 -1.1286  0.2620 -0.1555
   77SLPC   H5R 6980   5.380   4.406   7.503 -2.2885 -0.5170  1.0839
   77SLPC   H5S 6981   5.537   4.331   7.469 -0.6610 -1.0572  0.8874
   77SLPC   C26 6982   5.431   4.236   7.623  0.5965  0.2450  0.3523
   77SLPC   H6R 6983   5.486   4.142   7.603  0.3765 -0.8291  4.0368
   77SLPC   H6S 6984   5.327   4.204   7.648  0.2630  1.0253 -0.0122
   77SLPC   C27 6985   5.500   4.315   7.738 -0.6795  0.5540  0.4935
   77SLPC   H7R 6986   5.583   4.362   7.680 -0.7217  2.7273  2.0750
   77SLPC   H7S 6987   5.542   4.254   7.820  0.3603 -1.1835 -1.2377
   77SLPC   C28 6988   5.410   4.432   7.786 -0.1094  0.6058  0.1359
   77SLPC   H8R 6989   5.370   4.477   7.693 -1.1777  1.6063  1.0421
   77SLPC   H8S 6990   5.476   4.505   7.837  1.2229 -0.2244 -0.3438
   77SLPC   C29 6991   5.294   4.379   7.868  0.4906 -1.0857 -0.0569
   77SLPC   H9R 6992   5.212   4.334   7.810 -1.0094  0.7957  0.4926
   77SLPC  C210 6993   5.274   4.398   8.000 -0.2699  0.8617 -0.6932
   77SLPC  H10R 6994   5.188   4.350   8.050  0.7775 -0.3311  0.0130
   77SLPC  C211 6995   5.360   4.463   8.101 -0.0485 -0.2834 -0.1421
   77SLPC  H11R 6996   5.297   4.492   8.187  0.1744  2.2417 -0.7430
   77SLPC  H11S 6997   5.402   4.553   8.050 -0.0262  0.8544  1.7899
   77SLPC  C212 6998   5.481   4.385   8.151 -0.0309 -0.2424 -0.8293
   77SLPC  H12R 6999   5.562   4.368   8.078  1.5552  1.2599  0.4708
   77SLPC  C213 7000   5.503   4.349   8.285  0.1586 -0.2486  0.7194
   77SLPC  H13R 7001   5.592   4.285   8.298 -0.6221 -1.5772 -0.2052
   77SLPC  C214 7002   5.417   4.373   8.404  0.0862  0.2650 -0.3773
   77SLPC  H14R 7003   5.445   4.309   8.490 -0.5174 -1.1992 -1.2218
   77SLPC  H14S 7004   5.309   4.356   8.384  0.1453 -1.2079  0.4242
   77SLPC  C215 7005   5.435   4.523   8.446  0.3386  0.1849 -0.1456
   77SLPC  H15R 7006   5.350   4.550   8.513  1.0765 -0.0486  0.8992
   77SLPC  H15S 7007   5.414   4.597   8.366 -1.5191  1.9033  1.8186
   77SLPC  C216 7008   5.559   4.544   8.523 -0.2137  0.1563 -0.6642
   77SLPC  H16R 7009   5.648   4.497   8.475  0.4481 -1.6240  2.0686
   77SLPC  H16S 7010   5.534   4.490   8.617 -2.2676 -2.0690 -2.3764
   77SLPC  C217 7011   5.591   4.691   8.545  0.3102  0.1055 -0.4041
   77SLPC  H17R 7012   5.580   4.736   8.444  3.1641 -2.1332 -1.8456
   77SLPC  H17S 7013   5.696   4.709   8.576 -0.6981  1.4080  2.5849
   77SLPC  C218 7014   5.495   4.769   8.640 -0.6356  0.4328  0.6400
   77SLPC  H18R 7015   5.479   4.869   8.596  0.5440  0.1047 -0.6033
   77SLPC  H18S 7016   5.548   4.786   8.737  2.3834  0.2655 -0.8568
   77SLPC  H18T 7017   5.403   4.711   8.660  0.8997 -2.8381 -0.9670
   77SLPC   C33 7018   5.459   4.836   7.131  0.2133 -0.3592  0.3202
   77SLPC   H3X 7019   5.503   4.933   7.160  0.0020  0.5980 -2.3625
   77SLPC   H3Y 7020   5.533   4.789   7.063  1.4726  0.9278  0.7512
   77SLPC   C34 7021   5.441   4.753   7.259  0.0695  0.5440  0.1870
   77SLPC   H4X 7022   5.362   4.678   7.236  1.6440 -0.3995 -2.5359
   77SLPC   H4Y 7023   5.403   4.807   7.348 -2.7682  0.5637 -0.9399
   77SLPC   C35 7024   5.568   4.672   7.289 -0.0253  0.2075  0.8529
   77SLPC   H5X 7025   5.655   4.733   7.258 -0.0248  0.2812  0.9980
   77SLPC   H5Y 7026   5.568   4.572   7.239 -2.8577  1.1146 -1.2679
   77SLPC   C36 7027   5.584   4.624   7.438  0.3385 -0.3160 -0.0010
   77SLPC   H6X 7028   5.671   4.556   7.448  2.1397  2.0479  1.6495
   77SLPC   H6Y 7029   5.489   4.579   7.474  0.1747 -0.0093 -0.0494
   77SLPC   C37 7030   5.600   4.736   7.542 -0.3836 -0.4178  0.4234
   77SLPC   H7X 7031   5.518   4.810   7.527 -1.4585 -1.3175  1.7116
   77SLPC   H7Y 7032   5.690   4.798   7.521  0.8005 -1.3364  2.4920
   77SLPC   C38 7033   5.604   4.685   7.685  0.9678  0.1582  0.0806
   77SLPC   H8X 7034   5.643   4.581   7.692 -1.0325 -0.7235 -1.0669
   77SLPC   H8Y 7035   5.506   4.676   7.737  0.5612 -1.8293 -0.9199
   77SLPC   C39 7036   5.693   4.776   7.772 -0.1541  0.4914 -0.2596
   77SLPC   H9X 7037   5.659   4.881   7.768  0.3763  0.7480  1.2551
   77SLPC   H9Y 7038   5.800   4.785   7.742 -0.1813 -0.2482 -0.5920
   77SLPC  C310 7039   5.706   4.726   7.919 -0.6453  0.6841 -0.5367
   77SLPC  H10X 7040   5.770   4.636   7.928 -2.6460 -0.7161  0.3585
   77SLPC  H10Y 7041   5.603   4.698   7.951 -0.4799 -2.1900 -2.1583
   77SLPC  C311 7042   5.771   4.833   7.999  0.3013  0.1174 -1.2494
   77SLPC  H11X 7043   5.705   4.922   7.990  0.7059  0.3770 -1.6931
   77SLPC  H11Y 7044   5.862   4.867   7.944  1.3184  0.0261  0.3212
   77SLPC  C312 7045   5.805   4.776   8.143  0.0905  0.2627  0.2559
   77SLPC  H12X 7046   5.892   4.707   8.133 -0.0650  0.2774 -1.5267
   77SLPC  H12Y 7047   5.718   4.726   8.191 -0.9051 -0.2856 -1.9911
   77SLPC  C313 7048   5.841   4.898   8.235 -0.6899  0.1611 -0.0270
   77SLPC  H13X 7049   5.758   4.972   8.232  1.3188  2.7490  2.0705
   77SLPC  H13Y 7050   5.924   4.960   8.192  0.7659 -1.2681  0.6117
   77SLPC  C314 7051   5.869   4.841   8.369  0.1545 -0.0894 -0.4415
   77SLPC  H14X 7052   5.970   4.795   8.361  1.3790  2.4205 -0.2883
   77SLPC  H14Y 7053   5.808   4.749   8.386  0.1173  0.0928  0.4692
   77SLPC  C315 7054   5.854   4.930   8.488  0.0956  0.5141  0.2392
   77SLPC  H15X 7055   5.873   4.872   8.580 -0.3651  0.7811  0.5062
   77SLPC  H15Y 7056   5.747   4.953   8.505  0.1619  0.6929  0.4169
   77SLPC  C316 7057   5.937   5.057   8.475  0.9633 -0.2453 -0.4370
   77SLPC  H16X 7058   5.885   5.110   8.393  1.4836 -1.3711 -1.5295
   77SLPC  H16Y 7059   6.039   5.023   8.447  0.9604  0.9919 -2.0665
   77SLPC  C317 7060   5.931   5.136   8.609 -0.5426 -0.3633  0.7660
   77SLPC  H17X 7061   6.001   5.222   8.600 -0.4362 -0.6483 -2.2445
   77SLPC  H17Y 7062   5.958   5.066   8.691  1.9975  1.2026  1.3765
   77SLPC  C318 7063   5.791   5.201   8.632  1.2271 -0.1988 -0.2992
   77SLPC  H18X 7064   5.759   5.206   8.738  0.2502 -1.0125 -0.5364
   77SLPC  H18Y 7065   5.718   5.146   8.568  2.5912 -0.9555 -1.2436
   77SLPC  H18Z 7066   5.791   5.305   8.593 -3.3232 -0.7364 -2.4519
   78SLPC     N 7067   2.363   4.644   5.965 -0.2326  0.4879  0.2337
   78SLPC   C13 7068   2.227   4.593   5.992 -0.1921 -0.2657  0.5414
   78SLPC  H13A 7069   2.193   4.614   6.093 -1.8049  1.2030 -0.2534
   78SLPC  H13B 7070   2.159   4.636   5.920 -0.2165 -0.2894  0.5502
   78SLPC  H13C 7071   2.222   4.485   5.980 -1.0539 -0.1716 -0.0321
   78SLPC   C14 7072   2.368   4.790   6.005  0.1965 -0.1028  0.4000
   78SLPC  H14A 7073   2.470   4.824   5.993  0.9472 -2.3677 -0.0124
   78SLPC  H14B 7074   2.303   4.840   5.935  1.8865 -0.0370 -1.2182
   78SLPC  H14C 7075   2.346   4.804   6.110  1.4353  0.0435  0.6553
   78SLPC   C15 7076   2.387   4.659   5.813  0.3185  0.5411 -0.7231
   78SLPC  H15A 7077   2.379   4.567   5.757 -2.1737 -0.0235  0.4179
   78SLPC  H15B 7078   2.310   4.729   5.784 -1.4108 -1.5802 -1.5595
   78SLPC  H15C 7079   2.487   4.698   5.804  0.7426 -0.8262 -2.3633
   78SLPC   C12 7080   2.467   4.560   6.027  0.0814 -0.1900  1.1555
   78SLPC  H12A 7081   2.562   4.586   5.982 -0.2971  0.3544  0.6512
   78SLPC  H12B 7082   2.467   4.460   5.986 -0.2793  0.6538 -1.0163
   78SLPC   C11 7083   2.478   4.561   6.179  0.2534  0.1722  0.2134
   78SLPC  H11A 7084   2.504   4.663   6.214 -1.2700  0.7117 -0.1579
   78SLPC  H11B 7085   2.558   4.494   6.218 -2.1233 -2.0172  1.6839
   78SLPC     P 7086   2.339   4.351   6.264  0.3372 -0.2481  0.1546
   78SLPC   O13 7087   2.199   4.325   6.231  0.5162  0.1240  0.5786
   78SLPC   O14 7088   2.437   4.276   6.182  0.0082 -0.5685  0.4722
   78SLPC   O12 7089   2.358   4.507   6.243  0.8154 -0.0754  0.4701
   78SLPC   O11 7090   2.353   4.321   6.417  0.2365 -0.4166  0.0310
   78SLPC    C1 7091   2.464   4.399   6.479  0.8098 -0.0610  0.0277
   78SLPC    HA 7092   2.462   4.502   6.438 -2.2984 -0.2209 -0.5313
   78SLPC    HB 7093   2.440   4.406   6.587  0.4479  0.8160 -0.1036
   78SLPC    C2 7094   2.610   4.340   6.458 -0.0857 -0.0582 -0.0459
   78SLPC    HS 7095   2.625   4.340   6.348  0.5610 -3.0268 -0.0368
   78SLPC   O21 7096   2.622   4.211   6.521  0.0368  0.4189  0.8980
   78SLPC   C21 7097   2.723   4.131   6.486 -0.1932 -0.2746 -0.4753
   78SLPC   O22 7098   2.802   4.153   6.396  0.1116  0.7545  0.2425
   78SLPC   C22 7099   2.726   4.013   6.576 -0.7386  0.2147  0.0735
   78SLPC   H2R 7100   2.662   4.031   6.665 -0.8335 -0.4524  0.1454
   78SLPC   H2S 7101   2.694   3.919   6.526 -1.3070 -0.4056  1.5441
   78SLPC    C3 7102   2.713   4.435   6.518 -0.0062  0.1599  1.1771
   78SLPC    HX 7103   2.709   4.531   6.462  2.0553  0.3045  1.1881
   78SLPC    HY 7104   2.818   4.406   6.496 -0.0102  2.0926 -2.2017
   78SLPC   O31 7105   2.672   4.467   6.659 -0.3649  0.0632 -0.0363
   78SLPC   C31 7106   2.748   4.401   6.749 -0.9361 -0.1716 -0.3283
   78SLPC   O32 7107   2.848   4.336   6.716  1.3465  0.2019  0.0292
   78SLPC   C32 7108   2.681   4.405   6.890 -0.5465 -0.3619 -0.0800
   78SLPC   H2X 7109   2.613   4.317   6.898  1.3343 -2.0747 -1.6785
   78SLPC   H2Y 7110   2.640   4.505   6.915  0.1048 -0.9317  3.8320
   78SLPC   C23 7111   2.867   3.994   6.632 -0.1194 -0.2410 -0.9588
   78SLPC   H3R 7112   2.904   4.090   6.673  0.7365 -0.7237 -0.5582
   78SLPC   H3S 7113   2.932   3.957   6.549  1.9312  2.4362 -0.6590
   78SLPC   C24 7114   2.876   3.886   6.746  0.9334 -0.2041 -0.1397
   78SLPC   H4R 7115   2.843   3.934   6.841  0.2015  0.7731 -0.8648
   78SLPC   H4S 7116   2.985   3.865   6.756  1.0974 -1.2015 -2.9832
   78SLPC   C25 7117   2.804   3.748   6.723 -0.6774 -0.3524  0.1697
   78SLPC   H5R 7118   2.828   3.723   6.618 -1.3531  0.2960 -0.1447
   78SLPC   H5S 7119   2.695   3.770   6.722 -0.5034  0.5556 -0.8050
   78SLPC   C26 7120   2.850   3.636   6.810  0.6409 -0.1756  0.4675
   78SLPC   H6R 7121   2.960   3.625   6.805  0.6690  0.5747 -1.1136
   78SLPC   H6S 7122   2.796   3.542   6.782  0.5587 -0.1500  0.5378
   78SLPC   C27 7123   2.817   3.663   6.960 -0.9476 -0.1493  0.0246
   78SLPC   H7R 7124   2.712   3.689   6.985 -0.7725  0.3435  0.2605
   78SLPC   H7S 7125   2.872   3.751   7.000 -0.9119 -0.5253  0.8257
   78SLPC   C28 7126   2.848   3.540   7.040 -0.5290 -0.3130 -0.0473
   78SLPC   H8R 7127   2.956   3.516   7.031 -0.8784 -1.5430 -1.4039
   78SLPC   H8S 7128   2.794   3.456   6.990 -0.6026  0.2747 -0.9870
   78SLPC   C29 7129   2.822   3.539   7.185  0.1265 -0.7585 -0.0073
   78SLPC   H9R 7130   2.714   3.519   7.193 -0.9100  3.2624 -1.5779
   78SLPC  C210 7131   2.905   3.570   7.287 -0.1197 -0.1256 -0.0119
   78SLPC  H10R 7132   2.861   3.573   7.388 -0.1244  0.8908 -0.0360
   78SLPC  C211 7133   3.041   3.617   7.276 -0.2964  0.1661  0.3942
   78SLPC  H11R 7134   3.075   3.621   7.170  1.5579 -2.2569  0.8303
   78SLPC  H11S 7135   3.110   3.549   7.328 -1.3334 -2.1817 -1.1304
   78SLPC  C212 7136   3.060   3.759   7.321  0.5046  0.1020  0.4793
   78SLPC  H12R 7137   3.050   3.837   7.244  2.4982  0.2966  0.3760
   78SLPC  C213 7138   3.092   3.798   7.444  0.0115  0.8631 -0.2184
   78SLPC  H13R 7139   3.090   3.906   7.464  0.5582  0.6524  1.0508
   78SLPC  C214 7140   3.117   3.713   7.568  0.7791 -0.0951 -0.2386
   78SLPC  H14R 7141   3.086   3.607   7.556  1.8840 -0.4931  0.2551
   78SLPC  H14S 7142   3.064   3.767   7.649  2.9637  2.7129 -0.5273
   78SLPC  C215 7143   3.263   3.689   7.616  0.2438 -0.1124  1.5458
   78SLPC  H15R 7144   3.294   3.790   7.650  2.8226 -0.2893  0.0078
   78SLPC  H15S 7145   3.321   3.656   7.527 -0.8131  3.7541 -0.8225
   78SLPC  C216 7146   3.263   3.589   7.733 -0.0169  0.1059 -0.0715
   78SLPC  H16R 7147   3.191   3.508   7.709  0.2152  0.4385 -2.0615
   78SLPC  H16S 7148   3.243   3.632   7.833  1.4583 -3.0802  1.7200
   78SLPC  C217 7149   3.406   3.530   7.742 -0.0345 -0.0838 -0.5572
   78SLPC  H17R 7150   3.432   3.472   7.650  0.8677  0.7324 -0.8283
   78SLPC  H17S 7151   3.405   3.456   7.825 -1.3849 -0.4376 -0.8515
   78SLPC  C218 7152   3.524   3.631   7.755 -0.3344 -0.5456  1.1530
   78SLPC  H18R 7153   3.610   3.588   7.811  1.6091  1.1553 -0.3799
   78SLPC  H18S 7154   3.500   3.721   7.816 -0.7897  0.1373 -0.0105
   78SLPC  H18T 7155   3.564   3.665   7.657 -0.7014  1.2063  1.5733
   78SLPC   C33 7156   2.781   4.370   7.002 -0.0013  0.2916 -0.6015
   78SLPC   H3X 7157   2.877   4.424   6.988  0.0425  0.3003 -0.2737
   78SLPC   H3Y 7158   2.806   4.262   6.999 -0.0443  0.2830 -0.6498
   78SLPC   C34 7159   2.727   4.413   7.146 -0.6399 -0.4709  0.4564
   78SLPC   H4X 7160   2.642   4.347   7.174 -0.3758  0.3992  3.7898
   78SLPC   H4Y 7161   2.672   4.509   7.132 -2.6082 -1.7140 -0.8742
   78SLPC   C35 7162   2.837   4.424   7.253  0.2666 -0.6532  0.6449
   78SLPC   H5X 7163   2.916   4.496   7.222 -1.5731  0.4066 -1.9041
   78SLPC   H5Y 7164   2.889   4.326   7.248  1.2681 -0.0855 -0.5380
   78SLPC   C36 7165   2.786   4.443   7.399 -0.5717  0.4391 -0.7072
   78SLPC   H6X 7166   2.719   4.358   7.427 -0.9408  1.7957  3.1314
   78SLPC   H6Y 7167   2.730   4.536   7.423 -1.0347 -0.7965  3.9143
   78SLPC   C37 7168   2.908   4.439   7.492  0.2324 -0.3063 -0.2293
   78SLPC   H7X 7169   2.981   4.520   7.472 -0.7685  1.0933  1.5474
   78SLPC   H7Y 7170   2.952   4.337   7.488 -1.9299 -1.3464  0.8158
   78SLPC   C38 7171   2.867   4.474   7.636  0.7759 -0.5386  0.3258
   78SLPC   H8X 7172   2.782   4.414   7.673  0.3460  0.0208  0.2630
   78SLPC   H8Y 7173   2.819   4.573   7.624  0.4571 -0.6972  0.2885
   78SLPC   C39 7174   2.979   4.484   7.746  0.5340  0.4525  0.2356
   78SLPC   H9X 7175   3.074   4.534   7.716  0.2885  0.6698 -0.1864
   78SLPC   H9Y 7176   3.006   4.381   7.778  2.9623  0.3453 -1.7812
   78SLPC  C310 7177   2.925   4.566   7.869 -0.0592  0.7591 -0.4275
   78SLPC  H10X 7178   2.823   4.526   7.889 -0.2387  0.6773 -1.4694
   78SLPC  H10Y 7179   2.904   4.669   7.834 -2.6648  0.4231 -0.0743
   78SLPC  C311 7180   3.007   4.554   8.003  0.3808 -0.9084 -0.1209
   78SLPC  H11X 7181   2.952   4.622   8.071 -0.3189  0.0887 -1.6314
   78SLPC  H11Y 7182   3.108   4.597   7.986 -0.5613  1.3794 -0.2628
   78SLPC  C312 7183   3.023   4.412   8.054 -0.3318  0.0577 -0.4702
   78SLPC  H12X 7184   3.072   4.349   7.977 -0.9463 -0.9792 -0.0209
   78SLPC  H12Y 7185   2.924   4.372   8.081 -0.8669  2.0129  0.7222
   78SLPC  C313 7186   3.121   4.422   8.175 -0.0671  0.4901  0.2210
   78SLPC  H13X 7187   3.060   4.471   8.253  0.1256  0.3184  0.4807
   78SLPC  H13Y 7188   3.209   4.486   8.155  0.2063  0.2822  0.7410
   78SLPC  C314 7189   3.167   4.292   8.230  0.3997 -0.0571  0.3352
   78SLPC  H14X 7190   3.188   4.219   8.149  1.0201  1.6246 -1.0841
   78SLPC  H14Y 7191   3.090   4.248   8.296  0.0341 -1.6184 -1.0687
   78SLPC  C315 7192   3.299   4.305   8.310 -0.1363  0.2656  1.0341
   78SLPC  H15X 7193   3.288   4.397   8.372 -0.2569  0.3000  0.9614
   78SLPC  H15Y 7194   3.386   4.315   8.241 -1.2497  0.7761 -0.3433
   78SLPC  C316 7195   3.323   4.184   8.394  0.1070 -0.2684 -0.8229
   78SLPC  H16X 7196   3.430   4.157   8.400  0.5143  1.1529 -1.1562
   78SLPC  H16Y 7197   3.265   4.096   8.359  1.9258 -0.8728 -2.5187
   78SLPC  C317 7198   3.274   4.196   8.542 -0.4604 -0.1156 -0.0534
   78SLPC  H17X 7199   3.171   4.238   8.530 -0.9547 -1.6409 -1.4971
   78SLPC  H17Y 7200   3.328   4.275   8.598 -0.2294 -0.2088 -0.1484
   78SLPC  C318 7201   3.282   4.071   8.625 -0.0265 -0.2628 -0.0933
   78SLPC  H18X 7202   3.284   4.086   8.735  1.4769 -1.3008  0.0486
   78SLPC  H18Y 7203   3.386   4.039   8.601  1.0220  1.8003  1.4043
   78SLPC  H18Z 7204   3.204   3.995   8.601  1.0943 -0.8069 -2.2629
   79SLPC     N 7205   0.022   0.028   6.222 -0.0386 -0.0906  0.3688
   79SLPC   C13 7206  -0.093   0.047   6.131 -0.3111 -0.7444  0.0657
   79SLPC  H13A 7207  -0.058   0.075   6.032  0.1637  2.5738  1.0507
   79SLPC  H13B 7208  -0.165  -0.033   6.123 -1.4861  0.4453 -2.2510
   79SLPC  H13C 7209  -0.153   0.130   6.164  2.0445  1.0075  0.1549
   79SLPC   C14 7210   0.126   0.138   6.202  0.5369  0.4314 -0.5709
   79SLPC  H14A 7211   0.205   0.128   6.275  0.2712  0.9391 -0.2104
   79SLPC  H14B 7212   0.167   0.137   6.102  1.0935  2.0427 -0.3789
   79SLPC  H14C 7213   0.071   0.230   6.210  0.8490  0.6471 -0.8822
   79SLPC   C15 7214   0.089  -0.103   6.190  0.1444  0.2819 -0.0567
   79SLPC  H15A 7215   0.168  -0.116   6.262 -0.3216 -0.6219  0.3031
   79SLPC  H15B 7216   0.021  -0.186   6.202  1.7686 -1.1516 -0.3232
   79SLPC  H15C 7217   0.128  -0.111   6.089  0.5178 -1.3793  0.1734
   79SLPC   C12 7218  -0.031   0.025   6.361 -0.7347  0.3656 -0.4711
   79SLPC  H12A 7219  -0.119  -0.037   6.371  1.0009 -2.1657  0.0866
   79SLPC  H12B 7220  -0.062   0.127   6.378  0.8595  0.7707  0.1518
   79SLPC   C11 7221   0.071  -0.010   6.477 -0.2852 -0.2580  0.4143
   79SLPC  H11A 7222   0.075  -0.121   6.480 -1.5744 -0.3160  2.3102
   79SLPC  H11B 7223   0.022   0.019   6.573  0.8872 -1.9214  1.5763
   79SLPC     P 7224   0.321  -0.025   6.480 -0.2428  0.6926 -0.6524
   79SLPC   O13 7225   0.296  -0.151   6.400  0.1349 -0.2606 -0.1764
   79SLPC   O14 7226   0.433   0.059   6.448 -0.1800  0.9616 -0.2416
   79SLPC   O12 7227   0.198   0.061   6.474 -0.0307  0.1527 -0.2500
   79SLPC   O11 7228   0.337  -0.073   6.625  0.1689  0.1889 -0.1783
   79SLPC    C1 7229   0.292   0.011   6.734 -0.0960  0.4176  0.1576
   79SLPC    HA 7230   0.318   0.117   6.715  3.1373  0.2132  2.5965
   79SLPC    HB 7231   0.182  -0.002   6.747 -0.4139 -0.1918 -2.5967
   79SLPC    C2 7232   0.360  -0.030   6.866 -0.1127 -0.7604  0.6581
   79SLPC    HS 7233   0.469  -0.023   6.844  0.1678 -2.1049  1.5136
   79SLPC   O21 7234   0.322  -0.159   6.905  0.4800  0.4215 -0.3793
   79SLPC   C21 7235   0.416  -0.249   6.899  0.2510 -0.5718 -0.4209
   79SLPC   O22 7236   0.525  -0.238   6.846 -0.2352  0.9881  0.0749
   79SLPC   C22 7237   0.373  -0.373   6.979  0.2387  0.2516  0.1247
   79SLPC   H2R 7238   0.264  -0.368   6.998  0.2115  2.7325 -0.4676
   79SLPC   H2S 7239   0.379  -0.470   6.924 -0.2003 -0.6972  1.6642
   79SLPC    C3 7240   0.338   0.063   6.988  0.1087 -1.0737 -0.1459
   79SLPC    HX 7241   0.232   0.096   6.993  0.4864  0.1135  0.4390
   79SLPC    HY 7242   0.381   0.163   6.966 -0.2905 -1.1882 -1.4991
   79SLPC   O31 7243   0.398   0.023   7.111  0.0124 -0.1281 -0.3058
   79SLPC   C31 7244   0.314  -0.035   7.198 -0.2677 -0.3813  0.0415
   79SLPC   O32 7245   0.196  -0.058   7.187  0.6804 -0.1678 -0.0910
   79SLPC   C32 7246   0.392  -0.034   7.329  0.3126  0.0424  0.3661
   79SLPC   H2X 7247   0.434   0.069   7.336 -1.7208  0.8212  2.7369
   79SLPC   H2Y 7248   0.472  -0.110   7.343  1.0249  1.1184  2.6061
   79SLPC   C23 7249   0.461  -0.366   7.113  0.0729 -0.5987  0.1267
   79SLPC   H3R 7250   0.509  -0.267   7.128 -0.4289 -0.5081  1.2681
   79SLPC   H3S 7251   0.537  -0.445   7.093 -1.7489 -2.2266 -0.8117
   79SLPC   C24 7252   0.375  -0.393   7.242 -0.4487 -0.0040 -0.3744
   79SLPC   H4R 7253   0.311  -0.481   7.219  2.7744 -2.7436  0.3122
   79SLPC   H4S 7254   0.312  -0.304   7.261 -2.7799 -1.5492 -0.3344
   79SLPC   C25 7255   0.458  -0.434   7.365 -0.2344  0.0372  0.6202
   79SLPC   H5R 7256   0.534  -0.353   7.378  0.4721 -0.5472  0.2003
   79SLPC   H5S 7257   0.521  -0.523   7.345 -0.4615 -0.2317  1.0733
   79SLPC   C26 7258   0.373  -0.442   7.496  0.0783 -0.2537  0.0344
   79SLPC   H6R 7259   0.301  -0.527   7.496 -0.4502  0.1045 -2.4125
   79SLPC   H6S 7260   0.313  -0.349   7.498  1.5960  0.8640 -1.9164
   79SLPC   C27 7261   0.466  -0.451   7.613  0.1253  0.2039 -0.6319
   79SLPC   H7R 7262   0.528  -0.359   7.609  1.5477 -0.7538 -3.0194
   79SLPC   H7S 7263   0.522  -0.543   7.587 -2.5148 -1.6263 -0.2949
   79SLPC   C28 7264   0.390  -0.478   7.747 -0.5495 -0.6934 -0.4033
   79SLPC   H8R 7265   0.323  -0.566   7.744  0.2964 -1.3578 -0.1929
   79SLPC   H8S 7266   0.321  -0.391   7.761 -0.9078 -0.9069 -0.8312
   79SLPC   C29 7267   0.489  -0.503   7.864 -0.2137 -0.5546 -0.5616
   79SLPC   H9R 7268   0.567  -0.578   7.847  0.6986 -0.2604  1.9138
   79SLPC  C210 7269   0.485  -0.441   7.982  0.2330 -0.9792  0.2673
   79SLPC  H10R 7270   0.563  -0.462   8.057 -1.4873  0.7823  2.6778
   79SLPC  C211 7271   0.384  -0.334   8.029 -0.2760  0.0770  0.4970
   79SLPC  H11R 7272   0.307  -0.386   8.091 -1.2694  1.5397  0.5363
   79SLPC  H11S 7273   0.328  -0.300   7.939  1.2829 -0.0547 -0.5680
   79SLPC  C212 7274   0.451  -0.217   8.096  1.0295 -1.0438  0.1702
   79SLPC  H12R 7275   0.500  -0.149   8.025 -2.8131  1.6572 -0.2189
   79SLPC  C213 7276   0.447  -0.179   8.224 -0.6687  0.2052 -0.0352
   79SLPC  H13R 7277   0.504  -0.091   8.258  0.7272 -0.9797  0.7974
   79SLPC  C214 7278   0.382  -0.258   8.336  0.1031 -0.1624 -0.1920
   79SLPC  H14R 7279   0.323  -0.344   8.297 -1.7729  1.3506 -0.8834
   79SLPC  H14S 7280   0.304  -0.200   8.391 -0.9817  0.8853 -2.6888
   79SLPC  C215 7281   0.481  -0.317   8.439  0.8930  0.1480  0.5623
   79SLPC  H15R 7282   0.434  -0.399   8.497 -0.3833 -0.9590 -1.8687
   79SLPC  H15S 7283   0.508  -0.244   8.518  0.1499  0.0682  0.9052
   79SLPC  C216 7284   0.601  -0.396   8.376 -0.3567  0.4028  0.0357
   79SLPC  H16R 7285   0.664  -0.326   8.317  0.1846  0.6368  0.8655
   79SLPC  H16S 7286   0.555  -0.472   8.310 -0.9410  0.4675  0.3622
   79SLPC  C217 7287   0.695  -0.462   8.479  0.8828 -0.3691  0.8413
   79SLPC  H17R 7288   0.628  -0.518   8.548  1.8311 -2.9269 -0.1751
   79SLPC  H17S 7289   0.747  -0.375   8.525 -1.3932  2.6813 -1.8448
   79SLPC  C218 7290   0.786  -0.563   8.413  0.1859 -0.6470 -0.8565
   79SLPC  H18R 7291   0.831  -0.519   8.322  2.5207  0.7294  0.8414
   79SLPC  H18S 7292   0.716  -0.647   8.391  0.5463 -1.3242  0.4897
   79SLPC  H18T 7293   0.866  -0.596   8.483  0.8308 -0.6560 -1.5840
   79SLPC   C33 7294   0.300  -0.055   7.456 -0.5440  0.3060 -0.0843
   79SLPC   H3X 7295   0.236  -0.142   7.430  0.6416  0.4067 -4.0087
   79SLPC   H3Y 7296   0.227   0.026   7.476 -0.9901 -0.0981 -0.0535
   79SLPC   C34 7297   0.378  -0.081   7.582 -0.0616  0.3985 -0.0007
   79SLPC   H4X 7298   0.482  -0.115   7.562 -0.1700 -1.4195  2.2160
   79SLPC   H4Y 7299   0.339  -0.168   7.638 -0.1408  0.2302 -0.3165
   79SLPC   C35 7300   0.391   0.043   7.662 -0.3373  0.3418 -0.3111
   79SLPC   H5X 7301   0.290   0.063   7.703 -0.3522 -0.5850  0.1151
   79SLPC   H5Y 7302   0.420   0.127   7.595 -2.8700  1.1839 -0.4509
   79SLPC   C36 7303   0.498   0.036   7.770 -0.3369 -0.1990 -0.4322
   79SLPC   H6X 7304   0.599   0.044   7.723  0.4233 -3.7203  0.3621
   79SLPC   H6Y 7305   0.504  -0.069   7.806  1.7365 -0.6467 -1.9299
   79SLPC   C37 7306   0.472   0.128   7.882  1.4260 -0.8173 -0.5697
   79SLPC   H7X 7307   0.387   0.091   7.942 -0.6188  1.5282 -1.7906
   79SLPC   H7Y 7308   0.442   0.230   7.848  1.8712 -1.0514 -1.7084
   79SLPC   C38 7309   0.599   0.138   7.965 -0.2616 -0.4539 -0.5519
   79SLPC   H8X 7310   0.690   0.162   7.907  0.4892 -3.4883 -0.7696
   79SLPC   H8Y 7311   0.616   0.043   8.020 -0.7071  0.2699  0.8942
   79SLPC   C39 7312   0.584   0.235   8.083  0.0227 -0.0833  0.0903
   79SLPC   H9X 7313   0.478   0.232   8.116 -0.8355  2.0329 -2.1004
   79SLPC   H9Y 7314   0.593   0.343   8.056  0.1538 -0.0496  0.2631
   79SLPC  C310 7315   0.674   0.204   8.208 -0.1799  0.2460 -0.0415
   79SLPC  H10X 7316   0.784   0.214   8.190 -0.0607 -0.4250  0.2867
   79SLPC  H10Y 7317   0.650   0.097   8.226  1.1029  0.0360  0.5520
   79SLPC  C311 7318   0.633   0.279   8.337  0.1413  1.0974  0.5113
   79SLPC  H11X 7319   0.706   0.266   8.420  1.7779  1.1866 -0.8389
   79SLPC  H11Y 7320   0.535   0.235   8.364  0.1692  1.3086  0.9693
   79SLPC  C312 7321   0.620   0.432   8.318 -0.4583  0.7619 -0.0780
   79SLPC  H12X 7322   0.536   0.469   8.257  1.0218 -1.6858 -3.9595
   79SLPC  H12Y 7323   0.710   0.474   8.269 -0.7078 -2.0477 -3.3380
   79SLPC  C313 7324   0.616   0.493   8.456  0.6175 -0.7270 -0.5581
   79SLPC  H13X 7325   0.716   0.487   8.503  0.3232  2.1454  0.6362
   79SLPC  H13Y 7326   0.534   0.454   8.520  0.4052 -0.8787 -0.9152
   79SLPC  C314 7327   0.585   0.642   8.437  0.3249 -0.4555  0.2199
   79SLPC  H14X 7328   0.477   0.662   8.416 -0.7254  1.7827  5.8509
   79SLPC  H14Y 7329   0.654   0.690   8.365  0.3419 -1.2948 -0.3327
   79SLPC  C315 7330   0.614   0.720   8.569  0.7712  0.5294 -0.5304
   79SLPC  H15X 7331   0.723   0.704   8.578  0.5554 -0.5614  0.4222
   79SLPC  H15Y 7332   0.565   0.671   8.656  1.3453  0.1088 -0.4443
   79SLPC  C316 7333   0.570   0.867   8.564 -0.5580 -0.0062 -0.6051
   79SLPC  H16X 7334   0.460   0.872   8.549 -0.3712  0.4431 -1.9286
   79SLPC  H16Y 7335   0.609   0.926   8.479  2.5616  0.0288  0.6969
   79SLPC  C317 7336   0.620   0.943   8.688 -0.1875 -0.5313  0.7008
   79SLPC  H17X 7337   0.644   0.880   8.776  1.2726  0.9832  1.4221
   79SLPC  H17Y 7338   0.545   1.013   8.730  0.5034  0.0140  1.0477
   79SLPC  C318 7339   0.737   1.035   8.658  0.0590 -0.5313 -0.1137
   79SLPC  H18X 7340   0.744   1.109   8.741  1.0653  0.6338 -1.1981
   79SLPC  H18Y 7341   0.717   1.101   8.571 -0.4685 -1.2973 -0.5876
   79SLPC  H18Z 7342   0.834   0.982   8.649  0.1729 -0.1972 -0.9973
   80SLPC     N 7343   1.178   3.519   6.473  0.4570 -0.0767  0.3033
   80SLPC   C13 7344   1.269   3.501   6.357  0.1375  0.1893 -0.3080
   80SLPC  H13A 7345   1.239   3.411   6.306  1.3161  0.6403 -1.8829
   80SLPC  H13B 7346   1.258   3.587   6.293  0.9014  1.8976  1.7184
   80SLPC  H13C 7347   1.373   3.497   6.386  0.3183  0.3536 -0.9185
   80SLPC   C14 7348   1.187   3.384   6.547 -0.6860 -0.0545 -0.1056
   80SLPC  H14A 7349   1.182   3.297   6.483  1.3947 -0.7610  0.6086
   80SLPC  H14B 7350   1.284   3.376   6.593 -0.9213 -0.2907  0.3523
   80SLPC  H14C 7351   1.106   3.380   6.619 -1.5174  0.1850 -1.0051
   80SLPC   C15 7352   1.043   3.547   6.406 -0.4638 -0.1851 -0.2894
   80SLPC  H15A 7353   1.042   3.650   6.373  2.6895 -0.6262 -2.1695
   80SLPC  H15B 7354   1.017   3.480   6.325 -2.9819 -0.9489  1.0559
   80SLPC  H15C 7355   0.965   3.538   6.480  0.9034  0.7158  1.3401
   80SLPC   C12 7356   1.223   3.631   6.572  0.9809 -0.2480  0.1674
   80SLPC  H12A 7357   1.220   3.727   6.523 -1.0356 -0.0153  0.6589
   80SLPC  H12B 7358   1.321   3.599   6.602  0.0579 -1.7280  1.7938
   80SLPC   C11 7359   1.135   3.662   6.700 -0.1014  0.3174 -1.0429
   80SLPC  H11A 7360   1.184   3.746   6.753 -1.3761  1.7409 -2.0455
   80SLPC  H11B 7361   1.130   3.577   6.772  1.0671 -0.1038 -1.4399
   80SLPC     P 7362   0.971   3.858   6.613  0.4275 -0.1790  0.1653
   80SLPC   O13 7363   1.011   3.865   6.475  0.1072  0.4655 -0.3370
   80SLPC   O14 7364   0.827   3.894   6.635  0.0722  0.0177 -0.2266
   80SLPC   O12 7365   0.999   3.704   6.668 -0.1793  0.3189 -0.1037
   80SLPC   O11 7366   1.057   3.957   6.696 -0.2059  0.4641 -0.7274
   80SLPC    C1 7367   1.020   3.984   6.832 -0.0996 -0.7778  0.3982
   80SLPC    HA 7368   0.938   4.059   6.831  0.2892 -0.3546  0.1413
   80SLPC    HB 7369   0.977   3.901   6.893 -0.7558 -0.4472  0.3933
   80SLPC    C2 7370   1.142   4.035   6.913 -0.2390 -0.4034  0.4298
   80SLPC    HS 7371   1.211   4.096   6.850  0.6666 -2.0006 -0.1890
   80SLPC   O21 7372   1.204   3.921   6.974 -0.5772  0.9749 -0.3820
   80SLPC   C21 7373   1.340   3.930   6.974 -0.3635  0.4000  0.1884
   80SLPC   O22 7374   1.407   4.023   6.934 -0.7992 -0.2155 -0.3950
   80SLPC   C22 7375   1.395   3.801   7.034  0.0977  0.2968  0.5416
   80SLPC   H2R 7376   1.315   3.765   7.102 -1.2995  3.2985  0.6077
   80SLPC   H2S 7377   1.411   3.727   6.952 -0.9604  0.2420  0.3654
   80SLPC    C3 7378   1.095   4.132   7.031  0.2196  0.1366  0.1156
   80SLPC    HX 7379   1.022   4.202   6.986 -2.3692 -1.2071  2.0238
   80SLPC    HY 7380   1.177   4.198   7.067  0.0601 -0.2573  1.2415
   80SLPC   O31 7381   1.037   4.057   7.140 -0.2781 -0.0397  0.2478
   80SLPC   C31 7382   1.128   4.034   7.241  0.7181  0.4555  0.1964
   80SLPC   O32 7383   1.239   4.083   7.246  0.4715 -0.0599  0.3018
   80SLPC   C32 7384   1.062   3.954   7.346 -1.1060 -0.2636 -0.1866
   80SLPC   H2X 7385   1.071   3.848   7.312 -1.9713 -1.6706  3.4907
   80SLPC   H2Y 7386   0.954   3.978   7.351 -0.6874  1.5290  1.5653
   80SLPC   C23 7387   1.529   3.824   7.120 -0.1002  0.1829  0.1935
   80SLPC   H3R 7388   1.599   3.880   7.054 -0.6796  1.3776  0.5603
   80SLPC   H3S 7389   1.561   3.718   7.128 -0.9147 -0.0888 -0.0423
   80SLPC   C24 7390   1.514   3.879   7.263  0.4061 -0.1899  0.1870
   80SLPC   H4R 7391   1.411   3.851   7.293  0.8585 -2.5228 -0.2105
   80SLPC   H4S 7392   1.509   3.990   7.265  0.1544 -0.1939  2.4612
   80SLPC   C25 7393   1.602   3.826   7.378  0.1351  0.3366  0.5881
   80SLPC   H5R 7394   1.708   3.847   7.350  0.2217 -0.5257  0.2380
   80SLPC   H5S 7395   1.591   3.716   7.388 -1.2038  0.5283  1.4859
   80SLPC   C26 7396   1.571   3.896   7.507 -0.0139 -0.5429 -0.0641
   80SLPC   H6R 7397   1.472   3.855   7.536  1.2621 -2.8631  1.2882
   80SLPC   H6S 7398   1.559   4.005   7.493 -0.5256 -0.3805  1.4211
   80SLPC   C27 7399   1.676   3.862   7.617 -0.5833 -0.1548 -0.3464
   80SLPC   H7R 7400   1.767   3.922   7.595 -0.4187  0.0362  0.7814
   80SLPC   H7S 7401   1.711   3.756   7.619 -1.4023 -0.4242  0.0995
   80SLPC   C28 7402   1.625   3.909   7.760 -0.2752 -0.0879  0.5110
   80SLPC   H8R 7403   1.555   3.829   7.791 -0.7616 -0.2557 -0.9454
   80SLPC   H8S 7404   1.583   4.012   7.756  0.6086  0.6034  4.4820
   80SLPC   C29 7405   1.753   3.911   7.847  0.4539 -1.0931 -0.8519
   80SLPC   H9R 7406   1.836   3.951   7.787  0.9100 -1.1264 -0.2509
   80SLPC  C210 7407   1.774   3.876   7.981  0.1637 -0.1262 -0.5882
   80SLPC  H10R 7408   1.868   3.912   8.025 -0.3441 -0.8346  1.1961
   80SLPC  C211 7409   1.661   3.837   8.075 -0.2069  0.5367 -0.7202
   80SLPC  H11R 7410   1.683   3.735   8.115  0.5083  0.9861  0.0720
   80SLPC  H11S 7411   1.565   3.827   8.019 -0.9408 -1.0871  0.7381
   80SLPC  C212 7412   1.637   3.930   8.196 -0.2957 -0.1866  0.1881
   80SLPC  H12R 7413   1.575   4.018   8.172 -1.5331 -1.2397 -0.6083
   80SLPC  C213 7414   1.666   3.900   8.322 -0.2258  0.4492 -0.7401
   80SLPC  H13R 7415   1.628   3.964   8.403 -1.1690 -1.7267  0.6408
   80SLPC  C214 7416   1.727   3.775   8.377 -0.1764 -0.2170  0.0206
   80SLPC  H14R 7417   1.713   3.692   8.304  1.3712  1.3072 -2.1308
   80SLPC  H14S 7418   1.684   3.751   8.476 -2.7047  2.3178 -0.3409
   80SLPC  C215 7419   1.873   3.776   8.409  0.2744  0.7800 -0.2370
   80SLPC  H15R 7420   1.947   3.800   8.329  0.5557 -0.5136 -0.3854
   80SLPC  H15S 7421   1.899   3.677   8.452 -3.0535 -1.1597 -2.2412
   80SLPC  C216 7422   1.922   3.875   8.519 -0.8621 -0.2744  0.4108
   80SLPC  H16R 7423   1.873   3.970   8.490  0.3744  0.5530  0.9921
   80SLPC  H16S 7424   2.033   3.876   8.525 -0.8920 -0.9406  1.2495
   80SLPC  C217 7425   1.873   3.846   8.663  0.3520  0.2704  0.3548
   80SLPC  H17R 7426   1.771   3.888   8.675  0.6388  0.7966  0.9636
   80SLPC  H17S 7427   1.929   3.900   8.742  1.5156 -2.2184  1.3129
   80SLPC  C218 7428   1.867   3.696   8.722 -0.3764 -0.0069 -0.1787
   80SLPC  H18R 7429   1.967   3.649   8.707 -0.8909 -1.5891  1.0631
   80SLPC  H18S 7430   1.797   3.639   8.657  0.1108  0.7620 -1.4217
   80SLPC  H18T 7431   1.839   3.680   8.828 -0.2143 -0.9980 -0.2778
   80SLPC   C33 7432   1.130   3.941   7.486  0.5464 -0.0922  0.2008
   80SLPC   H3X 7433   1.115   4.045   7.520 -1.0086 -0.2823  0.1637
   80SLPC   H3Y 7434   1.236   3.909   7.485  0.5944  0.0743 -0.2816
   80SLPC   C34 7435   1.061   3.837   7.579  0.3379  0.1328  0.6931
   80SLPC   H4X 7436   1.052   3.746   7.516 -0.2045  0.5236  0.1987
   80SLPC   H4Y 7437   0.954   3.862   7.595  0.3486  0.8228 -0.2556
   80SLPC   C35 7438   1.123   3.816   7.715  0.3958  0.3025 -0.1821
   80SLPC   H5X 7439   1.110   3.913   7.767 -1.5261 -0.5917  1.1326
   80SLPC   H5Y 7440   1.229   3.788   7.698  0.0540 -0.0979 -1.8087
   80SLPC   C36 7441   1.056   3.706   7.795  0.2851 -0.2101  0.3345
   80SLPC   H6X 7442   1.066   3.618   7.729  1.7624  0.7427 -0.7953
   80SLPC   H6Y 7443   0.950   3.737   7.799  0.5961  1.3370 -1.8049
   80SLPC   C37 7444   1.122   3.684   7.931  0.1139 -0.3309 -0.1845
   80SLPC   H7X 7445   1.053   3.620   7.990  0.9021 -3.1483 -2.1038
   80SLPC   H7Y 7446   1.118   3.788   7.968  2.9443 -0.7540  1.5602
   80SLPC   C38 7447   1.265   3.638   7.921  0.4997  0.1527 -0.1839
   80SLPC   H8X 7448   1.319   3.722   7.872  0.7764 -0.1535 -0.4107
   80SLPC   H8Y 7449   1.276   3.552   7.851 -0.7937  1.0014 -1.4879
   80SLPC   C39 7450   1.348   3.630   8.045  0.2517 -0.3020  0.0308
   80SLPC   H9X 7451   1.329   3.723   8.103  0.0949  0.1899 -0.8041
   80SLPC   H9Y 7452   1.452   3.625   8.006  0.1861  0.5445 -0.2881
   80SLPC  C310 7453   1.324   3.514   8.142  0.0923  0.5177  0.8017
   80SLPC  H10X 7454   1.341   3.417   8.089  3.5474  0.6646  1.3756
   80SLPC  H10Y 7455   1.219   3.511   8.176 -0.2620 -0.8780 -0.3129
   80SLPC  C311 7456   1.425   3.512   8.262 -0.0480 -0.4246  0.0761
   80SLPC  H11X 7457   1.424   3.616   8.299 -0.9710 -0.7034  0.8810
   80SLPC  H11Y 7458   1.533   3.507   8.235  0.3149  1.8215  0.8843
   80SLPC  C312 7459   1.402   3.414   8.381 -0.2061  0.1053 -0.3464
   80SLPC  H12X 7460   1.460   3.322   8.360  0.2620  1.0662 -4.0072
   80SLPC  H12Y 7461   1.295   3.385   8.380 -0.5495  1.2939 -0.6438
   80SLPC  C313 7462   1.463   3.483   8.506 -0.1668  0.7446 -0.3452
   80SLPC  H13X 7463   1.417   3.583   8.521 -1.5308  0.7351 -3.6811
   80SLPC  H13Y 7464   1.571   3.495   8.486  0.5694 -2.5939  0.9300
   80SLPC  C314 7465   1.457   3.391   8.630  0.4648  0.7183  0.0095
   80SLPC  H14X 7466   1.517   3.443   8.708 -0.5149  0.4423  0.9738
   80SLPC  H14Y 7467   1.501   3.299   8.586 -1.2211 -0.0206 -0.2280
   80SLPC  C315 7468   1.312   3.356   8.678 -0.1735 -0.6707  0.2212
   80SLPC  H15X 7469   1.322   3.270   8.749 -2.2097 -0.0895  1.2796
   80SLPC  H15Y 7470   1.241   3.323   8.599 -0.3620  0.0908  0.0657
   80SLPC  C316 7471   1.260   3.483   8.756  0.0715  0.6040 -0.1994
   80SLPC  H16X 7472   1.272   3.569   8.687  2.1828  0.7324  0.2578
   80SLPC  H16Y 7473   1.313   3.508   8.851 -0.5928  1.0805  0.0520
   80SLPC  C317 7474   1.109   3.448   8.792  0.3695  0.4644 -0.5726
   80SLPC  H17X 7475   1.116   3.338   8.810  0.7186  0.6380  0.3881
   80SLPC  H17Y 7476   1.038   3.456   8.707  0.6075  2.6849 -0.6237
   80SLPC  C318 7477   1.054   3.520   8.920  0.4342 -0.3915  0.3148
   80SLPC  H18X 7478   0.963   3.468   8.954 -0.4899 -1.1001 -2.8646
   80SLPC  H18Y 7479   1.038   3.628   8.900  1.3266 -0.3617 -0.3308
   80SLPC  H18Z 7480   1.132   3.510   8.999 -1.1066 -0.6798  1.8497
   81SAPS     N 7481   3.979   4.831  11.141 -0.6720  0.8989 -0.8963
   81SAPS   HN1 7482   4.081   4.830  11.121 -0.1514  2.4623  1.2461
   81SAPS   HN2 7483   3.950   4.919  11.093 -1.2378 -0.0185 -2.2939
   81SAPS   HN3 7484   3.961   4.833  11.244 -1.6641  0.5134 -1.0446
   81SAPS   C12 7485   3.909   4.718  11.076  0.2499  0.3685 -0.2886
   81SAPS  H12A 7486   3.948   4.631  11.126 -0.4887 -0.7535 -1.5898
   81SAPS   C13 7487   3.752   4.724  11.088  0.4611 -0.1545 -0.5807
   81SAPS  O13A 7488   3.691   4.823  11.146  0.1431  0.0887 -0.0716
   81SAPS  O13B 7489   3.691   4.631  11.029  0.4877  0.1926 -0.5621
   81SAPS   C11 7490   3.954   4.704  10.929 -0.3185 -0.2670 -0.3434
   81SAPS  H11A 7491   3.959   4.800  10.874 -2.1242  0.3825  0.5349
   81SAPS  H11B 7492   3.878   4.650  10.869 -1.7647 -1.6873  2.5448
   81SAPS     P 7493   4.213   4.717  10.902  0.2744 -0.3321 -0.4165
   81SAPS   O13 7494   4.213   4.840  10.992 -0.8295  0.1934  0.5393
   81SAPS   O14 7495   4.331   4.626  10.912  0.3867 -0.5141  0.3710
   81SAPS   O12 7496   4.082   4.640  10.921 -0.2569  0.0539  0.2362
   81SAPS   O11 7497   4.206   4.781  10.752  0.5103  0.1195 -0.5715
   81SAPS    C1 7498   4.204   4.704  10.634  0.3539 -0.9188  0.1740
   81SAPS    HA 7499   4.162   4.603  10.653 -2.8883  0.2310 -0.2927
   81SAPS    HB 7500   4.140   4.752  10.557  1.1966  1.5011  0.8648
   81SAPS    C2 7501   4.338   4.687  10.556  0.4829  0.0547 -0.1286
   81SAPS    HS 7502   4.415   4.640  10.622 -0.9551 -1.1021  0.7687
   81SAPS   O21 7503   4.374   4.820  10.517 -0.2866 -0.1958  0.2575
   81SAPS   C21 7504   4.508   4.833  10.507  0.8492 -0.5887  0.0086
   81SAPS   O22 7505   4.592   4.750  10.527 -0.3127  0.4008 -0.1838
   81SAPS   C22 7506   4.532   4.974  10.463 -0.0275  0.8949 -0.1730
   81SAPS   H2R 7507   4.472   5.036  10.533  1.9589  0.0943  2.4139
   81SAPS   H2S 7508   4.636   5.010  10.473 -0.0136  1.0514 -0.8117
   81SAPS    C3 7509   4.307   4.600  10.430 -0.7416 -0.1317 -0.0976
   81SAPS    HX 7510   4.224   4.639  10.369 -1.2394 -3.9051 -2.1782
   81SAPS    HY 7511   4.286   4.500  10.474 -1.1467  0.2525  0.5987
   81SAPS   O31 7512   4.425   4.582  10.350 -0.2732  0.0724  0.0154
   81SAPS   C31 7513   4.437   4.488  10.265 -0.6087 -0.0600 -0.1636
   81SAPS   O32 7514   4.359   4.398  10.240  0.3525 -0.4399  0.4193
   81SAPS   C32 7515   4.577   4.502  10.195 -0.4536  0.0818  0.1105
   81SAPS   H2X 7516   4.662   4.479  10.262  1.3442  0.6691 -1.8723
   81SAPS   H2Y 7517   4.595   4.610  10.174  0.5216 -0.0791  0.0620
   81SAPS   C23 7518   4.491   5.008  10.319  0.6729  0.3977 -0.4652
   81SAPS   H3R 7519   4.467   5.116  10.310  0.3283  0.2975 -0.7986
   81SAPS   H3S 7520   4.397   4.962  10.282  1.3549 -1.4017 -0.0981
   81SAPS   C24 7521   4.601   4.973  10.219  0.3780 -0.2049 -0.0702
   81SAPS   H4R 7522   4.637   4.867  10.215  0.3166 -0.3191  1.6855
   81SAPS   H4S 7523   4.692   5.033  10.242  1.9407 -1.4845 -2.3877
   81SAPS   C25 7524   4.570   5.024  10.081 -0.3217  0.0147 -0.3869
   81SAPS   H5R 7525   4.468   5.060  10.062 -0.6969  0.6537  2.3824
   81SAPS   C26 7526   4.664   5.036   9.989  0.1599  0.0477 -0.5803
   81SAPS   H6R 7527   4.631   5.074   9.891 -0.2439  1.8436  0.2142
   81SAPS   C27 7528   4.811   4.994   9.995 -0.7110 -0.7436  0.7347
   81SAPS   H7R 7529   4.822   4.893   9.951 -0.2539  0.0096 -0.9563
   81SAPS   H7S 7530   4.844   4.978  10.100 -0.4969  0.1203  0.8043
   81SAPS   C28 7531   4.897   5.104   9.932  0.0133 -0.2709  0.7528
   81SAPS   H8R 7532   4.903   5.203   9.981  3.7820  0.2361 -0.4095
   81SAPS   C29 7533   4.970   5.084   9.825 -0.3945  1.0857 -0.0770
   81SAPS   H9R 7534   5.033   5.172   9.806  3.9763 -1.5486  0.7367
   81SAPS  C210 7535   5.001   4.957   9.750 -0.0133  0.4352  0.5509
   81SAPS  H10R 7536   4.924   4.948   9.670  0.5200  1.3128 -0.0838
   81SAPS  H10S 7537   4.995   4.861   9.805 -0.1608 -1.0794 -1.9630
   81SAPS  C211 7538   5.138   4.959   9.686  0.2492 -0.0719 -0.4328
   81SAPS  H11R 7539   5.208   4.919   9.761 -2.6513 -1.4752  1.7101
   81SAPS  C212 7540   5.162   4.981   9.559 -0.5518 -1.0739  0.4989
   81SAPS  H12R 7541   5.265   4.975   9.522 -0.0025  0.1865  1.7362
   81SAPS  C213 7542   5.065   5.030   9.460  0.1650  0.6542  0.1156
   81SAPS  H13R 7543   4.976   5.082   9.501  0.3208  0.1635  1.1053
   81SAPS  H13S 7544   5.015   4.943   9.411 -1.0510  0.2089  2.0386
   81SAPS  C214 7545   5.136   5.115   9.356 -0.4849 -0.6861 -0.7317
   81SAPS  H14R 7546   5.145   5.221   9.386 -0.0044 -1.1104  0.6916
   81SAPS  C215 7547   5.195   5.077   9.242 -0.3978 -0.0408 -0.4444
   81SAPS  H15R 7548   5.237   5.149   9.171 -1.1990  0.3384 -0.5437
   81SAPS  C216 7549   5.194   4.931   9.194 -0.1360 -0.0811 -0.2760
   81SAPS  H16R 7550   5.191   4.858   9.278  1.3334  1.2513  0.9885
   81SAPS  H16S 7551   5.285   4.903   9.137  0.6442  0.3303  0.7421
   81SAPS  C217 7552   5.086   4.882   9.092  0.2914 -1.2408 -0.2627
   81SAPS  H17R 7553   4.992   4.882   9.151 -0.0285  2.0145 -0.5566
   81SAPS  H17S 7554   5.110   4.780   9.054 -2.6028 -1.8865 -0.5638
   81SAPS  C218 7555   5.083   4.965   8.967 -0.4042 -0.4573  0.7462
   81SAPS  H18R 7556   5.186   4.971   8.925 -1.0128 -5.1912 -2.1408
   81SAPS  H18S 7557   5.036   5.064   8.986 -0.7127  0.1114 -2.3449
   81SAPS  C219 7558   5.019   4.899   8.845  0.9136 -0.3091 -0.1829
   81SAPS  H19R 7559   4.909   4.900   8.859  0.9351  1.6031  0.0828
   81SAPS  H19S 7560   5.059   4.795   8.844  1.9398  0.0444  1.0664
   81SAPS  C220 7561   5.062   4.961   8.715 -0.3612  0.2401  0.3466
   81SAPS  H20R 7562   5.047   4.885   8.636 -0.3751  0.9903 -0.3832
   81SAPS  H20S 7563   5.171   4.983   8.714 -0.2187 -0.4049 -1.4448
   81SAPS  H20T 7564   5.016   5.056   8.681  0.2098 -0.2129 -1.8859
   81SAPS   C33 7565   4.573   4.433  10.058  0.0170  0.3672  0.0219
   81SAPS   H3X 7566   4.490   4.478  10.000 -1.5927 -0.9181  1.2063
   81SAPS   H3Y 7567   4.558   4.324  10.077  0.3518  0.1467 -0.9668
   81SAPS   C34 7568   4.697   4.450   9.977 -1.5966 -0.0598  0.8424
   81SAPS   H4X 7569   4.698   4.373   9.896 -1.8729 -0.9946  1.7057
   81SAPS   H4Y 7570   4.779   4.425  10.047 -0.2090  1.8999 -0.0140
   81SAPS   C35 7571   4.714   4.589   9.914  0.3169 -0.1140 -0.0114
   81SAPS   H5X 7572   4.811   4.592   9.860  1.0062  2.1539  1.2401
   81SAPS   H5Y 7573   4.737   4.653  10.002 -0.1401  0.4175 -0.2730
   81SAPS   C36 7574   4.595   4.634   9.825  0.5985  0.5824 -1.1567
   81SAPS   H6X 7575   4.512   4.654   9.896 -0.1631 -0.1593 -1.8147
   81SAPS   H6Y 7576   4.557   4.550   9.763  1.4609 -1.1332  0.5431
   81SAPS   C37 7577   4.631   4.750   9.740 -0.0121 -0.3984  0.6586
   81SAPS   H7X 7578   4.720   4.719   9.680 -0.4432  0.4640 -0.4606
   81SAPS   H7Y 7579   4.666   4.835   9.801  0.6583 -0.2722  0.1127
   81SAPS   C38 7580   4.520   4.779   9.639 -0.6805  0.4094  0.2129
   81SAPS   H8X 7581   4.427   4.814   9.688  0.0934 -0.1486  2.1664
   81SAPS   H8Y 7582   4.497   4.687   9.580 -0.7076  0.7787 -0.3636
   81SAPS   C39 7583   4.555   4.894   9.540 -0.1010  0.9706 -0.2462
   81SAPS   H9X 7584   4.477   4.901   9.462 -0.7207  0.4489  0.3135
   81SAPS   H9Y 7585   4.650   4.868   9.490 -0.2658  0.4013 -0.2630
   81SAPS  C310 7586   4.573   5.029   9.598 -0.0087  0.5057 -0.6703
   81SAPS  H10X 7587   4.669   5.033   9.654 -0.1240  2.6352 -0.5255
   81SAPS  H10Y 7588   4.494   5.049   9.673  0.7196 -3.3924  1.3815
   81SAPS  C311 7589   4.561   5.155   9.510  0.5433 -0.0208  0.1216
   81SAPS  H11X 7590   4.573   5.234   9.588  2.7034  0.1033 -0.2828
   81SAPS  H11Y 7591   4.454   5.159   9.479  0.2806  1.4662  1.1234
   81SAPS  C312 7592   4.666   5.186   9.405  0.7260  0.1822  0.2899
   81SAPS  H12X 7593   4.762   5.149   9.447  1.2512  1.6806  0.4577
   81SAPS  H12Y 7594   4.678   5.292   9.374  1.0957 -0.1241 -0.6609
   81SAPS  C313 7595   4.638   5.117   9.269  0.3255 -0.0438 -0.8290
   81SAPS  H13X 7596   4.536   5.151   9.243 -0.2720  1.2958  2.6175
   81SAPS  H13Y 7597   4.652   5.011   9.299  1.0915  1.1052  3.7795
   81SAPS  C314 7598   4.731   5.170   9.162 -0.2474  0.5699 -0.3436
   81SAPS  H14X 7599   4.835   5.147   9.196 -0.3294 -0.2106 -0.5984
   81SAPS  H14Y 7600   4.727   5.281   9.151  1.4493  0.5802 -1.2725
   81SAPS  C315 7601   4.720   5.100   9.025  0.1800  0.3652 -0.4311
   81SAPS  H15X 7602   4.708   4.990   9.037  0.5106  0.3456 -0.2795
   81SAPS  H15Y 7603   4.814   5.109   8.967  0.5773 -1.2280 -0.0759
   81SAPS  C316 7604   4.596   5.144   8.941  0.4179  0.2527  0.1372
   81SAPS  H16X 7605   4.616   5.253   8.927  0.5069  0.1913 -0.2367
   81SAPS  H16Y 7606   4.509   5.128   9.008  0.9047 -2.5564  0.2167
   81SAPS  C317 7607   4.576   5.069   8.809  0.3553 -0.2018  0.2182
   81SAPS  H17X 7608   4.482   5.105   8.760 -0.1975 -2.0239 -0.1198
   81SAPS  H17Y 7609   4.560   4.961   8.829 -2.9645 -0.0705 -0.9992
   81SAPS  C318 7610   4.690   5.070   8.709 -0.1422 -0.3998 -0.2897
   81SAPS  H18X 7611   4.694   5.166   8.653 -0.1282 -1.0090 -1.3655
   81SAPS  H18Y 7612   4.670   4.988   8.636  0.4855 -1.0053  0.2033
   81SAPS  H18Z 7613   4.791   5.071   8.755  0.0460 -2.0230 -0.5946
   82SAPS     N 7614   3.626   4.431  11.188  0.0216 -0.1057  0.3054
   82SAPS   HN1 7615   3.591   4.495  11.262 -1.3836  0.3783 -0.7266
   82SAPS   HN2 7616   3.711   4.379  11.216 -0.5519 -1.0568  0.3529
   82SAPS   HN3 7617   3.646   4.492  11.107 -0.0417 -0.1321  0.2697
   82SAPS   C12 7618   3.520   4.330  11.151 -0.2935  0.6018  0.0804
   82SAPS  H12A 7619   3.581   4.247  11.117 -0.1007  1.3936 -1.6431
   82SAPS   C13 7620   3.426   4.295  11.265  0.1006  0.2176 -0.5480
   82SAPS  O13A 7621   3.437   4.341  11.382 -0.0146  0.1356  0.0997
   82SAPS  O13B 7622   3.372   4.179  11.254  0.1288 -0.0362 -0.3434
   82SAPS   C11 7623   3.431   4.381  11.032 -0.2013  0.4590 -0.1576
   82SAPS  H11A 7624   3.366   4.465  11.067  0.0625  0.3206  0.6828
   82SAPS  H11B 7625   3.346   4.311  11.017  0.6144 -0.8789  1.2563
   82SAPS     P 7626   3.582   4.304  10.824 -0.0990  0.2918 -0.1737
   82SAPS   O13 7627   3.713   4.352  10.783 -0.1948 -0.8446  0.0716
   82SAPS   O14 7628   3.576   4.172  10.895  0.0156  0.0188 -0.2047
   82SAPS   O12 7629   3.503   4.416  10.914  0.2186 -0.2497 -0.0018
   82SAPS   O11 7630   3.499   4.294  10.691 -0.1770 -0.0201 -0.1253
   82SAPS    C1 7631   3.540   4.193  10.594  0.4070  0.1010  0.1167
   82SAPS    HA 7632   3.580   4.097  10.635 -2.6088 -0.8119  1.1955
   82SAPS    HB 7633   3.445   4.147  10.558 -0.3193  1.2708  0.4898
   82SAPS    C2 7634   3.624   4.249  10.474 -0.3124  0.2063 -0.5114
   82SAPS    HS 7635   3.726   4.277  10.508 -0.4755 -1.4921  1.6072
   82SAPS   O21 7636   3.552   4.351  10.400 -0.0474 -0.7855 -0.2911
   82SAPS   C21 7637   3.626   4.420  10.317 -0.1994 -0.7824  0.1119
   82SAPS   O22 7638   3.747   4.419  10.309  0.3335 -0.1035 -0.3257
   82SAPS   C22 7639   3.536   4.489  10.215  1.1809  0.0192 -0.6414
   82SAPS   H2R 7640   3.579   4.481  10.113  0.5871 -1.1929 -0.8086
   82SAPS   H2S 7641   3.449   4.421  10.206  2.5821 -1.6651 -2.0754
   82SAPS    C3 7642   3.664   4.137  10.368 -0.2999 -0.1569 -0.4351
   82SAPS    HX 7643   3.732   4.063  10.414 -0.2637 -1.1312 -1.9850
   82SAPS    HY 7644   3.719   4.173  10.278  1.4517 -2.3486 -0.3318
   82SAPS   O31 7645   3.542   4.060  10.336  0.1930  0.0702 -0.5913
   82SAPS   C31 7646   3.495   4.067  10.219 -0.3492  0.1409 -0.2770
   82SAPS   O32 7647   3.548   4.129  10.128  0.0720 -0.1697 -0.0096
   82SAPS   C32 7648   3.362   3.991  10.206 -0.2385 -0.2093  0.0429
   82SAPS   H2X 7649   3.293   4.059  10.151  1.3875  1.3016 -0.2218
   82SAPS   H2Y 7650   3.328   3.966  10.308 -1.3703 -0.6821 -0.4309
   82SAPS   C23 7651   3.497   4.636  10.246 -1.0509 -0.3387 -0.0017
   82SAPS   H3R 7652   3.583   4.697  10.279 -1.5678  0.5445 -0.2491
   82SAPS   H3S 7653   3.431   4.625  10.334 -2.1998  0.1703 -0.7732
   82SAPS   C24 7654   3.412   4.705  10.138 -0.4814  0.3175 -0.1343
   82SAPS   H4R 7655   3.475   4.750  10.058  1.3257 -0.0934  0.9976
   82SAPS   H4S 7656   3.381   4.797  10.193  1.6950  0.6348  0.6652
   82SAPS   C25 7657   3.289   4.633  10.089  0.5233 -0.0009 -0.4698
   82SAPS   H5R 7658   3.200   4.658  10.149 -0.8664 -0.9193 -2.0554
   82SAPS   C26 7659   3.278   4.557   9.977  0.6922 -0.1318 -0.1773
   82SAPS   H6R 7660   3.180   4.512   9.959  1.2184 -0.9670 -1.0102
   82SAPS   C27 7661   3.385   4.524   9.880  0.8264  0.0214 -0.0543
   82SAPS   H7R 7662   3.482   4.562   9.919  0.8553 -2.2319  2.2893
   82SAPS   H7S 7663   3.362   4.573   9.783  0.3327  1.6012  0.8273
   82SAPS   C28 7664   3.413   4.379   9.862  0.0790  0.6341 -0.4495
   82SAPS   H8R 7665   3.388   4.315   9.948 -0.7889  1.3077 -0.1843
   82SAPS   C29 7666   3.458   4.318   9.752  0.0618  0.2503  0.5686
   82SAPS   H9R 7667   3.458   4.208   9.754  1.1316  0.2385  1.3410
   82SAPS  C210 7668   3.486   4.372   9.612  0.1896 -0.4326  0.4318
   82SAPS  H10R 7669   3.524   4.282   9.557 -3.1495 -3.2811  2.3583
   82SAPS  H10S 7670   3.562   4.452   9.622  0.3874 -0.6334  0.5310
   82SAPS  C211 7671   3.372   4.419   9.532 -0.6280  0.0314 -0.1406
   82SAPS  H11R 7672   3.270   4.384   9.555 -0.4447 -2.5222 -2.6552
   82SAPS  C212 7673   3.380   4.493   9.419  0.4466  0.5687  0.5070
   82SAPS  H12R 7674   3.285   4.522   9.372  0.2167 -0.0789  0.5551
   82SAPS  C213 7675   3.499   4.544   9.345 -0.1967 -0.1441  0.1796
   82SAPS  H13R 7676   3.564   4.608   9.409 -2.6998  0.3523  2.4203
   82SAPS  H13S 7677   3.470   4.625   9.274  2.3272  0.9716  0.3070
   82SAPS  C214 7678   3.575   4.440   9.276  0.3501  0.2238  0.1698
   82SAPS  H14R 7679   3.624   4.368   9.343 -0.2171  0.2172  0.5788
   82SAPS  C215 7680   3.582   4.408   9.145  0.1227  0.3204 -0.7099
   82SAPS  H15R 7681   3.651   4.330   9.108  0.8357  0.4865  0.2296
   82SAPS  C216 7682   3.510   4.477   9.034 -0.7593  0.1637  0.5075
   82SAPS  H16R 7683   3.446   4.559   9.074 -1.4016 -0.1856  0.2010
   82SAPS  H16S 7684   3.440   4.399   8.999 -1.0396  0.5687  0.1456
   82SAPS  C217 7685   3.600   4.536   8.926 -0.0743  0.5077 -0.8461
   82SAPS  H17R 7686   3.677   4.464   8.891 -2.1541 -2.3043 -0.0134
   82SAPS  H17S 7687   3.664   4.616   8.968  0.5717 -0.9743  1.1988
   82SAPS  C218 7688   3.510   4.560   8.809  0.2057 -0.6628  1.0513
   82SAPS  H18R 7689   3.437   4.633   8.849  0.7302  0.9064 -0.7457
   82SAPS  H18S 7690   3.466   4.463   8.778 -1.1574  0.2840 -0.0802
   82SAPS  C219 7691   3.589   4.637   8.699  0.7199  0.1893  0.2179
   82SAPS  H19R 7692   3.659   4.577   8.638  2.6009  3.6574 -1.3443
   82SAPS  H19S 7693   3.640   4.720   8.753  0.5481  0.2539  0.2822
   82SAPS  C220 7694   3.495   4.693   8.589 -0.5706 -0.4630 -0.8864
   82SAPS  H20R 7695   3.461   4.603   8.532 -2.9341  0.2332 -0.6816
   82SAPS  H20S 7696   3.546   4.770   8.527  0.4690 -0.7883 -0.4524
   82SAPS  H20T 7697   3.409   4.753   8.624 -0.7951  0.1277 -2.3893
   82SAPS   C33 7698   3.364   3.860  10.121  0.3891 -0.0649  0.4104
   82SAPS   H3X 7699   3.267   3.806  10.123 -0.0201  0.6207 -0.5297
   82SAPS   H3Y 7700   3.439   3.788  10.162  2.4544  1.5259 -0.4129
   82SAPS   C34 7701   3.414   3.874   9.973 -0.7911  0.6920  0.7149
   82SAPS   H4X 7702   3.451   3.775   9.938 -2.8927  0.2676 -0.5203
   82SAPS   H4Y 7703   3.495   3.946   9.955 -0.8463  0.7996  0.8881
   82SAPS   C35 7704   3.296   3.920   9.878  0.2083  0.4719  0.4809
   82SAPS   H5X 7705   3.253   4.014   9.919  1.7052  0.6306  1.7487
   82SAPS   H5Y 7706   3.212   3.848   9.871  1.0278 -0.3941 -1.3564
   82SAPS   C36 7707   3.343   3.945   9.726 -0.7141 -0.0448  0.1542
   82SAPS   H6X 7708   3.362   3.852   9.670  0.0693  0.4578 -0.4321
   82SAPS   H6Y 7709   3.438   4.003   9.731  0.0405 -1.2807  0.4695
   82SAPS   C37 7710   3.239   4.016   9.645  0.2276  0.0132 -0.6292
   82SAPS   H7X 7711   3.212   4.106   9.704  1.4480 -0.7583  1.2155
   82SAPS   H7Y 7712   3.144   3.957   9.641 -0.3310  0.9255 -1.1483
   82SAPS   C38 7713   3.295   4.056   9.510 -0.3280  0.6854  0.3334
   82SAPS   H8X 7714   3.334   3.964   9.461  0.9781  1.2347  0.3079
   82SAPS   H8Y 7715   3.380   4.126   9.523 -0.8794  1.8255 -1.7537
   82SAPS   C39 7716   3.191   4.126   9.432 -0.2577 -0.2324  0.3611
   82SAPS   H9X 7717   3.170   4.220   9.487 -0.0677  0.2407 -0.3572
   82SAPS   H9Y 7718   3.092   4.076   9.438 -0.6731  0.6707  1.2507
   82SAPS  C310 7719   3.227   4.157   9.286 -0.0682 -0.0831  0.9827
   82SAPS  H10X 7720   3.274   4.065   9.245 -0.9700  0.5206 -1.5660
   82SAPS  H10Y 7721   3.295   4.244   9.283 -3.0182  2.3563 -2.2607
   82SAPS  C311 7722   3.118   4.206   9.182  0.0748 -0.3742 -0.2596
   82SAPS  H11X 7723   3.079   4.307   9.208  0.2882  0.2356 -2.1524
   82SAPS  H11Y 7724   3.047   4.121   9.191 -0.9909  0.5406  0.2813
   82SAPS  C312 7725   3.176   4.211   9.045 -0.1860 -0.5622 -0.3368
   82SAPS  H12X 7726   3.195   4.106   9.016 -0.7010 -0.8920  0.4980
   82SAPS  H12Y 7727   3.274   4.261   9.027  0.1012 -1.9274 -3.1869
   82SAPS  C313 7728   3.077   4.271   8.944 -0.2385 -0.5353 -0.4168
   82SAPS  H13X 7729   3.122   4.261   8.843 -1.8493 -3.5932 -0.9404
   82SAPS  H13Y 7730   3.061   4.378   8.970  2.5081 -0.0727 -0.3171
   82SAPS  C314 7731   2.938   4.205   8.944  0.0388 -0.2656 -0.1973
   82SAPS  H14X 7732   2.870   4.261   8.876 -2.2891 -0.2569  2.0121
   82SAPS  H14Y 7733   2.890   4.218   9.043  1.0132 -0.3008  0.2869
   82SAPS  C315 7734   2.944   4.053   8.904 -0.3421  0.6439 -0.1337
   82SAPS  H15X 7735   3.023   3.990   8.951  1.3939  1.5123 -1.7588
   82SAPS  H15Y 7736   2.957   4.045   8.794  0.5015 -0.6799  0.0368
   82SAPS  C316 7737   2.803   4.005   8.937 -0.3871  0.0758 -0.1758
   82SAPS  H16X 7738   2.732   4.084   8.905  1.5448  2.2685  0.6700
   82SAPS  H16Y 7739   2.795   4.006   9.048 -0.9522  2.6470 -0.1767
   82SAPS  C317 7740   2.761   3.869   8.885  0.1889 -0.0961  0.3064
   82SAPS  H17X 7741   2.816   3.788   8.937  0.1101  0.7856  1.8197
   82SAPS  H17Y 7742   2.774   3.872   8.774 -0.2654  3.2897  0.2306
   82SAPS  C318 7743   2.608   3.843   8.903 -0.2072  0.9301 -0.2009
   82SAPS  H18X 7744   2.547   3.925   8.859  0.4211  1.2673 -0.4678
   82SAPS  H18Y 7745   2.588   3.836   9.012 -0.6743 -0.5656 -0.3632
   82SAPS  H18Z 7746   2.584   3.748   8.852 -0.5210  0.8233  0.1376
   83SAPS     N 7747   6.248   4.699  11.447  0.2936 -0.1853 -0.6190
   83SAPS   HN1 7748   6.202   4.636  11.379 -1.4319 -0.8629  1.0803
   83SAPS   HN2 7749   6.338   4.747  11.426  0.6650  0.1221  1.3824
   83SAPS   HN3 7750   6.279   4.636  11.524 -0.0292  2.1662  1.6182
   83SAPS   C12 7751   6.154   4.809  11.500  0.3147  0.2995 -0.7897
   83SAPS  H12A 7752   6.063   4.753  11.510  0.9737 -1.1833 -2.5734
   83SAPS   C13 7753   6.185   4.881  11.638 -0.5288  1.0837 -0.8760
   83SAPS  O13A 7754   6.260   4.828  11.730  0.7566 -0.2129 -0.0985
   83SAPS  O13B 7755   6.094   4.960  11.675 -0.5307 -0.2684 -0.1701
   83SAPS   C11 7756   6.129   4.915  11.390  0.0996  0.3248 -0.3562
   83SAPS  H11A 7757   6.220   4.975  11.367 -0.9635  1.3942 -2.0280
   83SAPS  H11B 7758   6.052   4.987  11.422  1.1066  1.4681 -0.4283
   83SAPS     P 7759   5.937   4.849  11.216 -0.5184 -0.1465  0.2786
   83SAPS   O13 7760   5.856   4.792  11.325 -0.1850  1.1067 -0.6593
   83SAPS   O14 7761   5.886   4.977  11.165 -0.2191  0.0754 -0.4900
   83SAPS   O12 7762   6.091   4.854  11.267  0.5962  0.0869  0.4201
   83SAPS   O11 7763   5.930   4.743  11.099 -0.2845 -0.6690 -0.1927
   83SAPS    C1 7764   6.037   4.647  11.083 -0.7197 -0.5840  0.2516
   83SAPS    HA 7765   6.135   4.666  11.131 -0.2058  2.1880 -1.6867
   83SAPS    HB 7766   5.995   4.553  11.125 -0.5152 -0.3659  0.9570
   83SAPS    C2 7767   6.085   4.616  10.943  0.5010 -0.7378 -0.6068
   83SAPS    HS 7768   6.134   4.706  10.900  1.4721 -0.4297  1.0374
   83SAPS   O21 7769   5.977   4.576  10.864 -0.1457  0.0012  0.2482
   83SAPS   C21 7770   5.979   4.595  10.734 -0.6978  0.6239 -0.3535
   83SAPS   O22 7771   6.065   4.660  10.678 -0.3703  0.2356 -0.3950
   83SAPS   C22 7772   5.869   4.520  10.666  0.1278  0.8344  0.7219
   83SAPS   H2R 7773   5.884   4.410  10.676  1.3075  0.6666 -1.8846
   83SAPS   H2S 7774   5.767   4.549  10.699 -0.0444  0.5046  0.4917
   83SAPS    C3 7775   6.193   4.503  10.932 -0.0699 -0.1446 -0.5904
   83SAPS    HX 7776   6.157   4.410  10.981  0.5920 -0.4033 -0.5919
   83SAPS    HY 7777   6.278   4.540  10.993  0.5491 -0.9776 -0.9357
   83SAPS   O31 7778   6.223   4.463  10.795  0.3876 -0.1389 -0.0487
   83SAPS   C31 7779   6.311   4.542  10.740 -0.6053  0.0280  0.0525
   83SAPS   O32 7780   6.358   4.646  10.789 -0.2502 -0.2267 -0.2045
   83SAPS   C32 7781   6.353   4.483  10.596 -0.3545  0.2373 -0.4010
   83SAPS   H2X 7782   6.260   4.438  10.554 -1.6308  1.1914  1.3016
   83SAPS   H2Y 7783   6.421   4.397  10.614 -1.0206  0.0651  1.6529
   83SAPS   C23 7784   5.869   4.531  10.506 -0.4764 -0.1227 -0.8297
   83SAPS   H3R 7785   5.967   4.566  10.468  0.2782 -0.0290  1.0970
   83SAPS   H3S 7786   5.796   4.609  10.472  1.4058  1.1676 -2.1390
   83SAPS   C24 7787   5.845   4.394  10.439  0.2889  0.1445 -0.1113
   83SAPS   H4R 7788   5.808   4.411  10.336  0.7757 -1.7209 -0.6288
   83SAPS   H4S 7789   5.763   4.338  10.489 -0.2820  1.4569  0.4718
   83SAPS   C25 7790   5.980   4.315  10.436  1.4755  0.7156 -0.2256
   83SAPS   H5R 7791   5.989   4.240  10.516 -1.5033 -2.0388 -2.2439
   83SAPS   C26 7792   6.082   4.326  10.343  0.7767 -0.1589  0.0857
   83SAPS   H6R 7793   6.165   4.254  10.340  0.1870 -0.8944  0.8586
   83SAPS   C27 7794   6.077   4.424  10.224 -0.3355  0.7560 -0.0882
   83SAPS   H7R 7795   6.069   4.526  10.268  1.9320  0.9070  0.1307
   83SAPS   H7S 7796   5.982   4.391  10.177 -0.3889  0.4355  0.2408
   83SAPS   C28 7797   6.187   4.422  10.121  0.5072 -0.4695 -0.9707
   83SAPS   H8R 7798   6.271   4.357  10.147  0.8710  1.3802  3.3367
   83SAPS   C29 7799   6.185   4.510  10.022 -0.0374 -0.2571  0.2987
   83SAPS   H9R 7800   6.265   4.510   9.947 -1.6252  0.0800 -1.4732
   83SAPS  C210 7801   6.078   4.612   9.992  0.8698 -0.2960 -1.5763
   83SAPS  H10R 7802   6.044   4.653  10.090  0.2139 -1.9319 -1.0778
   83SAPS  H10S 7803   5.994   4.572   9.931 -1.3727 -0.2525  1.2380
   83SAPS  C211 7804   6.132   4.735   9.930 -0.0095  0.5533 -0.4657
   83SAPS  H11R 7805   6.152   4.814  10.004 -1.2552  1.2504 -0.8400
   83SAPS  C212 7806   6.168   4.751   9.803  0.4442 -0.9282 -0.2012
   83SAPS  H12R 7807   6.193   4.853   9.770 -0.4048 -1.1397 -1.5332
   83SAPS  C213 7808   6.160   4.652   9.688  0.1345  0.1354 -0.5892
   83SAPS  H13R 7809   6.163   4.549   9.730  0.2354  0.7235  0.9320
   83SAPS  H13S 7810   6.252   4.655   9.626  0.5427 -0.1613 -0.0111
   83SAPS  C214 7811   6.028   4.666   9.614 -1.0055 -0.6569  0.2780
   83SAPS  H14R 7812   5.939   4.636   9.671 -0.5225 -2.9108 -0.0588
   83SAPS  C215 7813   6.014   4.689   9.477 -0.0376 -0.0463  0.1287
   83SAPS  H15R 7814   5.910   4.700   9.445 -0.4139  1.7491  1.8014
   83SAPS  C216 7815   6.121   4.711   9.371 -0.5492 -0.0488  0.2789
   83SAPS  H16R 7816   6.225   4.726   9.405 -1.4484  4.0928  1.8354
   83SAPS  H16S 7817   6.101   4.807   9.318  1.4929 -0.3886 -1.2107
   83SAPS  C217 7818   6.090   4.602   9.268  0.0587  0.0284 -0.2073
   83SAPS  H17R 7819   5.983   4.606   9.237 -0.0119 -1.4624 -0.2286
   83SAPS  H17S 7820   6.100   4.503   9.316 -3.2887 -1.0198 -1.4099
   83SAPS  C218 7821   6.187   4.607   9.150  0.4259  0.2755 -0.1861
   83SAPS  H18R 7822   6.180   4.514   9.091  2.7186  0.2377 -0.4916
   83SAPS  H18S 7823   6.292   4.611   9.188  0.1405  1.7258  0.5298
   83SAPS  C219 7824   6.158   4.721   9.050  0.4246  0.2545  0.0343
   83SAPS  H19R 7825   6.149   4.820   9.100  1.9227  1.1748 -1.4248
   83SAPS  H19S 7826   6.064   4.700   8.994  1.0508  1.4860 -1.5601
   83SAPS  C220 7827   6.266   4.741   8.944  0.1640  0.0810  0.4124
   83SAPS  H20R 7828   6.241   4.829   8.881  2.8816  2.2758  2.1138
   83SAPS  H20S 7829   6.264   4.659   8.870  0.4890 -0.0924  0.5942
   83SAPS  H20T 7830   6.371   4.745   8.980  0.3008  0.4400 -0.0165
   83SAPS   C33 7831   6.413   4.589  10.497 -0.4545  0.0412 -0.2468
   83SAPS   H3X 7832   6.513   4.619  10.536 -0.2671  0.7289 -1.2161
   83SAPS   H3Y 7833   6.355   4.683  10.487  0.4523  0.5303 -1.0470
   83SAPS   C34 7834   6.419   4.526  10.363 -0.1441 -0.0458  0.3410
   83SAPS   H4X 7835   6.317   4.501  10.325 -0.9270  0.2959  2.1238
   83SAPS   H4Y 7836   6.464   4.425  10.373  0.4253  0.1208 -0.4719
   83SAPS   C35 7837   6.491   4.610  10.252 -0.4719  0.6259 -0.2743
   83SAPS   H5X 7838   6.514   4.533  10.176  1.0608 -0.9151  1.6497
   83SAPS   H5Y 7839   6.581   4.638  10.312 -1.4921 -3.1449  3.5255
   83SAPS   C36 7840   6.402   4.734  10.217  0.1307  0.0012 -0.4927
   83SAPS   H6X 7841   6.421   4.809  10.297  0.9960 -0.1840 -0.5062
   83SAPS   H6Y 7842   6.299   4.695  10.213  1.0904 -3.0647  1.3392
   83SAPS   C37 7843   6.439   4.796  10.082 -0.1796 -0.0866  0.2793
   83SAPS   H7X 7844   6.350   4.855  10.050  0.1741  0.0615 -0.4439
   83SAPS   H7Y 7845   6.451   4.712  10.011  0.7761  0.1685  0.1190
   83SAPS   C38 7846   6.560   4.891  10.088  0.4340  0.9833 -0.2206
   83SAPS   H8X 7847   6.652   4.844  10.127 -1.6115 -1.8189  1.5763
   83SAPS   H8Y 7848   6.531   4.974  10.157  0.3630  0.5807  0.2329
   83SAPS   C39 7849   6.585   4.946   9.944  0.1758  0.3983  0.0754
   83SAPS   H9X 7850   6.676   5.009   9.954 -0.7361  1.7083  0.3314
   83SAPS   H9Y 7851   6.512   5.021   9.907  0.9778  0.0997 -2.2508
   83SAPS  C310 7852   6.605   4.842   9.833 -1.0014 -0.1898  0.0292
   83SAPS  H10X 7853   6.514   4.780   9.819 -0.3837 -0.6454 -2.3708
   83SAPS  H10Y 7854   6.697   4.791   9.869  0.8775  3.2381  0.4878
   83SAPS  C311 7855   6.614   4.909   9.695 -0.3863 -0.5592  0.2099
   83SAPS  H11X 7856   6.704   4.973   9.680 -0.8464 -0.5459 -3.1848
   83SAPS  H11Y 7857   6.522   4.970   9.679 -0.6846 -0.8857  0.6524
   83SAPS  C312 7858   6.600   4.806   9.579 -0.1602  0.3260  0.1971
   83SAPS  H12X 7859   6.505   4.750   9.594  0.3622 -1.1121 -1.5383
   83SAPS  H12Y 7860   6.679   4.728   9.583 -0.5041 -0.0148  0.3621
   83SAPS  C313 7861   6.592   4.876   9.439 -0.6827  0.9163 -0.1844
   83SAPS  H13X 7862   6.687   4.932   9.429  1.1476 -1.8257  0.6335
   83SAPS  H13Y 7863   6.505   4.946   9.434 -0.2148  1.8314  2.6828
   83SAPS  C314 7864   6.590   4.778   9.330  0.4683  0.2846  0.3193
   83SAPS  H14X 7865   6.491   4.729   9.342  0.4245  0.3681  0.2992
   83SAPS  H14Y 7866   6.676   4.708   9.333  1.5637  1.5967  0.5667
   83SAPS  C315 7867   6.602   4.846   9.191  0.2429 -0.6828 -0.2755
   83SAPS  H15X 7868   6.616   4.766   9.115 -0.1764 -2.0816  1.0749
   83SAPS  H15Y 7869   6.694   4.908   9.205  0.6642 -1.3812  0.1166
   83SAPS  C316 7870   6.496   4.952   9.151 -0.1085 -0.0505 -0.5218
   83SAPS  H16X 7871   6.495   5.029   9.231  0.1844 -0.7971  0.2172
   83SAPS  H16Y 7872   6.404   4.891   9.136  0.4125 -1.2201  0.8086
   83SAPS  C317 7873   6.548   5.020   9.026 -0.5837 -0.3922  0.1641
   83SAPS  H17X 7874   6.657   5.041   9.032 -0.4197 -1.2402  0.2291
   83SAPS  H17Y 7875   6.495   5.117   9.018  1.1213  0.5182 -0.5272
   83SAPS  C318 7876   6.531   4.959   8.887 -0.1919  0.4891  0.2383
   83SAPS  H18X 7877   6.423   4.945   8.864 -0.0883 -1.3382  0.6867
   83SAPS  H18Y 7878   6.573   4.856   8.879 -0.2299  0.4001  1.1317
   83SAPS  H18Z 7879   6.576   5.029   8.813 -0.7073  1.3176  0.6953
   84SAPS     N 7880   0.443   3.870  10.995 -0.1284  0.1873 -0.4839
   84SAPS   HN1 7881   0.449   3.964  11.040  0.9617 -0.6015  1.0695
   84SAPS   HN2 7882   0.541   3.871  10.959 -0.5527  2.5677 -1.8581
   84SAPS   HN3 7883   0.386   3.876  10.908 -0.2578 -0.4089 -0.4381
   84SAPS   C12 7884   0.405   3.753  11.085 -0.2165 -0.3956  0.3622
   84SAPS  H12A 7885   0.404   3.663  11.026 -1.3846  0.1044 -0.4222
   84SAPS   C13 7886   0.495   3.726  11.204  0.1811 -0.7696  0.9972
   84SAPS  O13A 7887   0.602   3.801  11.224  0.3501  1.1630 -0.4827
   84SAPS  O13B 7888   0.466   3.640  11.292 -0.2019 -0.1116  0.2335
   84SAPS   C11 7889   0.259   3.786  11.133  0.2072 -0.4997  0.1024
   84SAPS  H11A 7890   0.247   3.887  11.177 -0.2301 -0.7591  0.5890
   84SAPS  H11B 7891   0.236   3.722  11.220 -0.3151 -2.2635 -1.2614
   84SAPS     P 7892   0.006   3.728  11.069 -0.3562 -0.0991  0.2213
   84SAPS   O13 7893  -0.011   3.582  11.044 -0.1913  0.2254  0.1659
   84SAPS   O14 7894  -0.016   3.788  11.201 -0.4944 -0.1332  0.0183
   84SAPS   O12 7895   0.157   3.761  11.028 -0.5946 -0.0138  1.0417
   84SAPS   O11 7896  -0.082   3.807  10.961  0.0138  0.2595  0.0269
   84SAPS    C1 7897  -0.078   3.950  10.962 -0.1356  0.1046  0.1051
   84SAPS    HA 7898  -0.168   3.996  11.008  0.0863  0.0074  0.6482
   84SAPS    HB 7899   0.009   3.992  11.018  0.3633 -1.1423  0.2978
   84SAPS    C2 7900  -0.061   4.009  10.822 -0.6948  0.0516  0.1366
   84SAPS    HS 7901  -0.016   4.110  10.826  0.2600 -0.3877  0.8580
   84SAPS   O21 7902  -0.194   4.025  10.761  0.0050  0.3935  0.2209
   84SAPS   C21 7903  -0.214   4.120  10.667  0.0061  0.7331  0.0976
   84SAPS   O22 7904  -0.141   4.212  10.635 -0.3962  0.2843 -0.2384
   84SAPS   C22 7905  -0.365   4.111  10.628 -0.4994 -0.2500  0.2570
   84SAPS   H2R 7906  -0.408   4.024  10.682 -0.8277 -1.5138 -1.9264
   84SAPS   H2S 7907  -0.419   4.197  10.673  0.9300 -0.3954  2.3543
   84SAPS    C3 7908   0.024   3.921  10.726 -0.0116  0.7897  0.3162
   84SAPS    HX 7909  -0.049   3.871  10.657 -0.7965  2.1449  0.1231
   84SAPS    HY 7910   0.068   3.840  10.787  0.3212  0.2596 -0.6074
   84SAPS   O31 7911   0.119   3.991  10.649 -0.1722 -0.1411  0.0683
   84SAPS   C31 7912   0.237   4.020  10.700 -0.2905  0.1855  0.2051
   84SAPS   O32 7913   0.269   3.989  10.812 -0.2995  0.2663  0.0738
   84SAPS   C32 7914   0.328   4.077  10.585  0.5882 -0.2134  0.8897
   84SAPS   H2X 7915   0.287   4.178  10.570 -1.9446 -0.8030  3.0821
   84SAPS   H2Y 7916   0.312   4.010  10.497 -3.3952 -0.4864  1.6409
   84SAPS   C23 7917  -0.393   4.104  10.471  0.0699 -0.5233 -0.7149
   84SAPS   H3R 7918  -0.358   4.198  10.424 -2.0151  0.8254  0.2857
   84SAPS   H3S 7919  -0.501   4.077  10.467 -0.0919  0.1538 -0.9556
   84SAPS   C24 7920  -0.323   3.980  10.409 -0.4615  0.2927  0.6914
   84SAPS   H4R 7921  -0.346   3.893  10.474 -1.5848  1.0286  1.3218
   84SAPS   H4S 7922  -0.212   3.982  10.416 -0.0322 -3.6880 -1.6786
   84SAPS   C25 7923  -0.363   3.971  10.261 -0.1367  0.1595 -0.0146
   84SAPS   H5R 7924  -0.452   3.910  10.235  0.6620 -0.4880 -1.3566
   84SAPS   C26 7925  -0.303   4.039  10.161 -0.1191  0.6624 -0.3463
   84SAPS   H6R 7926  -0.352   4.035  10.062 -1.0014 -0.4455  0.1116
   84SAPS   C27 7927  -0.189   4.130  10.168  0.1359  0.4370  0.4373
   84SAPS   H7R 7928  -0.113   4.087  10.237  3.3109 -1.4300 -3.7668
   84SAPS   H7S 7929  -0.220   4.230  10.204 -0.9212  0.2245  0.1481
   84SAPS   C28 7930  -0.109   4.158  10.033  0.5164 -0.0651 -0.5160
   84SAPS   H8R 7931  -0.003   4.134  10.047  0.5184  1.0534  1.8380
   84SAPS   C29 7932  -0.151   4.229   9.927 -0.2249 -0.6932  0.2310
   84SAPS   H9R 7933  -0.087   4.226   9.838 -1.4663  0.7315 -0.7743
   84SAPS  C210 7934  -0.289   4.294   9.908 -0.0181  0.2359  0.0882
   84SAPS  H10R 7935  -0.329   4.314  10.010 -2.4244 -1.4839 -0.4276
   84SAPS  H10S 7936  -0.374   4.231   9.873 -0.0027 -0.4573  1.2645
   84SAPS  C211 7937  -0.283   4.419   9.826  0.8990  0.2574 -0.6144
   84SAPS  H11R 7938  -0.295   4.509   9.888  1.1538  0.1232 -0.3715
   84SAPS  C212 7939  -0.265   4.432   9.691 -0.9062 -0.1329 -0.1681
   84SAPS  H12R 7940  -0.251   4.531   9.645  1.7473 -0.8525 -1.0645
   84SAPS  C213 7941  -0.244   4.325   9.585  0.7407 -0.5364  0.4026
   84SAPS  H13R 7942  -0.235   4.226   9.635  1.7644 -0.8002 -0.2797
   84SAPS  H13S 7943  -0.151   4.331   9.525  0.2878 -1.2180 -0.3832
   84SAPS  C214 7944  -0.373   4.328   9.502  0.0590 -0.3216 -0.3030
   84SAPS  H14R 7945  -0.461   4.296   9.560 -1.9737  1.3782 -2.2911
   84SAPS  C215 7946  -0.383   4.356   9.369 -0.5950 -0.5829  0.3208
   84SAPS  H15R 7947  -0.486   4.358   9.329 -0.7052 -0.6292  0.5942
   84SAPS  C216 7948  -0.274   4.405   9.274  0.3131  0.6292 -0.6293
   84SAPS  H16R 7949  -0.171   4.390   9.313  1.0260 -0.6524 -2.8783
   84SAPS  H16S 7950  -0.274   4.516   9.272 -0.4411  0.7413  1.9281
   84SAPS  C217 7951  -0.302   4.356   9.132 -0.3020  1.0797  0.2915
   84SAPS  H17R 7952  -0.404   4.390   9.103 -0.9505 -1.8286 -1.1855
   84SAPS  H17S 7953  -0.293   4.246   9.134 -0.4142  1.0292  3.8055
   84SAPS  C218 7954  -0.210   4.403   9.016 -0.8268 -0.3350 -0.3667
   84SAPS  H18R 7955  -0.104   4.392   9.050 -0.5200  1.6517 -0.5815
   84SAPS  H18S 7956  -0.230   4.512   9.009 -0.1753  0.0143  2.2931
   84SAPS  C219 7957  -0.248   4.344   8.878 -0.6535 -0.2151 -0.6307
   84SAPS  H19R 7958  -0.260   4.237   8.904  0.6812 -0.1213  0.4964
   84SAPS  H19S 7959  -0.166   4.358   8.804  1.0098 -1.0172  0.9677
   84SAPS  C220 7960  -0.374   4.393   8.812  0.1643  0.0191  0.6573
   84SAPS  H20R 7961  -0.372   4.495   8.768 -1.7024  0.3617  1.2948
   84SAPS  H20S 7962  -0.454   4.387   8.889 -0.4105 -1.3135 -0.0068
   84SAPS  H20T 7963  -0.395   4.317   8.734  0.1315 -1.0887  1.7072
   84SAPS   C33 7964   0.477   4.079  10.626  0.2313  0.3046  0.3223
   84SAPS   H3X 7965   0.513   3.979  10.656 -1.3574 -1.1150 -2.1869
   84SAPS   H3Y 7966   0.474   4.132  10.724  1.2514 -1.6312  1.4520
   84SAPS   C34 7967   0.561   4.150  10.518  0.1695 -0.3769 -0.1211
   84SAPS   H4X 7968   0.669   4.133  10.539  1.2855  2.1793 -3.0039
   84SAPS   H4Y 7969   0.544   4.258  10.536  1.3270 -0.4375  1.5083
   84SAPS   C35 7970   0.543   4.103  10.380 -0.7390 -0.1065 -0.7715
   84SAPS   H5X 7971   0.437   4.099  10.348 -1.0670  0.8803  0.1569
   84SAPS   H5Y 7972   0.588   4.004  10.355  0.4350  0.0194  0.6787
   84SAPS   C36 7973   0.616   4.196  10.276  0.3950 -0.4691  0.5046
   84SAPS   H6X 7974   0.726   4.204  10.290  0.3845  4.3643 -0.4003
   84SAPS   H6Y 7975   0.585   4.300  10.299  2.7347  0.1409  1.1804
   84SAPS   C37 7976   0.573   4.155  10.137 -0.7404  0.0048  0.4139
   84SAPS   H7X 7977   0.463   4.143  10.129 -0.5184 -1.7544 -0.5620
   84SAPS   H7Y 7978   0.623   4.056  10.132 -0.3721  0.1684  0.8466
   84SAPS   C38 7979   0.627   4.236  10.019 -0.4809 -0.2627 -1.1116
   84SAPS   H8X 7980   0.738   4.225  10.015 -0.4546 -0.2141 -0.6205
   84SAPS   H8Y 7981   0.598   4.343  10.034  0.4369  0.1976 -2.4335
   84SAPS   C39 7982   0.561   4.194   9.895  0.0448 -0.3207  0.4135
   84SAPS   H9X 7983   0.454   4.226   9.905 -0.2924 -0.8016 -1.3905
   84SAPS   H9Y 7984   0.556   4.085   9.878  2.7437 -0.3852 -0.3781
   84SAPS  C310 7985   0.616   4.270   9.771  0.3371 -0.3853  0.1415
   84SAPS  H10X 7986   0.725   4.256   9.759  0.5251  1.1315 -0.1390
   84SAPS  H10Y 7987   0.606   4.380   9.783 -2.8606 -0.6617  1.0501
   84SAPS  C311 7988   0.545   4.223   9.644  0.0863 -0.3892  0.3666
   84SAPS  H11X 7989   0.439   4.255   9.646  0.2102  0.2187 -1.1699
   84SAPS  H11Y 7990   0.547   4.113   9.631 -0.7779 -0.1659 -2.2335
   84SAPS  C312 7991   0.598   4.274   9.506  0.1941 -0.3185  0.1980
   84SAPS  H12X 7992   0.708   4.260   9.503 -0.0801 -3.0481  0.2463
   84SAPS  H12Y 7993   0.580   4.383   9.501  0.5691 -0.3117 -1.6169
   84SAPS  C313 7994   0.533   4.193   9.396 -1.3598 -0.1043 -0.3654
   84SAPS  H13X 7995   0.424   4.212   9.405 -0.8976  1.7462  2.2260
   84SAPS  H13Y 7996   0.573   4.090   9.386  0.4028  0.4014  1.0022
   84SAPS  C314 7997   0.568   4.263   9.261 -0.3421  0.5526  0.3144
   84SAPS  H14X 7998   0.679   4.264   9.258 -0.2973  3.0072  0.6729
   84SAPS  H14Y 7999   0.537   4.369   9.252  1.8685  1.2524  0.2944
   84SAPS  C315 8000   0.530   4.169   9.143  0.8489 -0.4278 -0.0567
   84SAPS  H15X 8001   0.421   4.152   9.154  1.1834 -2.5546  0.3947
   84SAPS  H15Y 8002   0.582   4.072   9.161 -0.1167 -0.6087  2.2106
   84SAPS  C316 8003   0.566   4.239   9.009 -0.1051  0.2876 -0.7199
   84SAPS  H16X 8004   0.589   4.152   8.943  1.7368 -0.4619  0.8127
   84SAPS  H16Y 8005   0.656   4.300   9.032  0.4893 -1.3822  1.7845
   84SAPS  C317 8006   0.464   4.333   8.962 -0.1619 -0.1052  0.6819
   84SAPS  H17X 8007   0.406   4.375   9.047 -2.3283  1.2091 -1.3107
   84SAPS  H17Y 8008   0.384   4.280   8.905  2.0082 -1.8181 -0.9261
   84SAPS  C318 8009   0.508   4.443   8.871  0.0902 -0.1803  0.0719
   84SAPS  H18X 8010   0.614   4.470   8.890 -0.0342 -1.0087  2.1848
   84SAPS  H18Y 8011   0.444   4.533   8.872 -0.3355 -0.4527 -1.1088
   84SAPS  H18Z 8012   0.487   4.417   8.765 -0.2209  1.5722 -0.3200
   85SAPS     N 8013   3.785   0.049  11.311 -0.2339  0.1183  0.8648
   85SAPS   HN1 8014   3.769   0.142  11.355 -0.1357  0.8164 -0.5304
   85SAPS   HN2 8015   3.696  -0.004  11.310 -0.3840  0.3562 -0.9132
   85SAPS   HN3 8016   3.838  -0.007  11.381  0.0599  1.4715  1.7593
   85SAPS   C12 8017   3.845   0.062  11.177 -0.0644  0.5021  0.0743
   85SAPS  H12A 8018   3.951   0.082  11.181  0.1189  0.5608 -2.8048
   85SAPS   C13 8019   3.830  -0.063  11.085  0.0484 -0.3619 -0.8912
   85SAPS  O13A 8020   3.796  -0.174  11.130  0.0443 -0.0981  0.0421
   85SAPS  O13B 8021   3.867  -0.046  10.968 -0.1443 -0.2797  0.5031
   85SAPS   C11 8022   3.776   0.178  11.104 -0.7687  0.2436  0.0211
   85SAPS  H11A 8023   3.678   0.135  11.074 -0.1474 -0.9215 -0.3815
   85SAPS  H11B 8024   3.814   0.207  11.004 -2.8971  0.6016 -0.7499
   85SAPS     P 8025   3.639   0.397  11.141  0.2263  0.0510 -0.4236
   85SAPS   O13 8026   3.500   0.353  11.170 -0.3829 -0.0461  0.3631
   85SAPS   O14 8027   3.671   0.524  11.206  0.1856 -0.3594 -0.3577
   85SAPS   O12 8028   3.749   0.297  11.193 -0.0274 -0.6297  0.0002
   85SAPS   O11 8029   3.665   0.399  10.989  0.3548  0.0614  0.2026
   85SAPS    C1 8030   3.690   0.520  10.922  0.9248  0.5045 -1.0053
   85SAPS    HA 8031   3.608   0.595  10.935  1.0019  0.3073  0.8494
   85SAPS    HB 8032   3.778   0.577  10.960 -0.3401  2.5579 -0.9917
   85SAPS    C2 8033   3.702   0.482  10.774 -0.1617 -0.3275  0.6973
   85SAPS    HS 8034   3.620   0.414  10.742  1.1981 -0.2732 -3.4978
   85SAPS   O21 8035   3.835   0.421  10.752 -0.3557 -0.2325 -0.3545
   85SAPS   C21 8036   3.837   0.352  10.648  0.1055  0.0771  1.0644
   85SAPS   O22 8037   3.738   0.308  10.584 -0.7725 -0.0526 -0.1679
   85SAPS   C22 8038   3.990   0.325  10.609 -0.1936  0.5705  0.8102
   85SAPS   H2R 8039   4.047   0.418  10.630  1.1058 -0.2606  1.0504
   85SAPS   H2S 8040   4.006   0.241  10.680 -2.8321  0.8698  1.8842
   85SAPS    C3 8041   3.696   0.612  10.683  0.3403  0.9115 -0.2172
   85SAPS    HX 8042   3.788   0.673  10.684  1.5975 -0.8351 -1.7644
   85SAPS    HY 8043   3.604   0.664  10.718 -0.1843 -1.6428  2.5599
   85SAPS   O31 8044   3.671   0.573  10.545  0.4142 -0.0551  0.7975
   85SAPS   C31 8045   3.543   0.529  10.521 -0.5894  0.5586  0.3282
   85SAPS   O32 8046   3.449   0.532  10.600 -0.1992 -0.5444  0.2513
   85SAPS   C32 8047   3.546   0.483  10.373  0.2904  0.3882 -0.6764
   85SAPS   H2X 8048   3.563   0.373  10.369  1.0827  0.5405 -2.5867
   85SAPS   H2Y 8049   3.625   0.526  10.307 -0.4809  1.8049 -0.7064
   85SAPS   C23 8050   4.010   0.269  10.470  0.3509 -0.3746 -0.1622
   85SAPS   H3R 8051   3.946   0.180  10.455  2.3057 -1.8491 -0.1278
   85SAPS   H3S 8052   4.116   0.239  10.456  0.6365  0.8056 -0.6585
   85SAPS   C24 8053   4.004   0.372  10.352 -1.0564 -0.3830  0.1883
   85SAPS   H4R 8054   4.062   0.461  10.383 -0.7028  0.0003 -1.4846
   85SAPS   H4S 8055   3.899   0.406  10.364 -0.8886 -0.3285  1.6984
   85SAPS   C25 8056   4.041   0.324  10.210 -0.3017 -0.5572 -1.2300
   85SAPS   H5R 8057   4.128   0.256  10.207  0.7379  0.6233  0.3565
   85SAPS   C26 8058   3.982   0.369  10.092 -0.6438  0.2635 -0.1804
   85SAPS   H6R 8059   4.019   0.328   9.997  0.5225  0.0129  0.3531
   85SAPS   C27 8060   3.875   0.471  10.079  0.0277  0.1650  0.4669
   85SAPS   H7R 8061   3.925   0.559  10.033 -1.0737  1.5932  1.8614
   85SAPS   H7S 8062   3.832   0.509  10.174 -2.0516  2.8707 -1.3618
   85SAPS   C28 8063   3.763   0.423   9.993 -0.0692 -0.1673  0.6107
   85SAPS   H8R 8064   3.691   0.357  10.044  1.2088 -1.5771  0.6756
   85SAPS   C29 8065   3.743   0.437   9.860 -0.7592 -0.2006  0.5882
   85SAPS   H9R 8066   3.646   0.411   9.815 -0.3793  0.0741 -0.4093
   85SAPS  C210 8067   3.837   0.506   9.760  0.3226 -0.2733 -0.1258
   85SAPS  H10R 8068   3.941   0.516   9.797  0.0079  0.2105  0.6459
   85SAPS  H10S 8069   3.798   0.608   9.743 -1.0157 -0.8052 -0.3719
   85SAPS  C211 8070   3.840   0.447   9.622 -0.1332 -0.3023 -0.1033
   85SAPS  H11R 8071   3.808   0.522   9.549  1.9607 -0.1574 -0.9455
   85SAPS  C212 8072   3.881   0.324   9.583 -0.0204 -0.4900 -0.4516
   85SAPS  H12R 8073   3.864   0.285   9.481  0.5484 -0.5149 -0.5415
   85SAPS  C213 8074   3.940   0.222   9.671 -0.7055  0.6593  0.6566
   85SAPS  H13R 8075   3.990   0.275   9.755  1.2633  0.2388 -0.1883
   85SAPS  H13S 8076   4.030   0.184   9.619 -0.1873  2.4331  0.1727
   85SAPS  C214 8077   3.850   0.111   9.721  0.4417  0.0246  0.1268
   85SAPS  H14R 8078   3.761   0.149   9.773  1.1522  1.4756  0.3170
   85SAPS  C215 8079   3.865  -0.022   9.690  0.3446  0.1464  0.1289
   85SAPS  H15R 8080   3.782  -0.087   9.723  0.7691 -0.5983 -0.2439
   85SAPS  C216 8081   3.977  -0.066   9.601 -0.0187  0.3420  0.0284
   85SAPS  H16R 8082   3.994  -0.170   9.634  1.2157  0.7166  0.6493
   85SAPS  H16S 8083   4.077  -0.016   9.605 -0.4462  1.4973 -2.0709
   85SAPS  C217 8084   3.942  -0.075   9.451  0.6193  0.2584  0.1901
   85SAPS  H17R 8085   4.032  -0.083   9.386 -0.1260  0.2551 -0.8782
   85SAPS  H17S 8086   3.894   0.020   9.417  0.0432  0.2813  1.0549
   85SAPS  C218 8087   3.859  -0.198   9.420 -0.1135 -0.2080 -0.2370
   85SAPS  H18R 8088   3.782  -0.206   9.500 -1.6441 -1.4802 -1.7567
   85SAPS  H18S 8089   3.913  -0.295   9.422  0.8114  0.3046  0.8764
   85SAPS  C219 8090   3.780  -0.189   9.284 -0.3716 -0.6324 -0.1057
   85SAPS  H19R 8091   3.865  -0.194   9.213 -0.4358 -1.5297 -0.1299
   85SAPS  H19S 8092   3.744  -0.084   9.279  1.6576  0.0824 -0.8171
   85SAPS  C220 8093   3.669  -0.299   9.262 -0.3445 -0.4770 -0.3542
   85SAPS  H20R 8094   3.647  -0.293   9.154  1.0088 -0.6208 -0.6606
   85SAPS  H20S 8095   3.585  -0.279   9.332  0.7350  4.1725 -0.0704
   85SAPS  H20T 8096   3.712  -0.399   9.285 -0.3090 -0.8191 -1.8183
   85SAPS   C33 8097   3.416   0.505  10.294  0.5144 -0.1167  0.3982
   85SAPS   H3X 8098   3.325   0.472  10.349 -0.2423  1.4773  0.1713
   85SAPS   H3Y 8099   3.416   0.443  10.202 -2.2515  2.1574 -1.3158
   85SAPS   C34 8100   3.390   0.653  10.244 -0.2673 -0.5688  0.1515
   85SAPS   H4X 8101   3.405   0.728  10.324 -1.7430 -0.0955  0.0122
   85SAPS   H4Y 8102   3.282   0.651  10.217 -0.1857 -0.0884 -0.2228
   85SAPS   C35 8103   3.485   0.691  10.127  0.0325  0.0081  0.4393
   85SAPS   H5X 8104   3.545   0.602  10.102  1.1375  1.1166 -1.0545
   85SAPS   H5Y 8105   3.559   0.773  10.141  2.0127 -1.4367 -1.0860
   85SAPS   C36 8106   3.398   0.747  10.014 -0.4293 -0.0252  0.1287
   85SAPS   H6X 8107   3.365   0.849  10.044  1.4376  0.2668  1.3955
   85SAPS   H6Y 8108   3.308   0.682  10.005 -0.3300 -0.0950 -0.3673
   85SAPS   C37 8109   3.473   0.757   9.883  0.0951  0.2077 -0.3411
   85SAPS   H7X 8110   3.530   0.662   9.868  0.3644  0.5897 -1.8778
   85SAPS   H7Y 8111   3.539   0.846   9.892 -0.5826  0.6501  0.3001
   85SAPS   C38 8112   3.379   0.782   9.765  0.0027  0.2312 -0.6478
   85SAPS   H8X 8113   3.301   0.856   9.797  0.8427  0.2329  1.5866
   85SAPS   H8Y 8114   3.316   0.692   9.752  0.8658 -0.4228 -0.3439
   85SAPS   C39 8115   3.446   0.840   9.641 -0.2890  0.0083  0.5419
   85SAPS   H9X 8116   3.517   0.919   9.676  1.0392 -1.2182  0.7061
   85SAPS   H9Y 8117   3.374   0.878   9.565 -0.0363 -1.5906 -0.5250
   85SAPS  C310 8118   3.536   0.737   9.566  0.0182  0.2170 -1.2254
   85SAPS  H10X 8119   3.473   0.646   9.557 -0.1216 -0.0391  1.4488
   85SAPS  H10Y 8120   3.627   0.710   9.624 -0.7843 -1.7222 -0.7911
   85SAPS  C311 8121   3.573   0.786   9.421 -1.3237  0.9100 -0.0984
   85SAPS  H11X 8122   3.606   0.891   9.438 -1.0677  0.8964 -0.4954
   85SAPS  H11Y 8123   3.485   0.801   9.355 -0.6953  1.7421 -0.7760
   85SAPS  C312 8124   3.689   0.719   9.349  0.3706  0.1005 -0.4924
   85SAPS  H12X 8125   3.655   0.614   9.349 -0.8983  0.4613 -2.1594
   85SAPS  H12Y 8126   3.785   0.735   9.402  0.3203 -1.4267  0.0898
   85SAPS  C313 8127   3.699   0.760   9.198 -0.4318 -0.1817  0.2057
   85SAPS  H13X 8128   3.738   0.863   9.180  2.4849 -1.6279 -2.8134
   85SAPS  H13Y 8129   3.606   0.752   9.138  0.0644  1.2894 -0.8252
   85SAPS  C314 8130   3.804   0.673   9.129  0.3496  0.0245 -0.3474
   85SAPS  H14X 8131   3.768   0.568   9.138 -0.9281  0.5316  0.8916
   85SAPS  H14Y 8132   3.899   0.669   9.186 -1.1739  0.9465  2.4662
   85SAPS  C315 8133   3.844   0.721   8.985  0.4767 -0.1246 -0.1639
   85SAPS  H15X 8134   3.895   0.820   8.988  1.0294 -0.4118  2.1249
   85SAPS  H15Y 8135   3.748   0.725   8.930  1.2931  1.1191 -1.5736
   85SAPS  C316 8136   3.919   0.614   8.907 -0.2694 -0.6482 -0.7437
   85SAPS  H16X 8137   3.862   0.519   8.914 -0.1613 -0.6528  0.2915
   85SAPS  H16Y 8138   4.008   0.587   8.969 -0.8878 -1.3698 -0.1513
   85SAPS  C317 8139   3.956   0.663   8.767  0.4389  0.2553 -0.7375
   85SAPS  H17X 8140   4.014   0.758   8.770  0.0338  0.4870  0.0403
   85SAPS  H17Y 8141   3.856   0.682   8.725  0.7223  4.4158  0.0572
   85SAPS  C318 8142   4.024   0.547   8.689  0.3615  0.1434 -0.1662
   85SAPS  H18X 8143   4.034   0.556   8.579  1.6093 -2.5144 -0.3431
   85SAPS  H18Y 8144   3.976   0.447   8.702 -1.2123  0.8634 -0.1445
   85SAPS  H18Z 8145   4.131   0.539   8.718  0.6745  3.7132  0.0816
   86SAPS     N 8146   5.055   1.035  11.028 -0.3837 -0.3563  0.2764
   86SAPS   HN1 8147   4.980   0.964  11.040 -0.5382 -0.6527 -2.0206
   86SAPS   HN2 8148   5.031   1.107  10.957  3.5666 -1.1541 -2.1456
   86SAPS   HN3 8149   5.144   0.990  10.998  0.3694  0.5575  1.0884
   86SAPS   C12 8150   5.089   1.108  11.158  0.4557  0.1159  0.3520
   86SAPS  H12A 8151   4.994   1.119  11.208 -0.2449 -1.0898 -0.6591
   86SAPS   C13 8152   5.181   1.024  11.252 -0.2584 -0.1040  0.9170
   86SAPS  O13A 8153   5.202   0.900  11.225 -0.2523 -0.1093 -0.4318
   86SAPS  O13B 8154   5.208   1.067  11.366  0.0724 -0.1395 -0.0219
   86SAPS   C11 8155   5.156   1.246  11.125 -0.9537 -0.7290  0.7022
   86SAPS  H11A 8156   5.193   1.301  11.214  0.5026  1.8381 -1.3598
   86SAPS  H11B 8157   5.081   1.299  11.063  1.9310  0.5061 -1.9786
   86SAPS     P 8158   5.385   1.329  11.029  0.1032 -0.3469  0.0805
   86SAPS   O13 8159   5.365   1.449  11.115 -0.1914  1.2016 -0.8771
   86SAPS   O14 8160   5.504   1.250  11.051  0.1526  0.1156 -0.0214
   86SAPS   O12 8161   5.259   1.237  11.024 -0.2006  0.0165 -0.6196
   86SAPS   O11 8162   5.394   1.390  10.881  0.2375 -0.0644 -0.1138
   86SAPS    C1 8163   5.374   1.314  10.765 -0.1487 -0.3828 -0.7289
   86SAPS    HA 8164   5.443   1.355  10.688 -2.6462  0.8913 -2.4337
   86SAPS    HB 8165   5.388   1.206  10.787  1.7581  0.3646  2.3495
   86SAPS    C2 8166   5.231   1.325  10.709  0.0360  0.3067 -0.1582
   86SAPS    HS 8167   5.164   1.290  10.791  1.3025 -0.3621  0.6149
   86SAPS   O21 8168   5.217   1.254  10.581 -0.1757  0.6970 -0.2638
   86SAPS   C21 8169   5.227   1.122  10.596  0.6911  0.2607  0.3757
   86SAPS   O22 8170   5.246   1.060  10.696  0.0257 -0.3780 -0.0853
   86SAPS   C22 8171   5.213   1.073  10.454 -0.1182 -0.4360 -0.2238
   86SAPS   H2R 8172   5.132   1.130  10.405  1.1708  1.0553 -0.7007
   86SAPS   H2S 8173   5.309   1.096  10.403  0.8687  2.3258  2.5943
   86SAPS    C3 8174   5.185   1.469  10.679 -0.1307  0.3224 -0.7571
   86SAPS    HX 8175   5.175   1.524  10.775 -1.7903  0.0651 -0.7462
   86SAPS    HY 8176   5.081   1.472  10.640 -0.7675  1.3779  0.9083
   86SAPS   O31 8177   5.286   1.541  10.600  0.3833 -0.2680  0.3378
   86SAPS   C31 8178   5.265   1.526  10.466  0.4343  0.0314  0.5759
   86SAPS   O32 8179   5.155   1.522  10.418 -0.0276  0.4564  0.2903
   86SAPS   C32 8180   5.396   1.534  10.389  0.2983  0.2543  0.0111
   86SAPS   H2X 8181   5.467   1.580  10.460  1.6501 -0.9234 -0.5291
   86SAPS   H2Y 8182   5.364   1.610  10.314  0.2469 -1.1671 -1.4930
   86SAPS   C23 8183   5.166   0.924  10.449  0.1513  0.7029  0.4520
   86SAPS   H3R 8184   5.065   0.913  10.493  0.3506 -2.3140  0.3995
   86SAPS   H3S 8185   5.236   0.866  10.513 -0.2658  0.6882  0.9032
   86SAPS   C24 8186   5.161   0.879  10.300  0.1520  0.1686  0.1616
   86SAPS   H4R 8187   5.100   0.937  10.228 -0.0503 -0.5437 -0.2474
   86SAPS   H4S 8188   5.110   0.780  10.301  0.3876  0.0438  0.7621
   86SAPS   C25 8189   5.297   0.854  10.240  0.7136 -0.2987  0.0089
   86SAPS   H5R 8190   5.380   0.824  10.306  0.4728  1.9822  1.4390
   86SAPS   C26 8191   5.327   0.884  10.110 -0.1604  0.8224 -0.2134
   86SAPS   H6R 8192   5.428   0.850  10.081 -0.1198 -0.2154  1.0571
   86SAPS   C27 8193   5.231   0.933  10.008 -0.0129  0.5637  0.9587
   86SAPS   H7R 8194   5.165   1.001  10.067  1.8294  0.5514  3.1901
   86SAPS   H7S 8195   5.164   0.852   9.971 -0.9245  0.5500  2.5487
   86SAPS   C28 8196   5.309   1.014   9.908 -0.4176 -0.9359 -0.4711
   86SAPS   H8R 8197   5.356   1.104   9.950  0.6021 -0.8945 -1.6594
   86SAPS   C29 8198   5.344   0.990   9.784  0.4459 -0.5911  0.3233
   86SAPS   H9R 8199   5.403   1.064   9.728 -2.2875 -0.9721 -3.4676
   86SAPS  C210 8200   5.301   0.882   9.696  0.2734 -0.5166  0.2261
   86SAPS  H10R 8201   5.207   0.914   9.646  0.0059  0.5446  1.3588
   86SAPS  H10S 8202   5.263   0.794   9.754 -3.2715  0.1102 -0.9117
   86SAPS  C211 8203   5.400   0.834   9.589 -0.0811 -0.1123  0.1336
   86SAPS  H11R 8204   5.498   0.792   9.616  0.0537  0.8710  1.1939
   86SAPS  C212 8205   5.385   0.842   9.454  0.5051  0.1980 -0.0698
   86SAPS  H12R 8206   5.466   0.793   9.398 -0.5719 -1.5351 -0.1931
   86SAPS  C213 8207   5.277   0.914   9.366 -0.2038 -0.9221 -0.4432
   86SAPS  H13R 8208   5.300   1.023   9.364 -0.8574 -0.6805  1.9296
   86SAPS  H13S 8209   5.177   0.912   9.415  0.4913 -2.5020  1.0046
   86SAPS  C214 8210   5.276   0.846   9.226 -0.5152 -0.0921 -0.0855
   86SAPS  H14R 8211   5.303   0.740   9.223  0.7345  0.1769  0.6548
   86SAPS  C215 8212   5.273   0.909   9.107  0.0206 -0.3361 -0.2549
   86SAPS  H15R 8213   5.282   0.855   9.011 -2.2625  1.7824 -1.7747
   86SAPS  C216 8214   5.253   1.057   9.092 -0.4275  0.7623  0.2737
   86SAPS  H16R 8215   5.348   1.114   9.099  0.4340 -0.6391  0.1678
   86SAPS  H16S 8216   5.184   1.097   9.170  0.2219 -0.8357  1.7176
   86SAPS  C217 8217   5.178   1.084   8.954  0.2442  0.5148 -0.7184
   86SAPS  H17R 8218   5.156   1.193   8.952  1.9479  0.9376  0.5746
   86SAPS  H17S 8219   5.094   1.011   8.955  0.9541 -0.4635  2.9999
   86SAPS  C218 8220   5.255   1.065   8.824  0.4323 -0.0307  0.3754
   86SAPS  H18R 8221   5.254   0.957   8.800 -0.0763  0.2506 -0.9478
   86SAPS  H18S 8222   5.363   1.082   8.842  0.4362 -1.9913  2.6432
   86SAPS  C219 8223   5.200   1.147   8.703 -0.3199 -0.4560  0.4824
   86SAPS  H19R 8224   5.269   1.131   8.617  0.4073  2.0010  0.5278
   86SAPS  H19S 8225   5.204   1.257   8.721  1.1396 -0.2054 -1.0609
   86SAPS  C220 8226   5.055   1.113   8.677  0.7162  0.4751 -0.0612
   86SAPS  H20R 8227   4.992   1.101   8.768  4.1636  0.1420  2.4710
   86SAPS  H20S 8228   5.054   1.021   8.616 -2.0563  2.1777 -2.8977
   86SAPS  H20T 8229   5.008   1.191   8.614  3.5248  1.7501 -0.7441
   86SAPS   C33 8230   5.446   1.406  10.323 -0.4785 -0.6574 -0.3711
   86SAPS   H3X 8231   5.479   1.324  10.390  0.9221 -0.4949 -0.8367
   86SAPS   H3Y 8232   5.538   1.440  10.271  0.5549 -0.8919  1.2476
   86SAPS   C34 8233   5.349   1.346  10.220  0.0205  0.0679  0.0316
   86SAPS   H4X 8234   5.263   1.323  10.288  1.3435 -0.5554  1.5601
   86SAPS   H4Y 8235   5.398   1.258  10.175 -0.5725  0.2128 -0.9201
   86SAPS   C35 8236   5.312   1.448  10.112  0.3444 -0.3636 -0.2149
   86SAPS   H5X 8237   5.408   1.481  10.067 -0.7157  0.4339 -1.9711
   86SAPS   H5Y 8238   5.265   1.540  10.153  0.0812 -1.1440  1.3223
   86SAPS   C36 8239   5.208   1.387  10.017 -0.0328  0.9268  0.1996
   86SAPS   H6X 8240   5.112   1.355  10.062 -0.3484  0.7428 -0.5787
   86SAPS   H6Y 8241   5.250   1.294   9.973 -2.4983  0.2959 -1.0284
   86SAPS   C37 8242   5.198   1.485   9.903 -0.2990 -0.6842  0.5116
   86SAPS   H7X 8243   5.299   1.526   9.886 -0.6103 -0.0878  0.0637
   86SAPS   H7Y 8244   5.133   1.574   9.918 -1.4090 -1.3838  0.0795
   86SAPS   C38 8245   5.155   1.412   9.773  0.4269 -0.3727  0.4802
   86SAPS   H8X 8246   5.051   1.377   9.790 -0.0970  1.4326  1.1149
   86SAPS   H8Y 8247   5.221   1.325   9.751 -1.4969 -1.6648 -0.4945
   86SAPS   C39 8248   5.172   1.495   9.646 -0.2146 -0.6089  0.2900
   86SAPS   H9X 8249   5.268   1.550   9.645  0.3209 -1.5335 -0.9864
   86SAPS   H9Y 8250   5.100   1.579   9.637  0.9799  0.4727  0.6225
   86SAPS  C310 8251   5.165   1.413   9.524  0.4579 -0.4036  0.7645
   86SAPS  H10X 8252   5.070   1.356   9.515  0.5632 -0.2362 -2.8234
   86SAPS  H10Y 8253   5.240   1.331   9.533 -2.0317 -2.9037  0.3963
   86SAPS  C311 8254   5.180   1.499   9.402  0.2590 -0.8021  0.3206
   86SAPS  H11X 8255   5.275   1.557   9.398 -0.0425 -0.3516 -0.5884
   86SAPS  H11Y 8256   5.097   1.572   9.404  0.0888 -1.0140  1.3538
   86SAPS  C312 8257   5.170   1.435   9.266 -0.8295 -0.4409 -1.1344
   86SAPS  H12X 8258   5.065   1.408   9.244 -1.8397  0.5655  1.9620
   86SAPS  H12Y 8259   5.215   1.334   9.261 -1.5096 -0.7739 -0.6468
   86SAPS  C313 8260   5.233   1.526   9.150  0.2676  0.2456  0.1653
   86SAPS  H13X 8261   5.344   1.535   9.162  0.4344  0.7532 -1.5384
   86SAPS  H13Y 8262   5.192   1.629   9.161  1.1763  0.7156 -0.6372
   86SAPS  C314 8263   5.209   1.487   9.003 -0.3695  0.3244  0.6565
   86SAPS  H14X 8264   5.104   1.451   8.994 -0.4992  1.2883 -2.8523
   86SAPS  H14Y 8265   5.266   1.396   8.974 -1.0519 -1.1919  3.5857
   86SAPS  C315 8266   5.241   1.591   8.900  0.8324  0.9364  0.3397
   86SAPS  H15X 8267   5.344   1.632   8.902  0.7188  1.5732 -2.5794
   86SAPS  H15Y 8268   5.175   1.679   8.915 -2.3746 -1.1022 -0.8438
   86SAPS  C316 8269   5.216   1.538   8.752 -0.2723 -0.1651 -0.5278
   86SAPS  H16X 8270   5.126   1.473   8.755 -2.5216  2.8071  0.8170
   86SAPS  H16Y 8271   5.309   1.486   8.719 -0.1338 -0.1663 -0.1360
   86SAPS  C317 8272   5.173   1.652   8.659 -0.6369  0.0938  0.4960
   86SAPS  H17X 8273   5.196   1.637   8.551 -0.2382  0.7565  0.4858
   86SAPS  H17Y 8274   5.232   1.739   8.694  1.1199 -1.2033  0.8718
   86SAPS  C318 8275   5.022   1.691   8.657 -0.6925 -0.1563 -0.1493
   86SAPS  H18X 8276   5.000   1.752   8.567 -0.8104 -0.9292 -0.6487
   86SAPS  H18Y 8277   5.005   1.752   8.749 -0.9543  0.1077 -0.3670
   86SAPS  H18Z 8278   4.953   1.604   8.655 -0.4780 -0.3490  0.5265
   87SAPS     N 8279   4.929   2.878  11.251 -0.4658  1.0050  0.9789
   87SAPS   HN1 8280   4.965   2.954  11.189 -0.3696  1.5842  1.7350
   87SAPS   HN2 8281   4.907   2.911  11.347 -2.9562 -2.2356  1.7049
   87SAPS   HN3 8282   5.001   2.803  11.253  2.4533  3.3207 -2.4688
   87SAPS   C12 8283   4.808   2.817  11.188 -0.4621 -0.6869  0.1185
   87SAPS  H12A 8284   4.796   2.727  11.247 -0.7195  0.6516  2.2145
   87SAPS   C13 8285   4.691   2.907  11.210  0.8177  0.1303 -0.8250
   87SAPS  O13A 8286   4.704   3.022  11.258  0.6128  0.1228 -0.2331
   87SAPS  O13B 8287   4.583   2.879  11.156  0.2818 -0.7913  0.3541
   87SAPS   C11 8288   4.836   2.772  11.038  1.2308  0.3753  0.0270
   87SAPS  H11A 8289   4.804   2.854  10.970 -1.4064 -0.9677 -0.4928
   87SAPS  H11B 8290   4.759   2.697  11.009 -0.5651  1.9422  0.4785
   87SAPS     P 8291   5.000   2.576  10.982 -0.1460 -0.4168  0.1053
   87SAPS   O13 8292   5.145   2.561  10.952  0.2875  0.4011  0.0829
   87SAPS   O14 8293   4.945   2.497  11.097 -0.2733 -0.7289  0.0916
   87SAPS   O12 8294   4.972   2.729  11.013  0.4234 -0.0882  0.1185
   87SAPS   O11 8295   4.911   2.540  10.856 -0.4413 -0.3270  0.0534
   87SAPS    C1 8296   4.937   2.623  10.742  0.0271 -0.0091  0.6652
   87SAPS    HA 8297   4.915   2.729  10.766 -1.0688 -0.2631  0.8524
   87SAPS    HB 8298   5.043   2.613  10.710 -0.0887 -0.0672  0.2947
   87SAPS    C2 8299   4.829   2.578  10.636  0.0159 -0.2063 -0.2504
   87SAPS    HS 8300   4.832   2.466  10.634 -1.1767 -0.3094  1.2733
   87SAPS   O21 8301   4.855   2.635  10.500 -0.0852 -0.1953  0.6147
   87SAPS   C21 8302   4.959   2.583  10.446 -0.9735 -0.3969  1.2418
   87SAPS   O22 8303   5.018   2.481  10.485  0.0986 -0.4856  0.1117
   87SAPS   C22 8304   4.994   2.670  10.328 -0.0254  0.5045  0.6000
   87SAPS   H2R 8305   4.919   2.751  10.319 -1.5213 -0.9181 -0.3460
   87SAPS   H2S 8306   5.091   2.719  10.348 -0.4931  2.1778 -0.9820
   87SAPS    C3 8307   4.684   2.619  10.676 -0.3454 -0.1119 -0.3963
   87SAPS    HX 8308   4.681   2.730  10.675  0.2216 -0.0842  0.1576
   87SAPS    HY 8309   4.659   2.585  10.779 -2.3953 -1.3275 -1.2424
   87SAPS   O31 8310   4.587   2.567  10.583 -0.1187  0.1109  0.1615
   87SAPS   C31 8311   4.467   2.627  10.575 -0.8779 -0.5232  0.2855
   87SAPS   O32 8312   4.433   2.717  10.645  0.4009 -0.5306  0.2198
   87SAPS   C32 8313   4.382   2.562  10.470 -0.4625  0.0393 -0.2617
   87SAPS   H2X 8314   4.286   2.614  10.451 -1.3654 -2.2541 -2.7166
   87SAPS   H2Y 8315   4.367   2.459  10.509  1.0188  0.5993  1.9700
   87SAPS   C23 8316   5.001   2.598  10.199  0.6921 -0.0029  0.1994
   87SAPS   H3R 8317   5.067   2.508  10.192  0.7160  0.0630 -0.5975
   87SAPS   H3S 8318   5.055   2.668  10.132 -0.2898  0.9687  0.4049
   87SAPS   C24 8319   4.859   2.583  10.140 -0.6561  0.0604 -0.0462
   87SAPS   H4R 8320   4.816   2.685  10.127  1.0570  0.5122 -3.3362
   87SAPS   H4S 8321   4.790   2.539  10.215 -0.6768  1.1075  0.5779
   87SAPS   C25 8322   4.850   2.502  10.012 -0.2506  0.4271  0.4164
   87SAPS   H5R 8323   4.822   2.397  10.030 -1.8579  0.5899 -0.9069
   87SAPS   C26 8324   4.875   2.543   9.893 -0.2036  0.4519 -0.5643
   87SAPS   H6R 8325   4.866   2.468   9.814 -2.7563  0.6510 -0.5594
   87SAPS   C27 8326   4.917   2.685   9.860  0.1376 -0.5534  0.0144
   87SAPS   H7R 8327   4.939   2.746   9.951 -1.8616 -0.0856  0.2326
   87SAPS   H7S 8328   4.834   2.728   9.800 -0.4548 -3.0090 -1.0244
   87SAPS   C28 8329   5.037   2.694   9.776 -0.5868  0.2713  0.0197
   87SAPS   H8R 8330   5.125   2.685   9.841 -0.9142  0.7608  0.5397
   87SAPS   C29 8331   5.049   2.723   9.643  0.4048  0.0735 -0.5716
   87SAPS   H9R 8332   5.151   2.721   9.603  1.3526  0.2617  1.7412
   87SAPS  C210 8333   4.932   2.760   9.554  0.2215 -0.7335 -0.1233
   87SAPS  H10R 8334   4.938   2.869   9.535 -2.3577 -0.6012 -0.5917
   87SAPS  H10S 8335   4.839   2.737   9.610 -0.0432  0.2586 -0.1461
   87SAPS  C211 8336   4.929   2.694   9.423  0.1393 -0.4070 -0.0675
   87SAPS  H11R 8337   4.862   2.607   9.423  0.8351 -0.9526 -0.3488
   87SAPS  C212 8338   4.976   2.739   9.309  0.5107  0.4106 -0.1799
   87SAPS  H12R 8339   4.972   2.676   9.218 -3.2108  0.3393 -0.1249
   87SAPS  C213 8340   5.062   2.862   9.278  0.2951  0.6108 -0.6197
   87SAPS  H13R 8341   5.139   2.829   9.205  0.4943  3.0391 -1.5856
   87SAPS  H13S 8342   5.116   2.902   9.366 -1.0374  1.1984 -0.0347
   87SAPS  C214 8343   4.980   2.971   9.214  0.5028  0.3845  0.6974
   87SAPS  H14R 8344   4.936   3.042   9.287  0.3886 -1.7100  2.7734
   87SAPS  C215 8345   4.956   2.981   9.077  0.2293  0.2913  0.0562
   87SAPS  H15R 8346   4.890   3.061   9.040  0.3797  1.1788  1.6357
   87SAPS  C216 8347   4.997   2.886   8.965 -0.0522  0.8638  0.2456
   87SAPS  H16R 8348   4.899   2.848   8.927 -0.6373 -0.5234  2.9148
   87SAPS  H16S 8349   5.054   2.808   9.019  0.2081  1.1241  0.3505
   87SAPS  C217 8350   5.082   2.954   8.858 -0.0296 -0.7105  0.3574
   87SAPS  H17R 8351   5.101   2.881   8.777 -1.3132  1.7874 -2.3631
   87SAPS  H17S 8352   5.182   2.971   8.904 -0.6618  0.2565  1.4292
   87SAPS  C218 8353   5.007   3.063   8.799 -0.1254 -0.1367 -0.5257
   87SAPS  H18R 8354   5.023   3.147   8.870  0.1883  0.1456 -0.9257
   87SAPS  H18S 8355   4.898   3.045   8.803 -0.0042 -0.8668 -0.2181
   87SAPS  C219 8356   5.065   3.108   8.670  0.2879  0.0657  0.6109
   87SAPS  H19R 8357   5.174   3.129   8.670  0.5091 -0.6636 -2.4529
   87SAPS  H19S 8358   5.016   3.207   8.653 -1.9384 -1.2359 -1.0403
   87SAPS  C220 8359   5.041   3.027   8.541 -0.1555  0.0268 -0.6359
   87SAPS  H20R 8360   5.090   2.929   8.553  0.1770  0.3973  1.2418
   87SAPS  H20S 8361   5.077   3.087   8.454  0.1557 -1.5888 -1.6695
   87SAPS  H20T 8362   4.932   3.007   8.531 -0.3913  0.8293  0.1830
   87SAPS   C33 8363   4.450   2.560  10.334  0.5703  0.3030  0.0777
   87SAPS   H3X 8364   4.393   2.490  10.269 -0.2813 -1.2269  2.3059
   87SAPS   H3Y 8365   4.551   2.516  10.349 -0.3973 -1.1785  3.4592
   87SAPS   C34 8366   4.474   2.697  10.269 -0.5556  0.6836 -0.6697
   87SAPS   H4X 8367   4.584   2.697  10.254  0.0029 -0.9599  2.4357
   87SAPS   H4Y 8368   4.451   2.772  10.348  1.8360 -0.5592  1.3431
   87SAPS   C35 8369   4.409   2.718  10.142  0.1135 -0.0051  0.5637
   87SAPS   H5X 8370   4.406   2.827  10.118 -2.4679 -0.2108 -0.4283
   87SAPS   H5Y 8371   4.302   2.686  10.139  0.6602 -1.9350  0.5102
   87SAPS   C36 8372   4.491   2.662  10.023 -0.0890 -0.2931 -0.1289
   87SAPS   H6X 8373   4.527   2.557  10.029  1.4493  0.2439  0.5444
   87SAPS   H6Y 8374   4.582   2.726  10.029  0.2507 -0.5387 -2.1738
   87SAPS   C37 8375   4.431   2.693   9.886  0.5405  0.6072 -0.0571
   87SAPS   H7X 8376   4.416   2.799   9.855 -0.6835  0.4893  0.0893
   87SAPS   H7Y 8377   4.325   2.660   9.892  1.0068 -0.7347  3.9431
   87SAPS   C38 8378   4.504   2.607   9.782  0.4086  0.0919 -0.4522
   87SAPS   H8X 8379   4.500   2.498   9.803  0.7890 -0.4905 -3.0688
   87SAPS   H8Y 8380   4.612   2.630   9.792  0.2829 -0.1619  2.3309
   87SAPS   C39 8381   4.450   2.617   9.639  0.1678  0.0456 -0.6117
   87SAPS   H9X 8382   4.341   2.598   9.632  0.0661  0.1705  0.3753
   87SAPS   H9Y 8383   4.491   2.532   9.581  0.5181 -0.3999  0.2600
   87SAPS  C310 8384   4.491   2.745   9.565 -0.1354 -0.2336  0.0715
   87SAPS  H10X 8385   4.598   2.762   9.589  0.0179 -0.8304 -0.1838
   87SAPS  H10Y 8386   4.451   2.838   9.613  1.6559 -0.8819  3.0751
   87SAPS  C311 8387   4.471   2.735   9.412  0.4992  0.2496  0.1848
   87SAPS  H11X 8388   4.363   2.717   9.395  0.4472 -2.0781  2.3274
   87SAPS  H11Y 8389   4.543   2.657   9.378  1.2767  0.6852  0.7892
   87SAPS  C312 8390   4.518   2.865   9.344 -0.0795  0.2530 -0.1417
   87SAPS  H12X 8391   4.619   2.897   9.378  0.4901 -2.7554  1.3257
   87SAPS  H12Y 8392   4.442   2.939   9.376 -0.4687 -0.2538  0.1236
   87SAPS  C313 8393   4.501   2.857   9.192  0.5449  0.0842  0.2073
   87SAPS  H13X 8394   4.491   2.959   9.151 -1.6776  0.5312  1.6636
   87SAPS  H13Y 8395   4.408   2.803   9.164  2.1158 -1.9928 -1.2975
   87SAPS  C314 8396   4.609   2.768   9.117  0.0031 -0.3187 -0.3536
   87SAPS  H14X 8397   4.624   2.672   9.171 -0.4830  0.5055  1.3402
   87SAPS  H14Y 8398   4.705   2.824   9.117 -0.3497  0.3485 -1.9672
   87SAPS  C315 8399   4.570   2.745   8.975 -0.0432 -0.1521  0.1922
   87SAPS  H15X 8400   4.463   2.714   8.970 -0.1015 -0.1838  1.3761
   87SAPS  H15Y 8401   4.626   2.668   8.918  0.7424  0.6779 -0.1686
   87SAPS  C316 8402   4.574   2.873   8.897 -0.3132 -0.1190 -0.3897
   87SAPS  H16X 8403   4.680   2.901   8.908 -0.1071 -1.4319  1.5573
   87SAPS  H16Y 8404   4.506   2.943   8.950  1.0650  1.5201 -0.7042
   87SAPS  C317 8405   4.530   2.859   8.756  0.1915 -0.1242 -0.6748
   87SAPS  H17X 8406   4.421   2.843   8.763  0.6621 -3.2979  1.3205
   87SAPS  H17Y 8407   4.577   2.766   8.718 -0.0696 -1.1941  1.5049
   87SAPS  C318 8408   4.563   2.977   8.658 -0.1193  0.5696 -0.1423
   87SAPS  H18X 8409   4.522   3.067   8.710  1.5635  0.2879  1.8348
   87SAPS  H18Y 8410   4.506   2.954   8.566 -0.5998 -3.0194  0.9176
   87SAPS  H18Z 8411   4.662   2.988   8.609 -0.0558  0.4651 -0.0385
   88SAPS     N 8412   2.171   0.280  11.075 -0.3337  0.5355 -0.3449
   88SAPS   HN1 8413   2.126   0.267  10.982 -0.8156  1.4063 -0.2388
   88SAPS   HN2 8414   2.124   0.218  11.144  2.0290  0.5204  1.4001
   88SAPS   HN3 8415   2.169   0.378  11.110  0.2161  0.7541 -0.9071
   88SAPS   C12 8416   2.311   0.229  11.066  0.1306  0.7541  0.4486
   88SAPS  H12A 8417   2.364   0.288  10.992  1.3221 -1.8046 -0.8507
   88SAPS   C13 8418   2.394   0.225  11.197 -0.3963  0.0518 -0.7651
   88SAPS  O13A 8419   2.337   0.244  11.309 -0.5922  0.5843 -0.1953
   88SAPS  O13B 8420   2.516   0.209  11.189  0.1222  0.1545  0.2829
   88SAPS   C11 8421   2.312   0.092  10.986 -0.6144  0.1373 -0.0727
   88SAPS  H11A 8422   2.420   0.065  10.985 -0.3701  1.0257 -1.7633
   88SAPS  H11B 8423   2.298   0.095  10.875  0.1747  2.1686 -0.1550
   88SAPS     P 8424   2.247  -0.153  11.042  0.3198  0.2245  0.0028
   88SAPS   O13 8425   2.385  -0.184  11.040 -0.7908 -0.2747  0.9627
   88SAPS   O14 8426   2.169  -0.204  11.155  0.2510 -0.4204  0.4307
   88SAPS   O12 8427   2.224   0.002  11.046  0.6006  0.2681 -0.4915
   88SAPS   O11 8428   2.180  -0.201  10.908  0.5546  0.7344  0.1037
   88SAPS    C1 8429   2.241  -0.178  10.786 -0.5992 -0.4495  0.3891
   88SAPS    HA 8430   2.204  -0.085  10.737  2.6302  0.4102 -0.6779
   88SAPS    HB 8431   2.352  -0.169  10.787 -0.6956  1.1092 -0.0345
   88SAPS    C2 8432   2.196  -0.274  10.671 -0.6289  0.7067 -0.5961
   88SAPS    HS 8433   2.251  -0.243  10.580  0.6569 -3.3878 -1.4048
   88SAPS   O21 8434   2.054  -0.270  10.651 -1.0238  0.6992  0.0074
   88SAPS   C21 8435   2.022  -0.283  10.517 -0.0382 -0.4585 -0.0220
   88SAPS   O22 8436   2.099  -0.300  10.428 -0.6576 -0.0067 -0.0159
   88SAPS   C22 8437   1.866  -0.280  10.504 -0.5701 -0.1517  0.8567
   88SAPS   H2R 8438   1.830  -0.216  10.588  2.2053  2.3725  0.2967
   88SAPS   H2S 8439   1.846  -0.222  10.411  1.1746 -1.7273 -0.5720
   88SAPS    C3 8440   2.240  -0.420  10.716 -0.4670  0.1191 -0.3327
   88SAPS    HX 8441   2.162  -0.461  10.783 -1.2299  0.9015 -0.7217
   88SAPS    HY 8442   2.335  -0.416  10.774 -1.1063 -0.3074  0.7638
   88SAPS   O31 8443   2.267  -0.509  10.600  0.1670 -0.4931 -0.0167
   88SAPS   C31 8444   2.165  -0.576  10.558 -0.0884 -0.2732  0.3119
   88SAPS   O32 8445   2.066  -0.590  10.627 -0.4052  0.5316 -0.7681
   88SAPS   C32 8446   2.197  -0.653  10.428 -0.3948 -0.1318 -0.2796
   88SAPS   H2X 8447   2.105  -0.645  10.366 -1.1543 -1.2728  0.6572
   88SAPS   H2Y 8448   2.213  -0.762  10.444  2.8099 -0.0066 -1.8463
   88SAPS   C23 8449   1.799  -0.421  10.503  0.0579 -0.3938  0.2217
   88SAPS   H3R 8450   1.696  -0.411  10.541 -0.2997 -1.1801 -0.4918
   88SAPS   H3S 8451   1.860  -0.481  10.574  1.8529  0.2203 -0.7161
   88SAPS   C24 8452   1.804  -0.489  10.357  0.4375  0.4810  0.2987
   88SAPS   H4R 8453   1.897  -0.478  10.297 -1.3938 -0.7912 -3.0458
   88SAPS   H4S 8454   1.732  -0.429  10.299  0.6336 -0.0753 -0.5381
   88SAPS   C25 8455   1.759  -0.634  10.366  0.6431 -0.5030 -0.2586
   88SAPS   H5R 8456   1.696  -0.651  10.455 -0.5149  0.3066 -0.8977
   88SAPS   C26 8457   1.797  -0.734  10.285  0.1283 -0.3806 -0.2132
   88SAPS   H6R 8458   1.765  -0.837  10.305 -0.5285  0.0879  1.3242
   88SAPS   C27 8459   1.890  -0.712  10.172 -0.5220  0.7211 -0.3161
   88SAPS   H7R 8460   1.991  -0.687  10.210 -1.0044  1.3520  0.5925
   88SAPS   H7S 8461   1.860  -0.627  10.107  1.5891  0.8164 -1.2495
   88SAPS   C28 8462   1.909  -0.837  10.089 -0.2530 -0.4509 -0.6110
   88SAPS   H8R 8463   1.978  -0.907  10.138  1.3002  1.5647  0.2185
   88SAPS   C29 8464   1.847  -0.866   9.972  0.2740  0.0867  0.1039
   88SAPS   H9R 8465   1.868  -0.963   9.923  0.2663  0.6139 -0.9845
   88SAPS  C210 8466   1.747  -0.775   9.910  0.7328  0.4446 -0.1326
   88SAPS  H10R 8467   1.794  -0.744   9.814  0.6766  0.0968 -0.2758
   88SAPS  H10S 8468   1.736  -0.673   9.952 -0.4833  0.2706  0.0190
   88SAPS  C211 8469   1.618  -0.850   9.882  0.5102  0.0404 -0.6132
   88SAPS  H11R 8470   1.560  -0.866   9.974  2.0588  0.3296  0.4434
   88SAPS  C212 8471   1.571  -0.904   9.761  0.1864  0.1598  0.2489
   88SAPS  H12R 8472   1.476  -0.960   9.763  0.7555 -0.8520 -0.2378
   88SAPS  C213 8473   1.637  -0.899   9.620 -0.5308 -0.3390  0.0600
   88SAPS  H13R 8474   1.584  -0.966   9.549  0.8005 -1.0042 -0.3460
   88SAPS  H13S 8475   1.745  -0.922   9.632 -0.0392  1.8807  0.4567
   88SAPS  C214 8476   1.633  -0.763   9.562 -0.0875  0.3881 -0.3458
   88SAPS  H14R 8477   1.627  -0.678   9.632 -4.1803  0.5917 -0.7116
   88SAPS  C215 8478   1.638  -0.733   9.424  0.7315 -0.2252 -1.3600
   88SAPS  H15R 8479   1.620  -0.628   9.394 -1.9978 -0.1009  0.3498
   88SAPS  C216 8480   1.636  -0.830   9.315 -0.1966 -0.3854 -0.5576
   88SAPS  H16R 8481   1.555  -0.797   9.246  0.1344  1.9225  0.0675
   88SAPS  H16S 8482   1.628  -0.937   9.342 -1.6592  0.0682  1.0387
   88SAPS  C217 8483   1.753  -0.810   9.220  1.1052  0.0067 -0.0275
   88SAPS  H17R 8484   1.848  -0.841   9.269  0.9587 -0.3249  0.0498
   88SAPS  H17S 8485   1.776  -0.704   9.196  0.6147 -0.2534 -1.7510
   88SAPS  C218 8486   1.731  -0.904   9.099  0.1513 -0.3267  0.9324
   88SAPS  H18R 8487   1.634  -0.879   9.052 -0.2722  0.1143  2.0180
   88SAPS  H18S 8488   1.704  -1.001   9.146 -0.4985  0.4136  2.1341
   88SAPS  C219 8489   1.852  -0.927   9.015 -1.1518  0.4747  0.5751
   88SAPS  H19R 8490   1.829  -1.020   8.959  0.5220  0.5243 -0.2361
   88SAPS  H19S 8491   1.940  -0.963   9.073 -2.2200 -1.2740  1.1738
   88SAPS  C220 8492   1.885  -0.817   8.916  0.1966 -0.4250 -0.2466
   88SAPS  H20R 8493   1.951  -0.738   8.955  0.0065 -1.3083  2.0532
   88SAPS  H20S 8494   1.786  -0.776   8.885  1.0815  0.1251 -2.5123
   88SAPS  H20T 8495   1.938  -0.855   8.827 -0.4879  0.2171 -0.9416
   88SAPS   C33 8496   2.316  -0.594  10.354 -0.7030 -0.3611  1.1441
   88SAPS   H3X 8497   2.409  -0.607  10.414  0.6395 -0.2070 -0.8205
   88SAPS   H3Y 8498   2.300  -0.485  10.341 -1.8805 -0.4173  1.9415
   88SAPS   C34 8499   2.355  -0.655  10.223 -0.4520 -0.6586  0.0154
   88SAPS   H4X 8500   2.424  -0.741  10.239  2.8374  0.8459 -4.2468
   88SAPS   H4Y 8501   2.417  -0.581  10.167 -0.1272 -0.8474  0.1196
   88SAPS   C35 8502   2.232  -0.700  10.131  0.4758  0.2181 -0.5786
   88SAPS   H5X 8503   2.163  -0.613  10.130 -0.0239 -0.1163  0.9206
   88SAPS   H5Y 8504   2.193  -0.789  10.185  0.9003  1.5489  2.0860
   88SAPS   C36 8505   2.276  -0.751   9.982  0.4853 -0.5774  0.2698
   88SAPS   H6X 8506   2.208  -0.833   9.949  0.4829 -0.0005 -1.2273
   88SAPS   H6Y 8507   2.379  -0.792   9.990 -0.1156 -1.8780  2.1183
   88SAPS   C37 8508   2.261  -0.634   9.886  0.4899 -0.0143 -0.4320
   88SAPS   H7X 8509   2.347  -0.567   9.909  0.1290  0.1189  0.5998
   88SAPS   H7Y 8510   2.169  -0.580   9.917 -0.4679 -1.8487  0.0742
   88SAPS   C38 8511   2.259  -0.667   9.741  0.6107  0.0215  0.1788
   88SAPS   H8X 8512   2.339  -0.739   9.714 -0.8376 -1.0640 -1.4401
   88SAPS   H8Y 8513   2.259  -0.581   9.671 -0.1017  0.3101  0.5223
   88SAPS   C39 8514   2.131  -0.751   9.695 -0.5760  0.9643 -0.2836
   88SAPS   H9X 8515   2.063  -0.679   9.646  0.7586  2.4293 -0.0460
   88SAPS   H9Y 8516   2.084  -0.815   9.773 -2.3325  3.5309  0.8865
   88SAPS  C310 8517   2.170  -0.849   9.591 -0.0695 -0.2424  0.6081
   88SAPS  H10X 8518   2.083  -0.913   9.563  0.0750  0.1159 -0.7467
   88SAPS  H10Y 8519   2.249  -0.906   9.644 -0.6023 -3.0982 -1.4498
   88SAPS  C311 8520   2.216  -0.785   9.460 -0.5684 -0.2752  0.5958
   88SAPS  H11X 8521   2.302  -0.831   9.406 -0.6471  2.4358 -2.1417
   88SAPS  H11Y 8522   2.257  -0.682   9.470 -0.3387 -0.2844 -0.2039
   88SAPS  C312 8523   2.107  -0.776   9.357  0.4719 -0.0178  0.0825
   88SAPS  H12X 8524   2.011  -0.736   9.397  1.1242  0.9284  0.7426
   88SAPS  H12Y 8525   2.076  -0.877   9.323  1.2971 -0.3376  0.2552
   88SAPS  C313 8526   2.135  -0.695   9.232  0.2597 -0.4752 -0.0893
   88SAPS  H13X 8527   2.063  -0.736   9.158 -1.2005  1.4538  0.2028
   88SAPS  H13Y 8528   2.234  -0.721   9.188  0.3874  0.0925 -0.1470
   88SAPS  C314 8529   2.125  -0.543   9.256 -0.2411  0.8657  0.3373
   88SAPS  H14X 8530   2.189  -0.513   9.342 -0.0218 -1.3540  1.0172
   88SAPS  H14Y 8531   2.017  -0.527   9.274 -0.6316 -1.4787  0.3386
   88SAPS  C315 8532   2.169  -0.450   9.138  0.6088 -0.1605 -0.5645
   88SAPS  H15X 8533   2.100  -0.482   9.056 -2.7723  0.4873  1.8348
   88SAPS  H15Y 8534   2.277  -0.466   9.119  0.7852  0.2532  0.0719
   88SAPS  C316 8535   2.138  -0.301   9.172  0.0778  0.5270  0.6619
   88SAPS  H16X 8536   2.185  -0.269   9.268  3.0565 -1.1160 -0.1180
   88SAPS  H16Y 8537   2.028  -0.287   9.173 -0.2463 -1.5826  2.2669
   88SAPS  C317 8538   2.191  -0.211   9.053 -0.1397  0.2758  1.3413
   88SAPS  H17X 8539   2.152  -0.257   8.960  1.9437 -3.0307  1.9297
   88SAPS  H17Y 8540   2.300  -0.229   9.039 -0.0745  0.4328  1.6350
   88SAPS  C318 8541   2.149  -0.065   9.052  0.7283 -0.0826  0.5654
   88SAPS  H18X 8542   2.166  -0.003   8.961 -2.6512  1.1699  0.6297
   88SAPS  H18Y 8543   2.180  -0.018   9.147  0.6464  2.2695 -0.4997
   88SAPS  H18Z 8544   2.038  -0.062   9.042  0.9327  0.5449 -3.7280
   89SAPS     N 8545   1.731   1.207  10.822  0.0172 -0.2020  0.5979
   89SAPS   HN1 8546   1.777   1.250  10.740  1.6370 -0.0893  1.5260
   89SAPS   HN2 8547   1.721   1.283  10.893  2.8767  0.1183  0.7647
   89SAPS   HN3 8548   1.778   1.123  10.860  0.2033  0.5018  2.0063
   89SAPS   C12 8549   1.600   1.171  10.763  0.6861  0.2842  0.6199
   89SAPS  H12A 8550   1.626   1.123  10.670  0.8526  0.2573  0.6799
   89SAPS   C13 8551   1.507   1.079  10.845  0.2007 -0.0073 -0.4052
   89SAPS  O13A 8552   1.551   1.047  10.960 -0.5890  0.6300  0.1607
   89SAPS  O13B 8553   1.405   1.025  10.793 -0.2038 -0.4077  0.0378
   89SAPS   C11 8554   1.523   1.293  10.716 -0.1999 -0.2016 -0.6898
   89SAPS  H11A 8555   1.531   1.368  10.798  0.3088 -1.6041  0.6055
   89SAPS  H11B 8556   1.420   1.262  10.690  0.0962 -1.1250 -0.7998
   89SAPS     P 8557   1.535   1.480  10.537 -0.0754 -0.0063 -0.1778
   89SAPS   O13 8558   1.509   1.570  10.648  0.1724  0.7423 -0.1054
   89SAPS   O14 8559   1.625   1.532  10.428  0.0754 -0.6815 -0.2605
   89SAPS   O12 8560   1.594   1.345  10.604 -0.1438  0.0137  0.0404
   89SAPS   O11 8561   1.398   1.431  10.479 -0.6553  0.0864  0.7299
   89SAPS    C1 8562   1.383   1.311  10.403 -0.0201  0.5549 -0.3597
   89SAPS    HA 8563   1.478   1.280  10.354 -1.0177  1.0021 -2.7332
   89SAPS    HB 8564   1.361   1.233  10.479 -2.3416  2.5118  1.1046
   89SAPS    C2 8565   1.263   1.317  10.297  0.3459 -0.2518  0.1213
   89SAPS    HS 8566   1.261   1.214  10.255 -0.8529 -0.6109  1.0100
   89SAPS   O21 8567   1.270   1.418  10.190  0.0146 -0.5372 -0.9574
   89SAPS   C21 8568   1.357   1.389  10.102 -0.2166  0.6299  0.1066
   89SAPS   O22 8569   1.412   1.279  10.092 -0.5879 -0.2193 -0.2464
   89SAPS   C22 8570   1.370   1.504  10.005 -0.5639 -0.5888  0.6002
   89SAPS   H2R 8571   1.279   1.568  10.007  0.3471  0.8042 -0.2727
   89SAPS   H2S 8572   1.447   1.576  10.039 -0.1153 -0.7241 -0.1110
   89SAPS    C3 8573   1.122   1.329  10.366  0.2602  0.5560  0.2048
   89SAPS    HX 8574   1.112   1.428  10.417  2.8316  0.4520  1.0645
   89SAPS    HY 8575   1.112   1.244  10.437 -0.5415  0.4373 -0.0422
   89SAPS   O31 8576   1.031   1.336  10.254  0.5755  0.2057 -0.5965
   89SAPS   C31 8577   0.993   1.219  10.212  0.0090 -0.4942 -0.3175
   89SAPS   O32 8578   0.998   1.113  10.274 -0.3310  0.3121 -0.3888
   89SAPS   C32 8579   0.902   1.224  10.092  0.1017 -0.3350  0.0219
   89SAPS   H2X 8580   0.827   1.306  10.094 -0.5243 -0.8390  3.6556
   89SAPS   H2Y 8581   0.841   1.133  10.077 -1.1586  0.6179 -0.8680
   89SAPS   C23 8582   1.404   1.471   9.859 -0.8213  0.3356 -0.0055
   89SAPS   H3R 8583   1.489   1.399   9.857 -1.7801 -0.8285  0.3194
   89SAPS   H3S 8584   1.444   1.566   9.817  0.3246  1.2322  2.8271
   89SAPS   C24 8585   1.291   1.421   9.780 -0.5466  0.5894  0.6321
   89SAPS   H4R 8586   1.222   1.508   9.780  0.3080  1.2908  1.4167
   89SAPS   H4S 8587   1.236   1.343   9.836 -0.5762 -1.3189 -1.9177
   89SAPS   C25 8588   1.334   1.367   9.642 -0.0194  0.8213  0.1261
   89SAPS   H5R 8589   1.374   1.265   9.636  0.4081  0.9254  1.0654
   89SAPS   C26 8590   1.317   1.436   9.527  0.4865 -0.2851  0.0597
   89SAPS   H6R 8591   1.354   1.386   9.436  1.3805  1.1128 -0.3720
   89SAPS   C27 8592   1.254   1.571   9.509  0.1097  0.4182  0.2729
   89SAPS   H7R 8593   1.248   1.639   9.597 -1.8596  1.7140 -0.7756
   89SAPS   H7S 8594   1.148   1.544   9.487  0.8922 -0.5589 -2.6357
   89SAPS   C28 8595   1.320   1.652   9.398  0.0000  0.8240 -0.5476
   89SAPS   H8R 8596   1.402   1.715   9.436 -0.6094  0.9700  0.5701
   89SAPS   C29 8597   1.287   1.644   9.264 -0.0815 -0.1834  0.2271
   89SAPS   H9R 8598   1.335   1.714   9.194  0.2527 -0.3947  0.2470
   89SAPS  C210 8599   1.178   1.553   9.205  0.3204 -0.6238 -0.2104
   89SAPS  H10R 8600   1.081   1.608   9.201  0.2716 -0.7619 -1.0992
   89SAPS  H10S 8601   1.143   1.474   9.276  0.8879  0.3000  1.1384
   89SAPS  C211 8602   1.202   1.487   9.069 -0.3930  0.3092 -0.3238
   89SAPS  H11R 8603   1.151   1.533   8.983  2.4781 -0.3636 -2.5344
   89SAPS  C212 8604   1.280   1.381   9.047  0.1561 -0.0106 -0.0676
   89SAPS  H12R 8605   1.280   1.341   8.944  1.1430  0.4454 -0.2614
   89SAPS  C213 8606   1.362   1.299   9.143  0.2856 -0.0386  0.6692
   89SAPS  H13R 8607   1.375   1.193   9.111  0.0014  0.2663 -0.5201
   89SAPS  H13S 8608   1.313   1.291   9.242  0.1814 -2.4806  0.4906
   89SAPS  C214 8609   1.493   1.358   9.173 -0.0037 -0.7385 -0.2516
   89SAPS  H14R 8610   1.487   1.453   9.229  0.8996 -0.6726 -0.2532
   89SAPS  C215 8611   1.616   1.320   9.127 -0.7477 -0.7266 -0.0929
   89SAPS  H15R 8612   1.705   1.369   9.168  0.3640 -1.0723 -1.9828
   89SAPS  C216 8613   1.651   1.205   9.038 -0.2361  0.5308  0.6859
   89SAPS  H16R 8614   1.564   1.147   9.000  0.0482 -0.0798  0.9587
   89SAPS  H16S 8615   1.712   1.127   9.088 -2.1521 -0.9186  0.8768
   89SAPS  C217 8616   1.740   1.242   8.910  0.1660  0.2074 -0.5381
   89SAPS  H17R 8617   1.827   1.307   8.933  0.6045  0.8669 -3.5535
   89SAPS  H17S 8618   1.670   1.299   8.845  0.3518  0.6662 -0.3402
   89SAPS  C218 8619   1.795   1.122   8.845 -0.9196 -0.1863  0.9176
   89SAPS  H18R 8620   1.713   1.059   8.805 -1.5500 -1.2540  3.7032
   89SAPS  H18S 8621   1.846   1.075   8.932  1.0229  1.0990  0.5567
   89SAPS  C219 8622   1.902   1.167   8.741  0.0199  0.0545 -1.0543
   89SAPS  H19R 8623   1.973   1.091   8.703  1.4083  1.3714 -1.2092
   89SAPS  H19S 8624   1.965   1.240   8.796 -0.9415  0.0578  0.0937
   89SAPS  C220 8625   1.833   1.239   8.627 -0.3512 -0.0434 -0.3901
   89SAPS  H20R 8626   1.791   1.339   8.652 -1.3987 -0.0050 -2.1300
   89SAPS  H20S 8627   1.743   1.182   8.595  1.0604 -2.8906  0.3586
   89SAPS  H20T 8628   1.890   1.239   8.532 -0.1969 -0.5392 -0.3012
   89SAPS   C33 8629   0.980   1.227   9.959  0.1921  0.6539 -0.5201
   89SAPS   H3X 8630   1.047   1.140   9.943 -2.0046 -1.3845  0.8462
   89SAPS   H3Y 8631   1.034   1.325   9.964 -2.5384  2.2160  0.1765
   89SAPS   C34 8632   0.887   1.254   9.837 -0.5788  0.2225 -0.6880
   89SAPS   H4X 8633   0.840   1.353   9.859  0.5907  0.4076  1.1904
   89SAPS   H4Y 8634   0.813   1.178   9.805  0.8278 -0.7874 -1.6574
   89SAPS   C35 8635   0.972   1.282   9.713  0.1886 -0.6219  0.5470
   89SAPS   H5X 8636   1.038   1.196   9.688  0.0422 -0.9656  1.3126
   89SAPS   H5Y 8637   1.036   1.372   9.724 -1.2771  0.3073  2.0341
   89SAPS   C36 8638   0.877   1.318   9.595 -0.5301  0.1677  0.0201
   89SAPS   H6X 8639   0.823   1.414   9.605 -1.0008 -0.1318  0.4058
   89SAPS   H6Y 8640   0.794   1.244   9.596  0.1533 -0.6191  0.3732
   89SAPS   C37 8641   0.946   1.299   9.455 -0.6281 -0.1674  0.1487
   89SAPS   H7X 8642   1.001   1.202   9.452  0.9488  0.4274  3.6079
   89SAPS   H7Y 8643   1.017   1.383   9.437  0.1370 -0.8094  0.0985
   89SAPS   C38 8644   0.844   1.313   9.342  0.8669 -0.7312  0.2649
   89SAPS   H8X 8645   0.771   1.397   9.348  2.2702  0.9876 -3.6329
   89SAPS   H8Y 8646   0.777   1.225   9.352 -0.5079 -0.1332 -2.5723
   89SAPS   C39 8647   0.903   1.296   9.199  0.2656 -0.5936  0.2749
   89SAPS   H9X 8648   0.921   1.190   9.172  1.5839  0.1859 -2.2599
   89SAPS   H9Y 8649   1.002   1.343   9.182 -0.4318  0.1380 -2.2960
   89SAPS  C310 8650   0.796   1.338   9.099 -0.0111  0.5340 -0.8774
   89SAPS  H10X 8651   0.755   1.435   9.133 -0.8476 -0.4325  0.9630
   89SAPS  H10Y 8652   0.721   1.256   9.105  1.5787 -0.9027  0.5902
   89SAPS  C311 8653   0.845   1.349   8.953 -0.5400  0.3500  0.0740
   89SAPS  H11X 8654   0.867   1.246   8.920  1.7396 -0.4602  3.6170
   89SAPS  H11Y 8655   0.939   1.403   8.978  0.7870 -2.3392  1.3533
   89SAPS  C312 8656   0.755   1.428   8.858 -0.0466 -0.2851 -0.9666
   89SAPS  H12X 8657   0.729   1.531   8.892 -1.6667 -0.9483 -0.1012
   89SAPS  H12Y 8658   0.658   1.381   8.835 -0.7461 -0.2913  1.7138
   89SAPS  C313 8659   0.831   1.445   8.730  0.4561  0.5497 -0.8120
   89SAPS  H13X 8660   0.841   1.353   8.669  2.8471  0.0816  0.1621
   89SAPS  H13Y 8661   0.937   1.479   8.739 -0.0493  1.8247  1.0239
   89SAPS  C314 8662   0.759   1.549   8.639 -0.1376  0.3336 -0.4548
   89SAPS  H14X 8663   0.747   1.640   8.701  2.1548 -1.2926  2.6618
   89SAPS  H14Y 8664   0.653   1.515   8.630  0.0571 -0.8487  1.2050
   89SAPS  C315 8665   0.820   1.575   8.503  0.4374  1.4981 -0.5056
   89SAPS  H15X 8666   0.772   1.511   8.426 -1.4867  0.6999  1.2587
   89SAPS  H15Y 8667   0.925   1.544   8.518 -0.5932 -1.2744  2.0031
   89SAPS  C316 8668   0.808   1.720   8.448 -0.5556 -0.5134 -1.1590
   89SAPS  H16X 8669   0.879   1.774   8.514  0.5566 -2.4663 -0.6796
   89SAPS  H16Y 8670   0.701   1.747   8.461 -0.4131 -0.4943  0.0117
   89SAPS  C317 8671   0.850   1.744   8.299 -0.7478  0.3232 -0.6040
   89SAPS  H17X 8672   0.792   1.827   8.254  1.3331  2.0724 -0.1942
   89SAPS  H17Y 8673   0.818   1.651   8.248  0.8811 -0.0917 -0.9155
   89SAPS  C318 8674   1.002   1.753   8.275 -0.1836 -0.0046 -0.5873
   89SAPS  H18X 8675   1.061   1.684   8.339  1.6696  0.2963 -1.8894
   89SAPS  H18Y 8676   1.045   1.853   8.298 -1.2485  1.2274 -3.4325
   89SAPS  H18Z 8677   1.016   1.729   8.167 -0.6012  1.6026 -1.0291
   90SAPS     N 8678   2.994   1.935  10.795 -0.3292 -0.6023 -0.2549
   90SAPS   HN1 8679   3.022   1.929  10.695  2.3392 -1.2199  0.4455
   90SAPS   HN2 8680   2.899   1.892  10.803 -0.6792  0.1492 -0.2702
   90SAPS   HN3 8681   2.981   2.032  10.831 -2.2464 -0.8746 -0.1142
   90SAPS   C12 8682   3.092   1.847  10.874 -0.2684 -0.0615 -0.8265
   90SAPS  H12A 8683   3.140   1.918  10.939  0.2126  0.5308 -1.8172
   90SAPS   C13 8684   3.027   1.740  10.964  0.0886 -0.1555  0.0910
   90SAPS  O13A 8685   2.903   1.725  10.961 -0.3930 -0.0624 -0.9656
   90SAPS  O13B 8686   3.100   1.664  11.028 -0.9629  0.1766  0.4217
   90SAPS   C11 8687   3.202   1.785  10.771 -0.4223  0.1761 -0.4977
   90SAPS  H11A 8688   3.142   1.726  10.698 -2.8067 -0.1221  1.5711
   90SAPS  H11B 8689   3.268   1.718  10.831 -0.8214 -1.2680 -1.6182
   90SAPS     P 8690   3.426   1.894  10.704  0.1454 -0.2787  0.5374
   90SAPS   O13 8691   3.456   2.013  10.616  0.5427  0.1072  0.0432
   90SAPS   O14 8692   3.467   1.889  10.844  0.1866 -0.0670  0.5404
   90SAPS   O12 8693   3.266   1.888  10.703 -0.2135  0.1000 -0.6308
   90SAPS   O11 8694   3.472   1.762  10.626 -0.7727 -0.3003  0.2985
   90SAPS    C1 8695   3.391   1.669  10.553  0.0520 -0.2972 -0.1162
   90SAPS    HA 8696   3.381   1.574  10.609  0.2281 -0.1602  0.1488
   90SAPS    HB 8697   3.291   1.708  10.528 -0.4687 -2.0567 -0.9439
   90SAPS    C2 8698   3.471   1.627  10.426  0.4820  0.1754 -0.7068
   90SAPS    HS 8699   3.565   1.571  10.445 -0.5861 -2.5044 -2.7408
   90SAPS   O21 8700   3.478   1.744  10.348  0.1903 -0.1977  0.6804
   90SAPS   C21 8701   3.600   1.806  10.349 -0.5702 -0.3558 -0.4134
   90SAPS   O22 8702   3.700   1.767  10.406  0.2751  0.1479  0.3758
   90SAPS   C22 8703   3.604   1.913  10.235 -0.2137  0.5784 -0.6698
   90SAPS   H2R 8704   3.509   1.971  10.243 -0.3167  0.3119  0.1958
   90SAPS   H2S 8705   3.702   1.963  10.246  0.9012 -1.7247  0.7863
   90SAPS    C3 8706   3.386   1.528  10.348 -0.0955  0.5103  1.0541
   90SAPS    HX 8707   3.290   1.574  10.315 -0.2838 -0.2892  0.4353
   90SAPS    HY 8708   3.353   1.446  10.416  0.3722 -1.7591 -1.3047
   90SAPS   O31 8709   3.459   1.477  10.234 -0.2258  0.3348 -0.2709
   90SAPS   C31 8710   3.556   1.386  10.269 -0.1983 -0.0553 -0.4776
   90SAPS   O32 8711   3.572   1.344  10.382 -0.2343  0.0945 -0.6543
   90SAPS   C32 8712   3.646   1.357  10.149  0.4713 -0.3502  0.4225
   90SAPS   H2X 8713   3.718   1.282  10.188  0.6067 -1.0067 -1.0304
   90SAPS   H2Y 8714   3.691   1.454  10.118 -0.3202 -0.0911  0.0700
   90SAPS   C23 8715   3.606   1.845  10.095 -0.1367  0.2237  0.1885
   90SAPS   H3R 8716   3.587   1.925  10.020 -0.6820 -1.5312 -1.6270
   90SAPS   H3S 8717   3.517   1.778  10.093 -0.3404  0.4422  1.2272
   90SAPS   C24 8718   3.740   1.766  10.062 -0.1888 -0.2782 -0.0886
   90SAPS   H4R 8719   3.723   1.723   9.961 -2.1170  0.6598 -0.2246
   90SAPS   H4S 8720   3.757   1.681  10.131  0.3093 -3.6592 -4.0274
   90SAPS   C25 8721   3.861   1.863  10.047 -0.2688 -0.2671  0.1763
   90SAPS   H5R 8722   3.931   1.863  10.132 -0.1641 -2.0197  0.1345
   90SAPS   C26 8723   3.894   1.930   9.934  0.0719 -0.8297  0.0465
   90SAPS   H6R 8724   3.983   1.994   9.939 -2.4349  2.9321  0.7335
   90SAPS   C27 8725   3.812   1.928   9.807  0.2333  0.2735  0.6782
   90SAPS   H7R 8726   3.820   2.033   9.772  1.8473 -0.4628 -1.3450
   90SAPS   H7S 8727   3.705   1.905   9.829 -0.0898 -1.8188 -2.4034
   90SAPS   C28 8728   3.868   1.837   9.697 -0.5991  0.1104  0.2018
   90SAPS   H8R 8729   3.907   1.746   9.745  1.9798  1.3736  0.6908
   90SAPS   C29 8730   3.863   1.855   9.568  0.1292  0.2050  0.0453
   90SAPS   H9R 8731   3.908   1.778   9.504  1.3939  1.3866 -0.5574
   90SAPS  C210 8732   3.815   1.979   9.503  0.4124 -0.8796  0.1332
   90SAPS  H10R 8733   3.892   2.051   9.466  0.3953 -0.2360  1.2708
   90SAPS  H10S 8734   3.751   2.038   9.573  0.9627 -1.0853  0.8232
   90SAPS  C211 8735   3.714   1.947   9.396 -1.1726  1.3416  0.1666
   90SAPS  H11R 8736   3.619   1.901   9.427 -1.4842 -0.6844 -3.3184
   90SAPS  C212 8737   3.756   1.940   9.260 -0.6136 -0.1069 -0.4400
   90SAPS  H12R 8738   3.678   1.923   9.184 -3.1683  2.0061  1.5316
   90SAPS  C213 8739   3.886   1.977   9.193 -0.6682  0.0536  0.2459
   90SAPS  H13R 8740   3.902   1.905   9.111 -0.5316  0.1881  0.1524
   90SAPS  H13S 8741   3.965   1.973   9.271 -0.6243 -0.1651  0.1891
   90SAPS  C214 8742   3.881   2.123   9.158 -0.0794 -0.0045 -0.3985
   90SAPS  H14R 8743   3.866   2.191   9.242 -1.4770 -0.0465 -0.5869
   90SAPS  C215 8744   3.892   2.179   9.031  1.1116  0.6522 -0.5724
   90SAPS  H15R 8745   3.883   2.288   9.022 -1.0260  0.3838 -3.3061
   90SAPS  C216 8746   3.908   2.097   8.900 -0.0311 -0.7306 -1.0391
   90SAPS  H16R 8747   3.871   1.994   8.916  0.5853 -1.0416 -1.5934
   90SAPS  H16S 8748   4.017   2.100   8.878  0.1253  2.2239 -0.3535
   90SAPS  C217 8749   3.842   2.152   8.773 -0.4419 -0.4674  0.3785
   90SAPS  H17R 8750   3.735   2.175   8.792 -0.6412  0.1219 -1.2774
   90SAPS  H17S 8751   3.843   2.068   8.700  0.8182 -1.5460  1.5827
   90SAPS  C218 8752   3.916   2.277   8.726  0.3238 -0.5178  0.6395
   90SAPS  H18R 8753   4.026   2.266   8.737  0.6347  0.4823 -1.1532
   90SAPS  H18S 8754   3.892   2.370   8.782 -0.0620  0.1991 -0.6801
   90SAPS  C219 8755   3.898   2.308   8.579  0.2072  0.5369  0.3030
   90SAPS  H19R 8756   3.790   2.315   8.554 -0.0429 -1.8440  0.5101
   90SAPS  H19S 8757   3.933   2.220   8.521 -1.3452 -0.6088  1.0503
   90SAPS  C220 8758   3.974   2.438   8.540  0.3062  0.0006 -0.5005
   90SAPS  H20R 8759   3.941   2.527   8.599 -0.3384  0.0086 -0.8639
   90SAPS  H20S 8760   3.956   2.460   8.433 -0.7869  1.6814 -0.0194
   90SAPS  H20T 8761   4.082   2.419   8.561  0.1540 -0.0847  0.2412
   90SAPS   C33 8762   3.559   1.303  10.034  0.3465  0.0529  0.2208
   90SAPS   H3X 8763   3.475   1.373  10.017  1.1776  0.8370 -0.8036
   90SAPS   H3Y 8764   3.520   1.202  10.057  0.8830  0.1839  1.8110
   90SAPS   C34 8765   3.632   1.279   9.902  0.2262 -0.8576  0.5735
   90SAPS   H4X 8766   3.719   1.215   9.930  1.5981  1.7768  2.9247
   90SAPS   H4Y 8767   3.679   1.373   9.867  0.9398 -1.9156 -1.4544
   90SAPS   C35 8768   3.545   1.219   9.792 -0.1113 -0.3156  0.0904
   90SAPS   H5X 8769   3.443   1.262   9.788  0.3196  0.8347  0.7728
   90SAPS   H5Y 8770   3.532   1.113   9.823 -1.2433  0.6114  3.1499
   90SAPS   C36 8771   3.624   1.241   9.657 -0.5654  0.1720  0.5603
   90SAPS   H6X 8772   3.591   1.169   9.579 -0.3942  1.6041 -0.8882
   90SAPS   H6Y 8773   3.729   1.218   9.683 -0.3040  1.2525  0.5012
   90SAPS   C37 8774   3.617   1.381   9.596 -0.2721 -0.0328 -0.0707
   90SAPS   H7X 8775   3.653   1.444   9.681 -1.0662 -1.8449  1.7010
   90SAPS   H7Y 8776   3.512   1.403   9.566  0.0153  2.7346  0.6623
   90SAPS   C38 8777   3.705   1.406   9.467  0.3465 -1.0794  0.0965
   90SAPS   H8X 8778   3.679   1.332   9.388  0.4075 -0.0395 -0.9165
   90SAPS   H8Y 8779   3.808   1.397   9.508 -0.0008 -2.4337  0.7556
   90SAPS   C39 8780   3.682   1.556   9.414 -0.2395  0.4648 -0.4404
   90SAPS   H9X 8781   3.732   1.627   9.484  0.2795 -2.3329  2.2428
   90SAPS   H9Y 8782   3.576   1.586   9.424  0.2137  1.4375  2.5158
   90SAPS  C310 8783   3.728   1.564   9.271 -0.6595 -0.0032  0.1225
   90SAPS  H10X 8784   3.713   1.671   9.242  0.4181  0.1848  0.2117
   90SAPS  H10Y 8785   3.667   1.493   9.212 -1.1271 -0.1390  0.7495
   90SAPS  C311 8786   3.878   1.544   9.250  0.5283  0.6708  0.1444
   90SAPS  H11X 8787   3.921   1.457   9.303  1.8445  2.9643  3.1754
   90SAPS  H11Y 8788   3.932   1.626   9.302  0.6935  1.0571 -0.6101
   90SAPS  C312 8789   3.897   1.558   9.101 -0.0127 -0.0221  0.7380
   90SAPS  H12X 8790   3.857   1.656   9.067  2.5997  1.3730  1.4072
   90SAPS  H12Y 8791   3.858   1.474   9.040 -0.0888 -0.8488  1.8931
   90SAPS  C313 8792   4.048   1.587   9.065  0.0099 -0.6679  0.8942
   90SAPS  H13X 8793   4.111   1.506   9.106 -0.3049 -1.1662  0.3992
   90SAPS  H13Y 8794   4.072   1.680   9.121  0.0116 -0.4168  0.4811
   90SAPS  C314 8795   4.055   1.586   8.910 -0.0246  0.1882 -0.1738
   90SAPS  H14X 8796   3.993   1.669   8.870  0.8268  0.2168 -1.5153
   90SAPS  H14Y 8797   4.009   1.494   8.869 -1.4031  0.1143  1.4233
   90SAPS  C315 8798   4.197   1.603   8.862  0.7611  0.2746 -0.1865
   90SAPS  H15X 8799   4.206   1.596   8.751  1.4063  1.4297 -0.2248
   90SAPS  H15Y 8800   4.253   1.520   8.911  1.7405  1.4235  0.6852
   90SAPS  C316 8801   4.259   1.732   8.911  0.0298 -0.7285 -0.4177
   90SAPS  H16X 8802   4.356   1.747   8.859  0.7406 -1.6749  0.6003
   90SAPS  H16Y 8803   4.276   1.722   9.020 -0.2101  1.6895 -0.1005
   90SAPS  C317 8804   4.167   1.854   8.891 -0.2452 -0.1974 -0.0923
   90SAPS  H17X 8805   4.218   1.948   8.920 -1.1272 -0.2901  1.9195
   90SAPS  H17Y 8806   4.081   1.853   8.962 -1.7562  1.1207 -1.8039
   90SAPS  C318 8807   4.135   1.874   8.737 -0.6044 -0.2406  0.3979
   90SAPS  H18X 8808   4.071   1.791   8.699 -0.2038 -0.1455 -0.5042
   90SAPS  H18Y 8809   4.229   1.889   8.680 -1.5641 -0.6722 -1.3969
   90SAPS  H18Z 8810   4.078   1.968   8.717  0.5008  0.1580 -1.0648
   91SAPS     N 8811   3.507   0.152   6.039 -0.0296 -0.6298 -0.2226
   91SAPS   HN1 8812   3.483   0.055   6.010 -1.8992  0.0036 -0.8847
   91SAPS   HN2 8813   3.609   0.170   6.052 -0.0616 -1.4433  1.4947
   91SAPS   HN3 8814   3.461   0.168   6.131 -0.2863  0.4224 -0.5301
   91SAPS   C12 8815   3.443   0.246   5.953  0.2016  0.2669 -0.3347
   91SAPS  H12A 8816   3.503   0.251   5.863  1.0516  1.1678  0.2630
   91SAPS   C13 8817   3.300   0.207   5.906 -0.6128 -0.2737 -0.0517
   91SAPS  O13A 8818   3.258   0.091   5.935  0.0099 -0.5720  0.0731
   91SAPS  O13B 8819   3.249   0.273   5.815 -0.3725 -0.1737 -0.3347
   91SAPS   C11 8820   3.444   0.391   6.016 -0.9990  0.1561 -0.1565
   91SAPS  H11A 8821   3.362   0.389   6.091 -2.4487  0.0170 -1.7078
   91SAPS  H11B 8822   3.426   0.473   5.943 -1.2213  0.3067  0.0666
   91SAPS     P 8823   3.610   0.555   6.147  0.1156  0.1152  0.1823
   91SAPS   O13 8824   3.758   0.571   6.134 -0.5284  0.2997  0.4506
   91SAPS   O14 8825   3.537   0.671   6.084 -0.1769 -0.5786 -0.2431
   91SAPS   O12 8826   3.577   0.419   6.074  0.1129  0.2370  0.1106
   91SAPS   O11 8827   3.555   0.521   6.287  0.1437 -0.0495  0.4489
   91SAPS    C1 8828   3.581   0.395   6.359 -1.0270  0.2925 -1.2454
   91SAPS    HA 8829   3.483   0.362   6.399 -0.4992 -0.7323 -0.7497
   91SAPS    HB 8830   3.609   0.313   6.290  1.4013 -0.7143  0.7897
   91SAPS    C2 8831   3.689   0.411   6.472  0.4682  0.2519 -0.2446
   91SAPS    HS 8832   3.693   0.316   6.529  0.2126  0.9821  1.0224
   91SAPS   O21 8833   3.646   0.512   6.562  0.4164  0.3165 -0.3746
   91SAPS   C21 8834   3.542   0.483   6.648 -0.1324  0.4386 -0.4327
   91SAPS   O22 8835   3.476   0.377   6.643  0.8403  0.3431 -0.0216
   91SAPS   C22 8836   3.525   0.602   6.744 -1.0262 -0.3533 -0.3308
   91SAPS   H2R 8837   3.625   0.651   6.746 -0.2171 -1.7303 -2.4022
   91SAPS   H2S 8838   3.440   0.661   6.704  0.1456 -0.7805 -3.7700
   91SAPS    C3 8839   3.837   0.432   6.419 -0.0821  0.4637 -0.4204
   91SAPS    HX 8840   3.843   0.531   6.368 -0.6587  0.9728  0.4893
   91SAPS    HY 8841   3.856   0.361   6.335  0.8515  0.7880 -0.4903
   91SAPS   O31 8842   3.939   0.414   6.518  0.6259  0.2789  0.0937
   91SAPS   C31 8843   3.964   0.505   6.601 -0.1460 -0.1046 -0.1608
   91SAPS   O32 8844   3.912   0.616   6.600 -0.2370 -0.1402  0.9417
   91SAPS   C32 8845   4.070   0.455   6.700 -0.2083 -1.3603  0.1506
   91SAPS   H2X 8846   4.142   0.387   6.649 -2.1715 -2.4321 -1.3394
   91SAPS   H2Y 8847   4.014   0.399   6.777 -1.0583 -0.9101 -0.1310
   91SAPS   C23 8848   3.471   0.558   6.886  0.4559 -0.6874  0.3688
   91SAPS   H3R 8849   3.510   0.457   6.911  0.5788 -0.1485  2.6023
   91SAPS   H3S 8850   3.360   0.550   6.884  0.5172 -2.4435 -2.6518
   91SAPS   C24 8851   3.503   0.655   6.999 -0.2651  0.0048 -0.5684
   91SAPS   H4R 8852   3.428   0.636   7.080 -1.4289 -1.2318 -1.8813
   91SAPS   H4S 8853   3.497   0.755   6.951 -2.2753 -0.7392 -1.9975
   91SAPS   C25 8854   3.643   0.625   7.041 -0.4484  0.7483  0.0647
   91SAPS   H5R 8855   3.706   0.606   6.953 -0.5458 -1.4960  0.4257
   91SAPS   C26 8856   3.693   0.619   7.167  0.1754  0.7864  0.1359
   91SAPS   H6R 8857   3.797   0.587   7.182 -0.3786 -0.4393  1.6538
   91SAPS   C27 8858   3.607   0.638   7.291 -0.2743 -0.0455  0.0742
   91SAPS   H7R 8859   3.611   0.541   7.345  1.0195 -0.0018  0.0882
   91SAPS   H7S 8860   3.498   0.649   7.275 -0.4904  1.9537  2.3547
   91SAPS   C28 8861   3.648   0.758   7.372 -0.3393 -0.6188  0.8615
   91SAPS   H8R 8862   3.653   0.849   7.312 -0.5312 -2.0882 -1.5051
   91SAPS   C29 8863   3.677   0.753   7.507  0.1363 -0.1617 -0.2292
   91SAPS   H9R 8864   3.697   0.848   7.559 -1.5393  0.4629 -0.6945
   91SAPS  C210 8865   3.678   0.634   7.603  0.3323 -0.1928 -0.0397
   91SAPS  H10R 8866   3.716   0.540   7.558  2.4102  0.5092  0.1422
   91SAPS  H10S 8867   3.569   0.614   7.618  0.3267 -0.3715 -0.3132
   91SAPS  C211 8868   3.756   0.669   7.730  0.3719 -0.4876 -0.5730
   91SAPS  H11R 8869   3.859   0.706   7.720  0.3128 -0.2409 -0.2944
   91SAPS  C212 8870   3.714   0.632   7.855 -0.0127  0.0841  0.5685
   91SAPS  H12R 8871   3.773   0.653   7.946 -2.6772 -2.9280  3.2857
   91SAPS  C213 8872   3.586   0.561   7.890 -0.5623  0.1494 -0.0149
   91SAPS  H13R 8873   3.618   0.458   7.915 -2.0417 -0.8955 -2.0726
   91SAPS  H13S 8874   3.513   0.539   7.809 -0.9835 -1.8343  0.8363
   91SAPS  C214 8875   3.513   0.625   8.004  0.2667 -0.3171  0.6945
   91SAPS  H14R 8876   3.455   0.710   7.965  0.2848 -0.9474 -0.7657
   91SAPS  C215 8877   3.504   0.596   8.137  0.4039  0.2558 -0.1058
   91SAPS  H15R 8878   3.446   0.655   8.210  0.4311 -0.3110  0.3788
   91SAPS  C216 8879   3.576   0.487   8.202 -0.3552 -0.0239 -0.3403
   91SAPS  H16R 8880   3.645   0.527   8.280  0.7137 -0.1887 -1.1753
   91SAPS  H16S 8881   3.638   0.424   8.135  1.6201  2.0766 -0.6057
   91SAPS  C217 8882   3.488   0.377   8.268 -0.0313 -0.8655  1.1118
   91SAPS  H17R 8883   3.423   0.421   8.346 -0.2442 -0.3240  0.6398
   91SAPS  H17S 8884   3.551   0.305   8.325  2.7047  1.0838  0.7549
   91SAPS  C218 8885   3.393   0.304   8.169  0.1695  1.0171 -0.3768
   91SAPS  H18R 8886   3.450   0.239   8.099  3.6721  2.2941  1.0856
   91SAPS  H18S 8887   3.341   0.386   8.116 -1.2892 -0.9464 -2.1913
   91SAPS  C219 8888   3.289   0.221   8.242  1.4734  0.7891  0.4790
   91SAPS  H19R 8889   3.215   0.279   8.300 -0.7009 -1.8962  0.5821
   91SAPS  H19S 8890   3.339   0.165   8.324 -0.3926 -1.3355  0.2771
   91SAPS  C220 8891   3.208   0.135   8.142  0.4321  0.7299  0.5821
   91SAPS  H20R 8892   3.273   0.067   8.083 -1.0649 -1.9918  1.9105
   91SAPS  H20S 8893   3.137   0.187   8.075  0.4953 -1.1262 -0.9908
   91SAPS  H20T 8894   3.139   0.067   8.197  0.7914  0.3211  0.5348
   91SAPS   C33 8895   4.151   0.575   6.754 -0.2296  0.4197 -0.9371
   91SAPS   H3X 8896   4.080   0.649   6.796  0.3009  0.3821  0.0454
   91SAPS   H3Y 8897   4.202   0.611   6.662 -0.7006 -1.8058 -2.1450
   91SAPS   C34 8898   4.255   0.537   6.858 -0.6297 -0.2159  1.0308
   91SAPS   H4X 8899   4.355   0.572   6.826 -1.6618  0.3351 -1.8099
   91SAPS   H4Y 8900   4.263   0.426   6.861 -0.7409 -0.2399  0.4252
   91SAPS   C35 8901   4.223   0.589   7.002  0.0826  0.1300  0.7643
   91SAPS   H5X 8902   4.119   0.555   7.019 -0.6998  1.0221 -1.7039
   91SAPS   H5Y 8903   4.217   0.700   6.997  1.6089  0.2508  1.0835
   91SAPS   C36 8904   4.315   0.522   7.099  1.1356 -0.5099 -0.2744
   91SAPS   H6X 8905   4.422   0.529   7.067  1.2971 -3.0269 -0.4342
   91SAPS   H6Y 8906   4.280   0.417   7.103  1.5857 -0.6280  0.7110
   91SAPS   C37 8907   4.306   0.577   7.237 -0.1959  0.0661 -0.0946
   91SAPS   H7X 8908   4.208   0.566   7.288  1.1396  1.3142  3.0354
   91SAPS   H7Y 8909   4.322   0.687   7.234  1.7579  0.0249  3.2479
   91SAPS   C38 8910   4.408   0.514   7.332  0.4133  0.0119 -0.2937
   91SAPS   H8X 8911   4.513   0.521   7.296 -0.5608 -0.1663 -3.4098
   91SAPS   H8Y 8912   4.389   0.407   7.355  1.4577 -0.0094  0.5605
   91SAPS   C39 8913   4.410   0.579   7.472  0.7504  0.4493  0.7442
   91SAPS   H9X 8914   4.320   0.543   7.526  0.1378  2.1770  0.9288
   91SAPS   H9Y 8915   4.389   0.688   7.460  0.7533  0.1907 -2.5636
   91SAPS  C310 8916   4.529   0.543   7.554 -0.0411  0.1764  0.1698
   91SAPS  H10X 8917   4.618   0.592   7.509  0.0740 -0.4452 -0.2985
   91SAPS  H10Y 8918   4.529   0.432   7.558 -0.4020  0.1103 -1.1418
   91SAPS  C311 8919   4.503   0.569   7.705  0.8762 -0.4831  0.2275
   91SAPS  H11X 8920   4.404   0.526   7.730  0.5724  0.3158  0.4071
   91SAPS  H11Y 8921   4.498   0.680   7.708  0.7227 -0.2965 -3.2334
   91SAPS  C312 8922   4.617   0.528   7.795  0.3061 -0.3427 -0.2473
   91SAPS  H12X 8923   4.716   0.557   7.753  0.5049  1.5934  1.3445
   91SAPS  H12Y 8924   4.614   0.417   7.799  0.1492 -0.3566 -0.7497
   91SAPS  C313 8925   4.611   0.591   7.934  0.3519 -0.1242  0.8893
   91SAPS  H13X 8926   4.603   0.699   7.908  0.0508 -0.5508 -0.9330
   91SAPS  H13Y 8927   4.704   0.574   7.993  2.3921  0.7957 -1.8799
   91SAPS  C314 8928   4.503   0.542   8.026  0.1702 -0.7143 -0.6793
   91SAPS  H14X 8929   4.483   0.434   8.011  2.1952 -0.9962 -1.7874
   91SAPS  H14Y 8930   4.410   0.595   7.996 -0.3575  0.0699  1.9951
   91SAPS  C315 8931   4.522   0.565   8.178 -0.8423 -0.3463  0.2855
   91SAPS  H15X 8932   4.534   0.674   8.199  0.1770  0.0159 -1.8915
   91SAPS  H15Y 8933   4.617   0.511   8.197 -1.1136 -0.9452 -0.0461
   91SAPS  C316 8934   4.411   0.502   8.252  0.2096 -0.6750  0.5271
   91SAPS  H16X 8935   4.410   0.393   8.230 -0.3223 -0.4926 -0.4350
   91SAPS  H16Y 8936   4.318   0.548   8.213  0.3687 -1.2547 -0.6047
   91SAPS  C317 8937   4.411   0.515   8.406 -0.3000  0.8920  0.1426
   91SAPS  H17X 8938   4.399   0.622   8.435  1.6272  1.4790 -1.0273
   91SAPS  H17Y 8939   4.507   0.488   8.455 -1.1575 -0.6743  1.0104
   91SAPS  C318 8940   4.301   0.438   8.481 -0.3378 -0.1700 -0.5733
   91SAPS  H18X 8941   4.202   0.464   8.439  1.0504  1.7596 -2.8899
   91SAPS  H18Y 8942   4.293   0.466   8.588 -1.5822 -0.4254 -0.5843
   91SAPS  H18Z 8943   4.324   0.330   8.476  0.6288  0.0615 -1.3406
   92SAPS     N 8944   2.886   5.262   6.390  0.0564  0.1853  0.1567
   92SAPS   HN1 8945   2.921   5.188   6.326  2.4401  1.3061  0.0476
   92SAPS   HN2 8946   2.906   5.233   6.488 -2.2543 -2.0551  0.0546
   92SAPS   HN3 8947   2.787   5.293   6.386  1.0617  3.9004 -0.0121
   92SAPS   C12 8948   2.949   5.392   6.361  0.5141  1.2312 -0.3677
   92SAPS  H12A 8949   3.045   5.395   6.410  0.8546 -3.2454 -0.3047
   92SAPS   C13 8950   2.968   5.411   6.207  0.0537 -0.4404  0.6631
   92SAPS  O13A 8951   2.962   5.308   6.131 -0.1186 -0.5853 -0.0967
   92SAPS  O13B 8952   3.036   5.514   6.172 -0.0869  0.0055 -0.7383
   92SAPS   C11 8953   2.863   5.516   6.409 -0.2398  0.2098  0.1011
   92SAPS  H11A 8954   2.774   5.544   6.348 -0.9627  1.3108  1.6097
   92SAPS  H11B 8955   2.931   5.603   6.397 -0.9125  0.5575 -1.3971
   92SAPS     P 8956   2.785   5.635   6.627 -0.1077 -0.2472 -0.2700
   92SAPS   O13 8957   2.907   5.706   6.670 -0.2541  0.0982  0.7729
   92SAPS   O14 8958   2.690   5.707   6.542  0.1363 -0.2268  0.1392
   92SAPS   O12 8959   2.824   5.508   6.551 -0.5009  0.0230  0.1027
   92SAPS   O11 8960   2.706   5.572   6.754 -0.4645 -0.3494  0.3031
   92SAPS    C1 8961   2.669   5.434   6.750 -0.1989  0.6904 -0.1637
   92SAPS    HA 8962   2.589   5.421   6.674 -1.9535  0.6556  1.5830
   92SAPS    HB 8963   2.759   5.374   6.725 -1.1402  0.2265 -2.7383
   92SAPS    C2 8964   2.605   5.384   6.883 -0.4298 -0.1906  0.7612
   92SAPS    HS 8965   2.523   5.455   6.906 -1.1355 -0.5159 -0.6314
   92SAPS   O21 8966   2.710   5.389   6.990  0.2029  0.0651 -0.1257
   92SAPS   C21 8967   2.669   5.430   7.106 -0.4619 -0.6387  0.5594
   92SAPS   O22 8968   2.557   5.452   7.142  0.1788 -0.4197 -0.0377
   92SAPS   C22 8969   2.789   5.443   7.200 -0.8049 -0.0604 -0.0606
   92SAPS   H2R 8970   2.820   5.337   7.212 -0.3514  0.0745 -0.0186
   92SAPS   H2S 8971   2.864   5.497   7.138 -1.4122  0.6961 -0.1648
   92SAPS    C3 8972   2.538   5.244   6.865 -0.5600 -0.4073 -0.5919
   92SAPS    HX 8973   2.625   5.191   6.822  0.2585  0.8237 -0.5225
   92SAPS    HY 8974   2.451   5.241   6.796 -2.2827 -1.3429  1.5047
   92SAPS   O31 8975   2.524   5.175   6.992  0.5909 -0.4368  0.3610
   92SAPS   C31 8976   2.401   5.208   7.044 -0.4518  0.6324  0.4651
   92SAPS   O32 8977   2.312   5.263   6.981  0.2705  0.0093 -0.7089
   92SAPS   C32 8978   2.410   5.186   7.195 -0.4213  0.2159 -0.1720
   92SAPS   H2X 8979   2.506   5.234   7.224 -0.6146  0.6592 -0.2634
   92SAPS   H2Y 8980   2.422   5.077   7.214  1.5842  0.2975 -0.7199
   92SAPS   C23 8981   2.744   5.500   7.329 -0.4349 -0.4011  0.3952
   92SAPS   H3R 8982   2.680   5.425   7.380  0.9313 -1.5700  0.4490
   92SAPS   H3S 8983   2.678   5.588   7.314 -0.0733 -0.4268 -1.6495
   92SAPS   C24 8984   2.865   5.524   7.421 -0.2208  0.0404  0.5537
   92SAPS   H4R 8985   2.946   5.447   7.414 -0.9098 -0.6659  0.1810
   92SAPS   H4S 8986   2.822   5.502   7.520 -0.6122 -3.2811 -0.2263
   92SAPS   C25 8987   2.907   5.666   7.418  0.0667  0.1952 -0.2760
   92SAPS   H5R 8988   2.912   5.719   7.322 -1.4640  1.5942  0.3827
   92SAPS   C26 8989   2.972   5.731   7.520 -0.0733  0.4977  0.3226
   92SAPS   H6R 8990   3.012   5.831   7.501  1.2754 -0.2394 -0.9331
   92SAPS   C27 8991   3.003   5.676   7.661  0.0892 -0.0647  0.9035
   92SAPS   H7R 8992   3.103   5.710   7.695 -0.0290  0.3071  0.8812
   92SAPS   H7S 8993   3.007   5.565   7.658  0.0868 -0.0543  0.4680
   92SAPS   C28 8994   2.901   5.740   7.757 -0.0268  0.1167 -0.2771
   92SAPS   H8R 8995   2.796   5.721   7.729  0.4270 -0.6747 -1.5091
   92SAPS   C29 8996   2.924   5.810   7.870  0.0095 -0.0354  0.4606
   92SAPS   H9R 8997   2.837   5.860   7.916 -0.1494  0.6830 -0.6063
   92SAPS  C210 8998   3.056   5.845   7.932  0.2147 -0.0009  0.2478
   92SAPS  H10R 8999   3.053   5.948   7.974  1.3459  1.4721 -3.0181
   92SAPS  H10S 9000   3.132   5.853   7.852  0.5639 -0.1567  0.5644
   92SAPS  C211 9001   3.100   5.735   8.026 -0.3246 -0.4623  0.9041
   92SAPS  H11R 9002   3.126   5.639   7.979 -0.2988  0.5735 -1.3800
   92SAPS  C212 9003   3.116   5.754   8.157  0.4020  0.1791 -0.3945
   92SAPS  H12R 9004   3.156   5.676   8.223 -1.3912  0.0957  0.6508
   92SAPS  C213 9005   3.082   5.881   8.229 -0.6625 -0.6922  0.3740
   92SAPS  H13R 9006   2.989   5.918   8.182  1.3587  0.4475 -3.0485
   92SAPS  H13S 9007   3.169   5.950   8.220  0.7617 -2.5138 -0.6377
   92SAPS  C214 9008   3.051   5.847   8.375  0.1647  0.4605 -0.2640
   92SAPS  H14R 9009   2.946   5.821   8.391 -0.2667  0.7774 -2.3173
   92SAPS  C215 9010   3.139   5.822   8.468  0.0184 -0.2811 -0.1488
   92SAPS  H15R 9011   3.101   5.785   8.564  0.6446  0.7712  0.5212
   92SAPS  C216 9012   3.283   5.828   8.458 -0.0303  0.5026  0.3731
   92SAPS  H16R 9013   3.323   5.855   8.358 -0.9668 -0.6449 -0.3372
   92SAPS  H16S 9014   3.322   5.726   8.475 -0.0834  0.2935 -0.6606
   92SAPS  C217 9015   3.353   5.920   8.564  0.6239  0.0449 -0.4011
   92SAPS  H17R 9016   3.460   5.893   8.570  0.6720  0.2996 -0.0712
   92SAPS  H17S 9017   3.310   5.895   8.664  2.2982  0.5960  0.4902
   92SAPS  C218 9018   3.340   6.065   8.516 -0.3347 -0.0171 -0.6141
   92SAPS  H18R 9019   3.233   6.091   8.509 -0.6962 -1.3580 -0.3033
   92SAPS  H18S 9020   3.382   6.064   8.413 -1.2150 -0.1906 -0.9724
   92SAPS  C219 9021   3.417   6.157   8.611 -0.3364 -0.4375  0.1739
   92SAPS  H19R 9022   3.522   6.124   8.624 -0.5391 -1.7896 -1.3186
   92SAPS  H19S 9023   3.357   6.148   8.704 -2.9890 -0.9693 -1.4766
   92SAPS  C220 9024   3.425   6.304   8.566  0.3247  0.4092 -0.0594
   92SAPS  H20R 9025   3.490   6.371   8.626  0.1681  0.0371  0.5269
   92SAPS  H20S 9026   3.324   6.348   8.579 -1.5086 -2.8712 -1.7003
   92SAPS  H20T 9027   3.467   6.311   8.463  2.0261 -1.2191  0.4559
   92SAPS   C33 9028   2.286   5.236   7.271 -0.3731  0.4543 -0.5266
   92SAPS   H3X 9029   2.201   5.174   7.234 -0.6906  0.3954  0.2879
   92SAPS   H3Y 9030   2.274   5.344   7.250  1.1173  0.7872  0.1944
   92SAPS   C34 9031   2.314   5.213   7.419 -0.0033  0.5119  0.9056
   92SAPS   H4X 9032   2.384   5.128   7.431 -0.5017 -0.4069 -1.9582
   92SAPS   H4Y 9033   2.216   5.189   7.464 -0.6331  1.3874  0.0547
   92SAPS   C35 9034   2.359   5.342   7.484  1.0500  0.3034  0.2274
   92SAPS   H5X 9035   2.270   5.409   7.479 -0.5309 -1.7035 -0.1446
   92SAPS   H5Y 9036   2.426   5.397   7.415  0.4981  0.4929 -0.1749
   92SAPS   C36 9037   2.412   5.328   7.634 -0.4435  1.2992  0.2131
   92SAPS   H6X 9038   2.401   5.220   7.659  1.4670  1.6065  2.7797
   92SAPS   H6Y 9039   2.354   5.399   7.697 -3.5084 -0.0529 -0.9178
   92SAPS   C37 9040   2.564   5.360   7.638  0.5412  0.7520 -0.4376
   92SAPS   H7X 9041   2.576   5.471   7.640  0.8126  0.7942 -2.4140
   92SAPS   H7Y 9042   2.610   5.324   7.543  0.9128  0.6117 -0.2101
   92SAPS   C38 9043   2.634   5.288   7.753  0.8518 -0.1303 -0.6263
   92SAPS   H8X 9044   2.608   5.180   7.749 -0.6288  0.2298 -1.4832
   92SAPS   H8Y 9045   2.584   5.328   7.844  2.6051 -1.6002  1.0768
   92SAPS   C39 9046   2.796   5.294   7.750 -0.5480  0.5900  0.5907
   92SAPS   H9X 9047   2.828   5.388   7.699 -1.6959 -0.6838 -2.7986
   92SAPS   H9Y 9048   2.818   5.223   7.667 -2.1946  2.4424 -1.5801
   92SAPS  C310 9049   2.868   5.278   7.881  0.1946 -0.4702 -0.1308
   92SAPS  H10X 9050   2.837   5.183   7.928  1.8911 -0.3140  1.4184
   92SAPS  H10Y 9051   2.843   5.358   7.955  5.1221 -0.2154  1.6170
   92SAPS  C311 9052   3.024   5.286   7.872  0.0813 -0.0798 -0.4562
   92SAPS  H11X 9053   3.063   5.245   7.968 -3.0034 -0.7699  0.6209
   92SAPS  H11Y 9054   3.046   5.395   7.874  1.1372 -0.2167 -2.0524
   92SAPS  C312 9055   3.079   5.208   7.760  0.1949 -0.4664  0.4502
   92SAPS  H12X 9056   3.053   5.273   7.672  0.8742  0.2593  0.7726
   92SAPS  H12Y 9057   3.035   5.108   7.741  0.7143 -0.4439 -1.0125
   92SAPS  C313 9058   3.226   5.200   7.771 -0.1387  0.3311 -0.0182
   92SAPS  H13X 9059   3.280   5.296   7.756  0.7832 -0.3487 -1.2559
   92SAPS  H13Y 9060   3.254   5.138   7.683 -0.1438  1.0849 -0.5615
   92SAPS  C314 9061   3.281   5.113   7.886 -0.5595  0.4809  0.0402
   92SAPS  H14X 9062   3.273   5.175   7.978  0.5737  1.0760 -0.2450
   92SAPS  H14Y 9063   3.390   5.094   7.879 -0.4729  1.2837 -0.9312
   92SAPS  C315 9064   3.226   4.973   7.890 -0.0109 -0.5507  0.0189
   92SAPS  H15X 9065   3.220   4.928   7.789 -3.0557 -0.2496 -0.0202
   92SAPS  H15Y 9066   3.122   4.978   7.930 -0.0742  1.1449 -0.3046
   92SAPS  C316 9067   3.297   4.882   7.987  0.1454  0.0191  0.0477
   92SAPS  H16X 9068   3.404   4.873   7.960  0.2613  1.0686  0.1377
   92SAPS  H16Y 9069   3.247   4.783   7.978  0.3153 -0.2044  1.3374
   92SAPS  C317 9070   3.283   4.928   8.135  0.3032  0.0924 -0.2881
   92SAPS  H17X 9071   3.180   4.910   8.171 -0.3187 -3.6363 -3.2603
   92SAPS  H17Y 9072   3.297   5.038   8.144  1.3111 -0.1374  1.3781
   92SAPS  C318 9073   3.396   4.885   8.237  0.0216 -0.1620 -0.7686
   92SAPS  H18X 9074   3.488   4.948   8.234  0.0440  0.0714  2.0997
   92SAPS  H18Y 9075   3.430   4.779   8.231  2.3056  0.2810  2.0647
   92SAPS  H18Z 9076   3.355   4.904   8.338 -2.3746  0.2659 -1.7602
   93SAPS     N 9077   5.153   5.829   6.243 -0.1568 -0.2237 -0.0037
   93SAPS   HN1 9078   5.207   5.897   6.185  1.2033 -2.4489 -1.4710
   93SAPS   HN2 9079   5.118   5.874   6.331 -1.1921 -1.5876  0.3227
   93SAPS   HN3 9080   5.225   5.765   6.280 -0.7088  0.2524  2.0175
   93SAPS   C12 9081   5.067   5.728   6.173 -0.5173 -0.1050 -0.7360
   93SAPS  H12A 9082   5.051   5.761   6.072  1.8301  1.7320 -0.5773
   93SAPS   C13 9083   5.154   5.599   6.162  0.3047 -0.2272  0.0660
   93SAPS  O13A 9084   5.257   5.592   6.236  0.2711  0.4009  0.5880
   93SAPS  O13B 9085   5.102   5.499   6.107  0.0678 -0.1772  0.3896
   93SAPS   C11 9086   4.926   5.698   6.251 -0.8546  0.7339  0.8912
   93SAPS  H11A 9087   4.935   5.650   6.351  2.3345 -1.1689 -0.1526
   93SAPS  H11B 9088   4.872   5.624   6.189 -1.4915  2.8406 -1.2224
   93SAPS     P 9089   4.845   5.932   6.351 -0.1448 -0.3285  0.2796
   93SAPS   O13 9090   4.981   5.990   6.370 -0.1146 -0.6302  0.3759
   93SAPS   O14 9091   4.747   6.029   6.309  0.0325 -0.2218  0.1006
   93SAPS   O12 9092   4.846   5.812   6.252 -0.1225  0.0198 -0.6053
   93SAPS   O11 9093   4.794   5.866   6.487  0.0990 -0.2253 -0.3720
   93SAPS    C1 9094   4.660   5.835   6.502 -0.0205 -0.8628  0.3452
   93SAPS    HA 9095   4.602   5.929   6.516  2.1224  0.3269  1.8149
   93SAPS    HB 9096   4.619   5.778   6.416 -0.1394 -1.5348  0.8401
   93SAPS    C2 9097   4.634   5.751   6.623 -0.1049  0.3222 -0.1658
   93SAPS    HS 9098   4.529   5.718   6.634 -0.2399  1.0073  0.7564
   93SAPS   O21 9099   4.679   5.819   6.741  0.1470 -0.7050 -0.7095
   93SAPS   C21 9100   4.616   5.927   6.772 -0.5352  0.4994  0.5790
   93SAPS   O22 9101   4.518   5.978   6.725 -0.4958  0.1269  0.4622
   93SAPS   C22 9102   4.698   5.997   6.879  0.2860  0.2239 -0.8234
   93SAPS   H2R 9103   4.791   6.044   6.839  1.1212 -1.0760 -0.4972
   93SAPS   H2S 9104   4.642   6.085   6.917  0.9737  0.3327 -0.0202
   93SAPS    C3 9105   4.702   5.615   6.612 -0.7461  0.1437  0.1332
   93SAPS    HX 9106   4.800   5.630   6.562 -1.0235  0.2040 -0.4069
   93SAPS    HY 9107   4.640   5.557   6.539 -1.1251  1.3149 -0.5074
   93SAPS   O31 9108   4.708   5.555   6.747  0.0529 -0.1945 -0.4421
   93SAPS   C31 9109   4.826   5.564   6.803 -0.1873  0.3672  0.5510
   93SAPS   O32 9110   4.926   5.619   6.754  0.0199  0.0182 -0.0519
   93SAPS   C32 9111   4.818   5.506   6.950  0.1887  0.5025  0.1360
   93SAPS   H2X 9112   4.817   5.395   6.951  1.2323  0.4757  0.5040
   93SAPS   H2Y 9113   4.716   5.542   6.973 -0.8245 -1.8779 -0.4429
   93SAPS   C23 9114   4.741   5.899   6.993  0.1819  0.2591  0.3015
   93SAPS   H3R 9115   4.826   5.953   7.040  0.0310  1.8220 -1.1257
   93SAPS   H3S 9116   4.781   5.798   6.966 -0.5067 -0.1695  0.8527
   93SAPS   C24 9117   4.629   5.883   7.094  0.1154  0.4582  0.0294
   93SAPS   H4R 9118   4.550   5.831   7.036  0.4770  0.4379 -0.4537
   93SAPS   H4S 9119   4.602   5.980   7.139 -0.4795  0.0139  0.6478
   93SAPS   C25 9120   4.665   5.780   7.199 -0.6021 -0.0252 -0.4240
   93SAPS   H5R 9121   4.639   5.676   7.173  1.9900 -1.0901  0.8175
   93SAPS   C26 9122   4.712   5.806   7.326  0.2676  0.2962 -0.1637
   93SAPS   H6R 9123   4.720   5.716   7.389 -0.8560  1.0794  1.1695
   93SAPS   C27 9124   4.742   5.939   7.385  0.8384 -0.5144  0.4328
   93SAPS   H7R 9125   4.697   5.945   7.486 -1.7089 -0.0768 -0.6412
   93SAPS   H7S 9126   4.694   6.027   7.338  4.0440  0.9104 -0.4547
   93SAPS   C28 9127   4.891   5.960   7.385 -0.1552  0.1018  0.0581
   93SAPS   H8R 9128   4.942   5.923   7.295 -0.6893 -1.5288  0.3896
   93SAPS   C29 9129   4.970   5.997   7.497  0.6267  0.5445 -0.1035
   93SAPS   H9R 9130   5.079   6.009   7.488  0.8088 -0.5579  0.4188
   93SAPS  C210 9131   4.906   6.043   7.625 -0.6800  0.0734 -0.1683
   93SAPS  H10R 9132   4.819   6.105   7.594  0.5899  1.8933 -0.2734
   93SAPS  H10S 9133   4.972   6.120   7.672 -0.9121  1.0955 -1.4464
   93SAPS  C211 9134   4.852   5.931   7.710 -0.1124  0.0080 -0.6354
   93SAPS  H11R 9135   4.825   5.840   7.655 -0.8756  0.6269 -1.3342
   93SAPS  C212 9136   4.826   5.948   7.844 -0.5949 -0.0008 -0.1548
   93SAPS  H12R 9137   4.778   5.874   7.910 -0.8251  1.4410  1.3710
   93SAPS  C213 9138   4.859   6.081   7.906 -0.3158  0.0555 -0.3469
   93SAPS  H13R 9139   4.775   6.087   7.978  1.5936  0.1129  2.0153
   93SAPS  H13S 9140   4.844   6.162   7.832 -1.2540 -1.2407 -1.6162
   93SAPS  C214 9141   4.989   6.087   7.981 -0.8998  1.4296  0.2239
   93SAPS  H14R 9142   5.078   6.083   7.916 -1.8674 -3.0829 -1.1684
   93SAPS  C215 9143   4.999   6.097   8.118 -0.0297  0.1809  0.0648
   93SAPS  H15R 9144   5.092   6.122   8.171  0.9696  1.7557 -2.2830
   93SAPS  C216 9145   4.879   6.110   8.218 -0.5168  0.8195 -0.0746
   93SAPS  H16R 9146   4.884   6.031   8.296  0.2580  1.0801  0.1550
   93SAPS  H16S 9147   4.783   6.094   8.165 -1.8759  0.7741  2.3207
   93SAPS  C217 9148   4.864   6.241   8.285 -0.0489 -0.2152  0.4573
   93SAPS  H17R 9149   4.841   6.318   8.208 -1.9707 -1.2486 -0.0768
   93SAPS  H17S 9150   4.956   6.259   8.345 -1.0226 -1.9503  2.6074
   93SAPS  C218 9151   4.739   6.232   8.376 -0.0844  0.2737  0.1116
   93SAPS  H18R 9152   4.738   6.139   8.438 -0.5058 -0.1128 -0.4661
   93SAPS  H18S 9153   4.645   6.229   8.317 -0.2774  1.6201  0.3304
   93SAPS  C219 9154   4.720   6.341   8.482  0.3526  0.1928 -0.4276
   93SAPS  H19R 9155   4.821   6.356   8.524  0.0601 -0.4813  0.5400
   93SAPS  H19S 9156   4.647   6.317   8.562 -0.1793  2.3488 -0.2074
   93SAPS  C220 9157   4.670   6.476   8.417 -0.9911 -0.3686 -0.2528
   93SAPS  H20R 9158   4.663   6.554   8.496  1.1781 -0.7759  0.4272
   93SAPS  H20S 9159   4.570   6.461   8.372 -0.8789  2.1140 -1.5075
   93SAPS  H20T 9160   4.729   6.504   8.327 -2.4335 -1.2070 -1.5003
   93SAPS   C33 9161   4.932   5.540   7.048 -1.1433  0.0473  0.3586
   93SAPS   H3X 9162   4.952   5.649   7.057  1.9047 -0.3190 -0.7198
   93SAPS   H3Y 9163   5.031   5.504   7.013 -0.7203  1.9387 -0.5027
   93SAPS   C34 9164   4.899   5.478   7.186  0.0789 -0.0157 -0.2948
   93SAPS   H4X 9165   4.903   5.367   7.184  1.2498  0.0089 -1.1906
   93SAPS   H4Y 9166   4.798   5.518   7.208  0.7102  1.1636  0.5591
   93SAPS   C35 9167   5.000   5.526   7.292 -0.0689 -0.1824 -0.0633
   93SAPS   H5X 9168   5.026   5.632   7.272 -0.5961 -0.0770 -0.2310
   93SAPS   H5Y 9169   5.095   5.470   7.280  1.2074  1.4572  1.7828
   93SAPS   C36 9170   4.924   5.521   7.427  0.0849  0.6529  0.5609
   93SAPS   H6X 9171   4.902   5.413   7.438 -0.7289  0.7681  0.1396
   93SAPS   H6Y 9172   4.819   5.556   7.424 -0.4196 -0.8282 -0.4089
   93SAPS   C37 9173   4.998   5.574   7.545 -0.3616  0.3719 -0.8755
   93SAPS   H7X 9174   4.992   5.684   7.532 -1.1240  0.3391 -0.8548
   93SAPS   H7Y 9175   5.105   5.546   7.533 -0.6667 -1.7505  0.8689
   93SAPS   C38 9176   4.939   5.544   7.684  0.6456 -0.3583 -0.1261
   93SAPS   H8X 9177   4.905   5.439   7.684 -0.7234  0.0592 -1.2343
   93SAPS   H8Y 9178   4.844   5.601   7.683  1.2833  0.7347 -1.0845
   93SAPS   C39 9179   5.031   5.582   7.805  0.1977  0.2905 -0.0685
   93SAPS   H9X 9180   5.086   5.671   7.766 -1.9214  1.4925 -0.4938
   93SAPS   H9Y 9181   5.097   5.494   7.820 -0.8032 -0.7043 -1.2478
   93SAPS  C310 9182   4.973   5.596   7.944  0.1780  0.3250 -0.4837
   93SAPS  H10X 9183   4.918   5.505   7.978  0.0762  0.8495  0.8312
   93SAPS  H10Y 9184   4.905   5.683   7.931 -0.2115  0.5854  2.5316
   93SAPS  C311 9185   5.072   5.629   8.055  0.1070 -0.3343 -0.0136
   93SAPS  H11X 9186   5.028   5.716   8.110  1.0785  0.0221  0.2194
   93SAPS  H11Y 9187   5.161   5.671   8.003  0.3430  1.2903  1.5855
   93SAPS  C312 9188   5.094   5.515   8.159 -0.0487  0.3058  0.0014
   93SAPS  H12X 9189   5.093   5.416   8.110 -0.2310  0.4994 -0.3878
   93SAPS  H12Y 9190   5.005   5.498   8.223  1.3576 -0.7905  1.7752
   93SAPS  C313 9191   5.217   5.538   8.246 -0.3388  0.0855 -0.0627
   93SAPS  H13X 9192   5.202   5.615   8.325 -0.6786 -0.5991  0.5524
   93SAPS  H13Y 9193   5.283   5.573   8.164 -0.7870 -1.1761 -1.0015
   93SAPS  C314 9194   5.262   5.409   8.306 -0.2700  0.5230  0.4205
   93SAPS  H14X 9195   5.341   5.445   8.375 -0.9607  0.0487  1.4900
   93SAPS  H14Y 9196   5.311   5.344   8.230  1.3634 -0.4371  2.2172
   93SAPS  C315 9197   5.157   5.332   8.382  0.4825  0.5269 -0.3087
   93SAPS  H15X 9198   5.202   5.246   8.436 -3.3266 -0.5655  1.5357
   93SAPS  H15Y 9199   5.092   5.291   8.302 -1.0595  0.2036  1.0596
   93SAPS  C316 9200   5.076   5.415   8.487 -0.7842  0.0708  0.0146
   93SAPS  H16X 9201   5.000   5.476   8.434 -1.4498 -0.3355  0.4904
   93SAPS  H16Y 9202   5.146   5.482   8.541 -0.4047 -0.9207  0.7799
   93SAPS  C317 9203   5.007   5.327   8.586 -0.2529 -0.1201  0.4927
   93SAPS  H17X 9204   5.077   5.247   8.616 -0.1567 -0.3077 -0.2095
   93SAPS  H17Y 9205   4.908   5.287   8.555 -0.7820  0.8191  0.9246
   93SAPS  C318 9206   4.964   5.414   8.712 -0.2974  0.3683  0.1779
   93SAPS  H18X 9207   4.894   5.498   8.692  1.1242  1.3171 -1.0425
   93SAPS  H18Y 9208   5.058   5.464   8.744  0.9552 -1.0620 -1.0916
   93SAPS  H18Z 9209   4.932   5.350   8.797 -1.0852 -0.9439 -1.0622
   94SAPS     N 9210   5.815   3.232   6.147 -0.5246  0.6577  0.1884
   94SAPS   HN1 9211   5.809   3.329   6.184 -0.4213  1.2811 -1.3285
   94SAPS   HN2 9212   5.751   3.170   6.201 -0.5537  2.1778  2.0085
   94SAPS   HN3 9213   5.915   3.207   6.156 -0.5589  0.7409  0.8195
   94SAPS   C12 9214   5.773   3.215   6.000 -0.1990 -0.4853  0.4972
   94SAPS  H12A 9215   5.671   3.252   6.003 -0.0977 -0.2209  0.7994
   94SAPS   C13 9216   5.836   3.309   5.898  0.2947  0.1642 -0.5866
   94SAPS  O13A 9217   5.910   3.406   5.935  0.6920 -0.1812  0.1911
   94SAPS  O13B 9218   5.777   3.318   5.787 -0.5635 -0.4627 -0.5134
   94SAPS   C11 9219   5.805   3.063   5.962 -0.3799 -0.7001  0.5066
   94SAPS  H11A 9220   5.916   3.060   5.972 -0.3858  1.2333  1.5050
   94SAPS  H11B 9221   5.774   3.044   5.857 -0.5786 -0.9608  0.6105
   94SAPS     P 9222   5.625   2.875   6.005 -0.4329 -0.2203  0.0092
   94SAPS   O13 9223   5.495   2.943   6.032 -0.0632 -0.0035 -0.1489
   94SAPS   O14 9224   5.643   2.823   5.867 -0.3316  0.1011  0.3054
   94SAPS   O12 9225   5.743   2.967   6.041  0.2276  0.0804  0.2336
   94SAPS   O11 9226   5.645   2.748   6.104 -0.2554  0.0724 -0.5426
   94SAPS    C1 9227   5.534   2.667   6.137  0.4403  0.3428 -0.8422
   94SAPS    HA 9228   5.446   2.726   6.171 -0.2514 -1.0467 -0.1512
   94SAPS    HB 9229   5.504   2.604   6.050 -1.4320  1.2661 -0.9259
   94SAPS    C2 9230   5.571   2.572   6.250  0.3696  0.2057 -0.0621
   94SAPS    HS 9231   5.487   2.504   6.280 -0.4808  1.8181  1.4164
   94SAPS   O21 9232   5.599   2.655   6.367 -0.2846  0.6637  0.0893
   94SAPS   C21 9233   5.491   2.681   6.440  0.5830 -0.3477 -0.2212
   94SAPS   O22 9234   5.381   2.638   6.411 -0.5412 -0.5600 -0.5232
   94SAPS   C22 9235   5.523   2.776   6.555  0.0834  0.3003  0.3195
   94SAPS   H2R 9236   5.626   2.755   6.589 -0.4168 -2.3305  0.4092
   94SAPS   H2S 9237   5.529   2.874   6.502 -1.7288  0.0499 -0.4180
   94SAPS    C3 9238   5.694   2.485   6.215 -0.1722  0.2031  0.1316
   94SAPS    HX 9239   5.770   2.561   6.188  1.6004 -1.5608 -0.0896
   94SAPS    HY 9240   5.673   2.423   6.125 -0.2248 -1.2896  1.1276
   94SAPS   O31 9241   5.740   2.403   6.326 -0.0353  0.4365  0.0973
   94SAPS   C31 9242   5.832   2.465   6.414 -0.5379 -0.0133 -0.0544
   94SAPS   O32 9243   5.891   2.566   6.390 -0.1498  0.4702  0.2143
   94SAPS   C32 9244   5.844   2.376   6.545 -0.0406 -0.3157  0.3276
   94SAPS   H2X 9245   5.742   2.337   6.567 -0.0784 -0.2425  0.2793
   94SAPS   H2Y 9246   5.866   2.448   6.627 -1.4299  1.1813 -0.5446
   94SAPS   C23 9247   5.416   2.768   6.670 -0.1638  0.2847  1.5941
   94SAPS   H3R 9248   5.320   2.799   6.624  0.3385 -0.5829 -0.1139
   94SAPS   H3S 9249   5.434   2.849   6.744 -1.2836  2.3462 -0.2737
   94SAPS   C24 9250   5.414   2.634   6.735 -0.0233 -0.7529 -0.5066
   94SAPS   H4R 9251   5.515   2.623   6.780  0.9216  2.8337 -1.4301
   94SAPS   H4S 9252   5.409   2.551   6.661 -0.9439 -1.7048  0.5982
   94SAPS   C25 9253   5.309   2.622   6.844 -0.5420 -0.7530  0.1514
   94SAPS   H5R 9254   5.209   2.640   6.800 -0.5704  1.6943  1.0813
   94SAPS   C26 9255   5.314   2.587   6.975  0.7064  0.6315  0.2347
   94SAPS   H6R 9256   5.226   2.589   7.041  0.8190 -1.9197  0.5556
   94SAPS   C27 9257   5.436   2.549   7.052 -0.3490  0.5993 -0.3728
   94SAPS   H7R 9258   5.516   2.517   6.982  1.4221 -2.0852  2.6389
   94SAPS   H7S 9259   5.418   2.458   7.112 -0.1685 -1.4348 -3.1921
   94SAPS   C28 9260   5.479   2.661   7.140  0.0380  0.2338 -0.5836
   94SAPS   H8R 9261   5.436   2.759   7.116 -0.0757  0.7402  1.5106
   94SAPS   C29 9262   5.559   2.644   7.251  0.0736  0.0095 -0.0259
   94SAPS   H9R 9263   5.572   2.726   7.324 -0.9800  1.2508 -1.1939
   94SAPS  C210 9264   5.624   2.513   7.310 -0.3665  0.0988 -0.2388
   94SAPS  H10R 9265   5.602   2.425   7.245  2.5214  0.6055 -2.0835
   94SAPS  H10S 9266   5.577   2.491   7.408  1.5678  0.7530  0.8973
   94SAPS  C211 9267   5.778   2.526   7.326 -0.5045 -0.3065  0.3275
   94SAPS  H11R 9268   5.829   2.491   7.235  0.7737 -1.4844  1.4668
   94SAPS  C212 9269   5.858   2.557   7.428  0.1092  0.5023 -0.2312
   94SAPS  H12R 9270   5.962   2.575   7.395  0.2725 -0.4060 -0.2218
   94SAPS  C213 9271   5.812   2.588   7.570  0.1418 -0.1627  0.0792
   94SAPS  H13R 9272   5.715   2.641   7.559  0.6623  0.5798 -1.1099
   94SAPS  H13S 9273   5.886   2.660   7.612 -1.9625  3.4424 -1.8606
   94SAPS  C214 9274   5.793   2.460   7.654 -0.3468 -0.1994  0.0727
   94SAPS  H14R 9275   5.843   2.374   7.607  0.7753  0.9256 -0.8923
   94SAPS  C215 9276   5.722   2.439   7.772  0.0793  0.3333  0.7736
   94SAPS  H15R 9277   5.717   2.339   7.817  0.8365  0.9056  2.1925
   94SAPS  C216 9278   5.644   2.536   7.852 -0.2246  0.5093 -0.3715
   94SAPS  H16R 9279   5.569   2.486   7.917 -0.1972 -0.8262 -1.3142
   94SAPS  H16S 9280   5.584   2.601   7.786 -0.4690  0.7291  0.0664
   94SAPS  C217 9281   5.719   2.635   7.934  0.0566  0.1160  0.2873
   94SAPS  H17R 9282   5.648   2.672   8.011 -1.7052 -2.6320  0.1333
   94SAPS  H17S 9283   5.752   2.723   7.875  0.7027  0.9833  1.8781
   94SAPS  C218 9284   5.847   2.597   8.008 -0.0198 -0.2410  0.0041
   94SAPS  H18R 9285   5.905   2.686   8.038 -0.4115  0.0772 -0.1706
   94SAPS  H18S 9286   5.909   2.533   7.942  0.9618 -0.3503  1.0005
   94SAPS  C219 9287   5.832   2.528   8.147 -0.1476  0.3550  0.1076
   94SAPS  H19R 9288   5.937   2.506   8.176 -0.7331 -3.4841 -0.1255
   94SAPS  H19S 9289   5.774   2.434   8.132 -1.1691  0.7460  1.4032
   94SAPS  C220 9290   5.768   2.606   8.261 -0.2050  0.0708 -0.2012
   94SAPS  H20R 9291   5.737   2.550   8.351 -0.9658  2.3053  0.9918
   94SAPS  H20S 9292   5.682   2.665   8.222  0.4466  0.0361 -1.7914
   94SAPS  H20T 9293   5.848   2.675   8.296 -2.2750  1.4310  2.2018
   94SAPS   C33 9294   5.944   2.268   6.527 -1.1606  0.6961  0.0611
   94SAPS   H3X 9295   6.037   2.328   6.518 -0.2866 -0.6295  0.0115
   94SAPS   H3Y 9296   5.923   2.201   6.441  0.0608 -2.3352  1.9337
   94SAPS   C34 9297   5.966   2.172   6.649 -0.2662 -0.0906 -1.1257
   94SAPS   H4X 9298   6.062   2.120   6.628  1.5680  2.7175 -0.2479
   94SAPS   H4Y 9299   5.883   2.099   6.638 -0.6126 -0.5520  2.9735
   94SAPS   C35 9300   5.968   2.240   6.789 -0.2346  0.9563  0.2948
   94SAPS   H5X 9301   5.865   2.280   6.804 -0.7299  1.3135 -3.0967
   94SAPS   H5Y 9302   6.017   2.338   6.776  2.8911 -0.5762 -0.3639
   94SAPS   C36 9303   6.025   2.144   6.898 -0.1118 -0.1098 -0.5880
   94SAPS   H6X 9304   6.126   2.106   6.874  0.4546  0.8356  0.2361
   94SAPS   H6Y 9305   5.959   2.054   6.899  0.0294 -0.2133 -0.5279
   94SAPS   C37 9306   6.034   2.211   7.041  0.5211 -0.2061  0.0148
   94SAPS   H7X 9307   5.940   2.256   7.079  1.0697  0.4605  0.6118
   94SAPS   H7Y 9308   6.111   2.291   7.027  1.4668 -0.7265  1.9053
   94SAPS   C38 9309   6.079   2.118   7.155  0.2634  0.6898  1.0215
   94SAPS   H8X 9310   6.169   2.064   7.119 -1.2595 -1.1429 -0.2419
   94SAPS   H8Y 9311   6.001   2.043   7.181 -0.8451  2.2741  2.5280
   94SAPS   C39 9312   6.111   2.196   7.278  0.4609  0.7717  0.4468
   94SAPS   H9X 9313   6.012   2.235   7.310 -0.6530  0.0598 -1.9262
   94SAPS   H9Y 9314   6.172   2.284   7.250 -0.5356  3.1752  4.8731
   94SAPS  C310 9315   6.163   2.112   7.396  0.1333  0.5006 -0.3372
   94SAPS  H10X 9316   6.267   2.078   7.372  0.7670  0.7040  1.8704
   94SAPS  H10Y 9317   6.095   2.024   7.402  3.3277 -2.1392  0.9321
   94SAPS  C311 9318   6.175   2.185   7.529  1.0250 -0.7595  0.2049
   94SAPS  H11X 9319   6.091   2.256   7.543  2.2833  0.3583  2.8459
   94SAPS  H11Y 9320   6.264   2.249   7.543 -1.4156  2.9004  0.2570
   94SAPS  C312 9321   6.167   2.085   7.643 -0.4693  0.1123 -0.3954
   94SAPS  H12X 9322   6.268   2.038   7.649 -0.3481  0.2907 -0.9607
   94SAPS  H12Y 9323   6.090   2.007   7.625 -1.6271  0.4961  2.4369
   94SAPS  C313 9324   6.137   2.156   7.778 -0.0679  0.1356 -0.2972
   94SAPS  H13X 9325   6.042   2.214   7.777  1.7203  3.3487 -0.2369
   94SAPS  H13Y 9326   6.215   2.235   7.785 -0.3355  0.5434 -1.5375
   94SAPS  C314 9327   6.141   2.075   7.897  0.9171 -0.5936  0.1527
   94SAPS  H14X 9328   6.236   2.024   7.921  1.3848  0.2656  0.1738
   94SAPS  H14Y 9329   6.059   2.000   7.897 -1.5456  1.9286 -1.1427
   94SAPS  C315 9330   6.114   2.167   8.019  0.0626  0.2409  0.9625
   94SAPS  H15X 9331   6.020   2.219   7.990 -0.6487 -0.7492  1.4527
   94SAPS  H15Y 9332   6.195   2.243   8.030 -1.4579  2.0685  0.0842
   94SAPS  C316 9333   6.087   2.091   8.151 -0.4519 -0.3043  0.2520
   94SAPS  H16X 9334   6.175   2.038   8.194 -0.4344 -1.7617 -1.4645
   94SAPS  H16Y 9335   6.014   2.009   8.132  0.5506 -2.0450  3.1650
   94SAPS  C317 9336   6.024   2.187   8.253  0.0659 -0.0154 -0.2018
   94SAPS  H17X 9337   5.987   2.117   8.330 -2.4832  1.1782 -0.2189
   94SAPS  H17Y 9338   5.946   2.252   8.207  0.8387  0.7650 -0.4354
   94SAPS  C318 9339   6.125   2.278   8.311 -1.2194  0.2407 -0.4229
   94SAPS  H18X 9340   6.202   2.230   8.375 -1.0240  1.3687  0.1941
   94SAPS  H18Y 9341   6.079   2.348   8.383 -0.7092  0.4783 -0.3224
   94SAPS  H18Z 9342   6.180   2.340   8.237  1.9376 -0.4239  1.1757
   95SAPS     N 9343   0.592   5.990   6.267  0.9274 -0.7705 -0.2630
   95SAPS   HN1 9344   0.661   6.065   6.287  0.3314  0.7503 -3.3323
   95SAPS   HN2 9345   0.523   5.978   6.344 -1.2575  0.5649 -1.8989
   95SAPS   HN3 9346   0.649   5.904   6.278  0.3919 -1.3879 -2.0056
   95SAPS   C12 9347   0.525   5.980   6.136 -0.1467 -0.2216 -0.1205
   95SAPS  H12A 9348   0.450   6.057   6.139 -0.1251 -0.1778 -0.6125
   95SAPS   C13 9349   0.608   5.989   6.008 -0.1502 -0.5978  0.2897
   95SAPS  O13A 9350   0.733   5.983   6.017  0.1612 -0.1487  0.6630
   95SAPS  O13B 9351   0.548   6.024   5.906 -0.0645  0.2759 -0.4060
   95SAPS   C11 9352   0.453   5.837   6.129  0.1422  0.5192  0.1603
   95SAPS  H11A 9353   0.526   5.758   6.098 -0.1431  0.6741 -0.9439
   95SAPS  H11B 9354   0.388   5.859   6.042 -0.2580  2.7915  0.9825
   95SAPS     P 9355   0.310   5.666   6.257 -0.1661  0.2666  0.1230
   95SAPS   O13 9356   0.174   5.685   6.300 -0.6613 -0.4163 -0.3438
   95SAPS   O14 9357   0.326   5.592   6.131 -0.3627 -0.6758  0.2963
   95SAPS   O12 9358   0.386   5.805   6.247 -0.1607  0.4428  0.2420
   95SAPS   O11 9359   0.389   5.589   6.374 -0.1359 -0.1283  0.1558
   95SAPS    C1 9360   0.438   5.669   6.486  0.2722 -0.3868 -0.3641
   95SAPS    HA 9361   0.548   5.679   6.486  0.1896  1.0400 -1.9652
   95SAPS    HB 9362   0.405   5.775   6.491  1.6597  0.0106  1.4531
   95SAPS    C2 9363   0.400   5.591   6.622 -0.0144 -0.1146 -0.2468
   95SAPS    HS 9364   0.401   5.665   6.705 -5.1558 -0.9159  0.9134
   95SAPS   O21 9365   0.488   5.472   6.634 -0.5063 -0.0936 -0.8672
   95SAPS   C21 9366   0.580   5.487   6.732 -0.3960 -0.4044 -0.0811
   95SAPS   O22 9367   0.600   5.586   6.802 -0.0519  0.0462  0.1018
   95SAPS   C22 9368   0.660   5.357   6.743  0.5395 -0.5238 -0.0272
   95SAPS   H2R 9369   0.645   5.306   6.646  0.5087 -0.9225  0.1848
   95SAPS   H2S 9370   0.768   5.383   6.747  0.1372  1.2361  0.4861
   95SAPS    C3 9371   0.260   5.533   6.613  0.2163  0.4553  0.0631
   95SAPS    HX 9372   0.257   5.444   6.546  1.1545  0.4343  0.0329
   95SAPS    HY 9373   0.198   5.611   6.564  0.4013 -0.0981 -1.0893
   95SAPS   O31 9374   0.205   5.509   6.741  0.1027 -0.1123  0.2447
   95SAPS   C31 9375   0.208   5.388   6.787  0.0462 -0.1385  0.5571
   95SAPS   O32 9376   0.251   5.285   6.738 -0.2279  0.3481 -0.5201
   95SAPS   C32 9377   0.130   5.391   6.922  0.6744  0.0984  0.2006
   95SAPS   H2X 9378   0.092   5.286   6.926 -0.8401  0.3221 -3.7526
   95SAPS   H2Y 9379   0.042   5.457   6.912 -0.9607 -2.1036 -0.7974
   95SAPS   C23 9380   0.619   5.259   6.858 -0.4335  0.1927  0.0066
   95SAPS   H3R 9381   0.515   5.226   6.837 -0.5303 -1.2440  2.3332
   95SAPS   H3S 9382   0.619   5.305   6.959 -2.2945 -0.0843  0.1727
   95SAPS   C24 9383   0.697   5.124   6.861 -0.1816 -0.5764  0.5772
   95SAPS   H4R 9384   0.679   5.071   6.765 -1.3067  0.5420  0.1397
   95SAPS   H4S 9385   0.646   5.068   6.942  0.5373  0.0786  1.5065
   95SAPS   C25 9386   0.842   5.129   6.882 -0.3317 -0.1451  0.0662
   95SAPS   H5R 9387   0.898   5.175   6.800  2.2470  0.4380  2.0313
   95SAPS   C26 9388   0.911   5.082   6.992  0.0502  0.0589 -1.0121
   95SAPS   H6R 9389   1.020   5.083   6.987  0.0465 -1.8375 -2.4619
   95SAPS   C27 9390   0.839   5.018   7.116 -0.6189 -0.3236  0.0241
   95SAPS   H7R 9391   0.735   4.993   7.087 -0.5481  0.3346 -0.8727
   95SAPS   H7S 9392   0.845   5.085   7.205  2.4535 -0.6996  0.2017
   95SAPS   C28 9393   0.920   4.892   7.143 -0.1944 -0.2862 -0.3423
   95SAPS   H8R 9394   0.918   4.818   7.061 -1.0997  1.0695 -1.5914
   95SAPS   C29 9395   0.996   4.865   7.253  0.3609  0.0919 -0.2348
   95SAPS   H9R 9396   1.044   4.766   7.263 -0.3281 -0.1487  0.8172
   95SAPS  C210 9397   1.013   4.956   7.374 -0.4948 -0.6969 -0.1409
   95SAPS  H10R 9398   0.916   4.965   7.428 -0.9970  1.0277 -1.2419
   95SAPS  H10S 9399   1.033   5.057   7.332 -0.9774  0.1306  1.5456
   95SAPS  C211 9400   1.138   4.934   7.466 -0.6506 -0.3226  0.0256
   95SAPS  H11R 9401   1.227   4.951   7.403 -0.6212  0.8595  0.3816
   95SAPS  C212 9402   1.136   4.895   7.596 -0.1687 -0.1682  0.1909
   95SAPS  H12R 9403   1.226   4.876   7.657 -1.1738 -0.6064  1.5838
   95SAPS  C213 9404   1.005   4.895   7.677  0.3981  0.0118 -0.1650
   95SAPS  H13R 9405   0.945   4.982   7.642  2.3719  1.4988 -0.0015
   95SAPS  H13S 9406   1.021   4.923   7.783 -0.4873 -0.1413  0.0239
   95SAPS  C214 9407   0.928   4.764   7.663 -0.1229 -0.6559  0.0056
   95SAPS  H14R 9408   0.866   4.752   7.572 -1.6881  0.9596  0.7959
   95SAPS  C215 9409   0.918   4.665   7.755  0.6077 -0.5958  0.3219
   95SAPS  H15R 9410   0.866   4.572   7.726  2.5792 -1.6673  0.0176
   95SAPS  C216 9411   0.974   4.648   7.889 -0.3392 -1.2666  0.3721
   95SAPS  H16R 9412   0.888   4.636   7.959  0.9550 -0.8870  2.0903
   95SAPS  H16S 9413   1.018   4.745   7.920 -1.9722  0.5720 -2.5614
   95SAPS  C217 9414   1.066   4.526   7.909 -0.2819 -0.0332 -0.2856
   95SAPS  H17R 9415   1.160   4.537   7.850  0.3847 -0.4515  0.6827
   95SAPS  H17S 9416   1.025   4.434   7.862 -0.3922 -1.2519  2.1002
   95SAPS  C218 9417   1.097   4.506   8.058  0.1086  0.2818  0.5771
   95SAPS  H18R 9418   1.116   4.606   8.102 -1.4586  1.0549 -0.4525
   95SAPS  H18S 9419   1.185   4.440   8.074 -0.6644 -0.6340  1.1835
   95SAPS  C219 9420   0.983   4.447   8.149  0.3361 -1.0017  0.5531
   95SAPS  H19R 9421   0.956   4.349   8.104  1.8371 -0.2897 -2.1284
   95SAPS  H19S 9422   0.893   4.512   8.143  0.0863 -1.1257  2.2464
   95SAPS  C220 9423   1.033   4.424   8.291  0.2020 -0.4248 -0.4469
   95SAPS  H20R 9424   0.953   4.366   8.343 -0.7680  0.2688 -1.1210
   95SAPS  H20S 9425   1.035   4.520   8.346  2.1693 -0.1471 -0.9472
   95SAPS  H20T 9426   1.135   4.383   8.308  0.8345  2.1218  2.9344
   95SAPS   C33 9427   0.212   5.429   7.050 -0.0160 -0.2316  0.1540
   95SAPS   H3X 9428   0.267   5.334   7.065 -3.3677 -2.0796  2.1274
   95SAPS   H3Y 9429   0.135   5.439   7.130 -1.0169 -0.7605 -0.7055
   95SAPS   C34 9430   0.307   5.545   7.035 -0.1514 -0.0160  0.3804
   95SAPS   H4X 9431   0.264   5.636   6.988  1.7497 -0.0576 -1.6242
   95SAPS   H4Y 9432   0.384   5.518   6.959 -3.2030 -3.1685 -1.9037
   95SAPS   C35 9433   0.381   5.590   7.161 -0.3961 -0.2865 -0.2670
   95SAPS   H5X 9434   0.311   5.623   7.240 -0.9209 -0.8923 -0.4757
   95SAPS   H5Y 9435   0.442   5.682   7.145  0.7295 -0.7306  1.2395
   95SAPS   C36 9436   0.481   5.479   7.213  0.2306 -0.1840  0.2872
   95SAPS   H6X 9437   0.563   5.467   7.140 -1.4393 -1.0528 -1.5496
   95SAPS   H6Y 9438   0.435   5.378   7.207 -2.8669  1.1076 -0.0918
   95SAPS   C37 9439   0.543   5.489   7.354 -0.9391 -0.1271  0.3203
   95SAPS   H7X 9440   0.587   5.590   7.366  0.6298 -0.6153 -1.0188
   95SAPS   H7Y 9441   0.619   5.410   7.373  0.4223  0.9723 -0.4278
   95SAPS   C38 9442   0.440   5.458   7.464 -0.6275  0.4587  0.1876
   95SAPS   H8X 9443   0.422   5.349   7.470 -1.9618  0.7114  1.0826
   95SAPS   H8Y 9444   0.355   5.529   7.454 -0.5847  0.6926  1.3892
   95SAPS   C39 9445   0.497   5.483   7.606 -0.2821 -0.4293 -0.0508
   95SAPS   H9X 9446   0.490   5.593   7.622  0.5512 -0.0995 -1.7798
   95SAPS   H9Y 9447   0.606   5.464   7.601 -0.0879  0.9951 -2.9575
   95SAPS  C310 9448   0.428   5.407   7.714 -0.8583  0.1203  0.5441
   95SAPS  H10X 9449   0.430   5.296   7.704  1.1832  0.1456  0.3252
   95SAPS  H10Y 9450   0.322   5.433   7.696 -0.6024  1.1672  0.5082
   95SAPS  C311 9451   0.466   5.451   7.852 -0.3624 -0.0408 -0.4891
   95SAPS  H11X 9452   0.443   5.559   7.859  0.4133  0.0034  2.6665
   95SAPS  H11Y 9453   0.573   5.440   7.880 -0.5743  0.7943  0.6794
   95SAPS  C312 9454   0.379   5.375   7.960  0.2670 -0.1614  0.1516
   95SAPS  H12X 9455   0.401   5.266   7.965  0.0090 -0.2796 -1.0060
   95SAPS  H12Y 9456   0.273   5.396   7.935 -0.5033 -0.0497  3.1795
   95SAPS  C313 9457   0.396   5.428   8.100 -0.0616  0.0659  0.2093
   95SAPS  H13X 9458   0.374   5.536   8.108 -3.4753 -0.4992  0.0523
   95SAPS  H13Y 9459   0.502   5.415   8.129  0.6842 -1.7794 -2.8901
   95SAPS  C314 9460   0.299   5.350   8.189  0.4741 -0.1648  0.0919
   95SAPS  H14X 9461   0.334   5.245   8.193  0.3370 -0.2146 -0.0007
   95SAPS  H14Y 9462   0.202   5.353   8.134  1.4717  0.1338 -1.7225
   95SAPS  C315 9463   0.286   5.411   8.329 -0.2323  0.5201  0.2126
   95SAPS  H15X 9464   0.185   5.416   8.375 -0.4948  2.1043 -0.4760
   95SAPS  H15Y 9465   0.326   5.514   8.326  0.5234  0.2128 -0.4771
   95SAPS  C316 9466   0.369   5.319   8.425  0.1119 -0.2956 -0.1243
   95SAPS  H16X 9467   0.473   5.314   8.388  0.0331 -0.2108 -0.3595
   95SAPS  H16Y 9468   0.325   5.217   8.435 -0.8115  0.1363  0.3528
   95SAPS  C317 9469   0.371   5.385   8.567 -0.6435 -0.9727  0.2415
   95SAPS  H17X 9470   0.266   5.391   8.602 -0.8365  1.6210 -0.5439
   95SAPS  H17Y 9471   0.401   5.491   8.550 -2.1926 -0.2901  1.4748
   95SAPS  C318 9472   0.448   5.306   8.676  0.0359  0.5676  0.2252
   95SAPS  H18X 9473   0.542   5.262   8.636  0.2183  0.4026  0.8278
   95SAPS  H18Y 9474   0.392   5.227   8.730 -2.5148  2.8672  1.1567
   95SAPS  H18Z 9475   0.478   5.375   8.758 -1.2836 -0.0069  1.2403
   96SAPS     N 9476   2.226   6.682   6.130 -0.3141 -0.2401  0.7821
   96SAPS   HN1 9477   2.213   6.587   6.088 -3.4217 -0.2619  1.5262
   96SAPS   HN2 9478   2.193   6.756   6.065 -0.3959 -0.5498  0.4684
   96SAPS   HN3 9479   2.327   6.695   6.154 -0.5572 -0.1918  1.8393
   96SAPS   C12 9480   2.140   6.680   6.247  0.0331 -0.8187 -0.0663
   96SAPS  H12A 9481   2.161   6.761   6.315 -0.7315  0.1895 -0.9993
   96SAPS   C13 9482   1.987   6.698   6.210  0.1410  0.4015  0.2316
   96SAPS  O13A 9483   1.959   6.721   6.093  0.0117  0.2891  0.3548
   96SAPS  O13B 9484   1.903   6.708   6.305  0.1460 -0.7889  0.2667
   96SAPS   C11 9485   2.163   6.548   6.323 -0.2082 -0.1802 -0.7354
   96SAPS  H11A 9486   2.136   6.458   6.264  1.2563 -0.7319 -0.6042
   96SAPS  H11B 9487   2.092   6.550   6.409  0.6613 -0.1890 -0.0028
   96SAPS     P 9488   2.338   6.435   6.477 -0.0783  0.1444 -0.1862
   96SAPS   O13 9489   2.339   6.303   6.409  0.3175  0.3254 -0.8937
   96SAPS   O14 9490   2.464   6.489   6.530 -0.0428  0.1653  0.2292
   96SAPS   O12 9491   2.294   6.544   6.374  0.1278  0.4555 -0.0996
   96SAPS   O11 9492   2.229   6.430   6.599 -0.6716  0.4121 -0.5313
   96SAPS    C1 9493   2.188   6.542   6.683 -0.5887 -0.2540  0.0655
   96SAPS    HA 9494   2.191   6.639   6.630  1.3864 -1.4619 -2.2498
   96SAPS    HB 9495   2.086   6.526   6.724  0.6438 -1.9187  2.7536
   96SAPS    C2 9496   2.270   6.555   6.815  0.7741 -0.1267  0.2824
   96SAPS    HS 9497   2.374   6.579   6.784 -0.6912  2.6502 -3.0817
   96SAPS   O21 9498   2.249   6.427   6.876  0.0243 -0.3885  0.2697
   96SAPS   C21 9499   2.358   6.388   6.948 -0.0055 -0.3720 -0.7642
   96SAPS   O22 9500   2.460   6.455   6.962 -0.3453  0.4905 -0.4073
   96SAPS   C22 9501   2.313   6.265   7.024 -0.3914 -0.3228 -0.6442
   96SAPS   H2R 9502   2.306   6.181   6.952  1.0483 -0.3482 -0.7780
   96SAPS   H2S 9503   2.391   6.237   7.098  0.5118  2.0864 -0.6151
   96SAPS    C3 9504   2.214   6.676   6.901  0.4053  0.1971 -0.2703
   96SAPS    HX 9505   2.104   6.676   6.885  0.2720 -0.2814  0.5622
   96SAPS    HY 9506   2.256   6.767   6.853 -0.0086 -0.3011 -1.6152
   96SAPS   O31 9507   2.257   6.661   7.043 -0.2919 -0.5220 -0.1274
   96SAPS   C31 9508   2.247   6.776   7.110 -0.0961 -0.5458 -0.2942
   96SAPS   O32 9509   2.219   6.881   7.057 -0.3629  0.1373 -0.3322
   96SAPS   C32 9510   2.265   6.755   7.267 -0.8444  0.4926 -0.2730
   96SAPS   H2X 9511   2.163   6.772   7.309 -1.1488 -1.8505  0.0437
   96SAPS   H2Y 9512   2.331   6.836   7.305  1.5158 -0.6825 -1.6834
   96SAPS   C23 9513   2.179   6.284   7.104  0.2573  0.3495 -0.0378
   96SAPS   H3R 9514   2.097   6.265   7.032 -0.4376 -1.0463  1.0789
   96SAPS   H3S 9515   2.167   6.383   7.153 -0.4764  1.2231 -1.9191
   96SAPS   C24 9516   2.146   6.168   7.206  0.0881 -0.3097 -0.3899
   96SAPS   H4R 9517   2.157   6.069   7.157 -0.1754 -0.4716 -0.1259
   96SAPS   H4S 9518   2.039   6.179   7.234 -0.6193 -1.5640 -2.4252
   96SAPS   C25 9519   2.231   6.167   7.332 -0.1575  0.0639 -0.4322
   96SAPS   H5R 9520   2.307   6.246   7.330  1.9301 -1.8213 -0.0032
   96SAPS   C26 9521   2.226   6.069   7.423 -0.9653 -0.1491 -0.4670
   96SAPS   H6R 9522   2.298   6.082   7.506 -1.2188 -1.6460  0.0129
   96SAPS   C27 9523   2.126   5.962   7.426  0.5372  0.1171 -0.0772
   96SAPS   H7R 9524   2.160   5.868   7.474 -1.5635  0.5123  2.4336
   96SAPS   H7S 9525   2.098   5.932   7.323  0.2318  0.3513 -0.0652
   96SAPS   C28 9526   1.999   6.014   7.492 -0.0699  0.1982 -0.2656
   96SAPS   H8R 9527   1.956   6.105   7.448 -0.8119  0.0357  0.1004
   96SAPS   C29 9528   1.942   5.968   7.606 -0.0610  0.5893  0.2420
   96SAPS   H9R 9529   1.854   6.020   7.646 -0.6406  0.0070 -0.2503
   96SAPS  C210 9530   2.001   5.845   7.678  0.3838  0.3381 -0.0733
   96SAPS  H10R 9531   2.110   5.851   7.699  0.3701  0.2146  0.0291
   96SAPS  H10S 9532   1.978   5.751   7.624  0.7297 -0.7585  1.6300
   96SAPS  C211 9533   1.929   5.813   7.804  0.0921 -0.0118  0.4684
   96SAPS  H11R 9534   1.839   5.873   7.824  0.2771  1.1837 -1.9477
   96SAPS  C212 9535   1.962   5.719   7.895 -0.1443  0.6309 -0.5582
   96SAPS  H12R 9536   1.891   5.692   7.974  2.9000 -1.1571  1.8059
   96SAPS  C213 9537   2.077   5.625   7.889  0.8490 -0.0751  0.1179
   96SAPS  H13R 9538   2.154   5.660   7.960  0.5860 -0.8849  0.8204
   96SAPS  H13S 9539   2.119   5.624   7.786 -0.8387 -2.6598 -0.6384
   96SAPS  C214 9540   2.024   5.485   7.906  0.6330 -0.1098 -1.0957
   96SAPS  H14R 9541   1.949   5.443   7.837  0.1352  2.6580 -2.3779
   96SAPS  C215 9542   2.040   5.404   8.017 -0.2439 -0.8475  0.4356
   96SAPS  H15R 9543   1.981   5.311   8.022 -1.5594 -0.0763 -0.2927
   96SAPS  C216 9544   2.119   5.453   8.130  0.2949 -0.5378 -0.4855
   96SAPS  H16R 9545   2.128   5.563   8.140 -2.5642 -0.2836  0.3580
   96SAPS  H16S 9546   2.225   5.420   8.130  0.4365 -0.1670  1.1976
   96SAPS  C217 9547   2.051   5.420   8.264  0.3119 -0.1311 -0.0663
   96SAPS  H17R 9548   2.028   5.311   8.271  1.2622 -0.3987 -0.9588
   96SAPS  H17S 9549   1.956   5.478   8.268  0.8411  0.6663  1.3002
   96SAPS  C218 9550   2.145   5.437   8.380  0.2573  0.4694 -0.5696
   96SAPS  H18R 9551   2.226   5.361   8.387  0.0175  0.2564 -0.0374
   96SAPS  H18S 9552   2.087   5.424   8.474 -1.2985  1.9320 -1.2716
   96SAPS  C219 9553   2.209   5.576   8.383  0.0584  0.2234 -0.2175
   96SAPS  H19R 9554   2.131   5.656   8.383  0.1225  0.2902  0.3191
   96SAPS  H19S 9555   2.275   5.593   8.296 -1.9327 -0.0279 -1.8491
   96SAPS  C220 9556   2.291   5.602   8.510  0.2205  0.4156 -0.2646
   96SAPS  H20R 9557   2.355   5.691   8.493 -0.9016  1.1529 -0.7776
   96SAPS  H20S 9558   2.357   5.513   8.520  0.1306  0.3857  0.0506
   96SAPS  H20T 9559   2.221   5.611   8.596  0.3801  0.5490 -0.1505
   96SAPS   C33 9560   2.306   6.614   7.315 -0.3590  0.0205  0.5135
   96SAPS   H3X 9561   2.393   6.572   7.262 -1.4508 -0.1991 -1.1699
   96SAPS   H3Y 9562   2.225   6.542   7.290  0.0091  0.2725 -1.5176
   96SAPS   C34 9563   2.323   6.612   7.465  0.1005 -0.3377  0.2423
   96SAPS   H4X 9564   2.328   6.504   7.493 -0.4760 -1.4963 -3.5614
   96SAPS   H4Y 9565   2.228   6.654   7.506 -0.6563 -1.2356 -0.5426
   96SAPS   C35 9566   2.435   6.694   7.515  0.1317  0.4600  0.0760
   96SAPS   H5X 9567   2.427   6.801   7.484 -2.6180 -0.2151 -1.9169
   96SAPS   H5Y 9568   2.525   6.651   7.466 -0.2307 -0.7398  0.4381
   96SAPS   C36 9569   2.447   6.679   7.670 -0.2741 -0.4456  0.1781
   96SAPS   H6X 9570   2.551   6.700   7.700 -0.9388  0.5302  1.9330
   96SAPS   H6Y 9571   2.415   6.575   7.693  1.6630 -0.9811  0.6169
   96SAPS   C37 9572   2.360   6.786   7.750 -0.0834  0.1500  0.6613
   96SAPS   H7X 9573   2.255   6.756   7.732  0.6516 -0.4246 -3.6456
   96SAPS   H7Y 9574   2.381   6.887   7.709 -0.8334 -0.0199 -0.1496
   96SAPS   C38 9575   2.384   6.781   7.904  0.4214  0.5584 -0.4393
   96SAPS   H8X 9576   2.305   6.826   7.968 -1.8777 -1.7535 -1.4724
   96SAPS   H8Y 9577   2.476   6.842   7.914 -0.8147  2.7481 -1.6093
   96SAPS   C39 9578   2.404   6.637   7.976 -0.1125  0.5657  0.3377
   96SAPS   H9X 9579   2.496   6.596   7.931 -0.4620  1.4118 -1.2224
   96SAPS   H9Y 9580   2.317   6.583   7.932 -0.3130  0.9555  0.2507
   96SAPS  C310 9581   2.396   6.638   8.130  0.9028 -0.4458 -0.4101
   96SAPS  H10X 9582   2.313   6.708   8.159  1.4652  2.5533 -5.0411
   96SAPS  H10Y 9583   2.478   6.698   8.174 -1.2424  1.6438  1.0254
   96SAPS  C311 9584   2.384   6.508   8.206 -0.0613  0.0194 -0.4163
   96SAPS  H11X 9585   2.489   6.473   8.213  0.4995  1.7209  0.4396
   96SAPS  H11Y 9586   2.318   6.442   8.147  0.6691 -0.0867 -1.1394
   96SAPS  C312 9587   2.334   6.532   8.349 -0.5976  0.0537 -0.0348
   96SAPS  H12X 9588   2.233   6.575   8.329 -0.2371  0.5348 -0.8775
   96SAPS  H12Y 9589   2.398   6.607   8.401  0.1677 -0.2393 -0.5448
   96SAPS  C313 9590   2.322   6.403   8.432 -0.3082 -0.5164 -0.4374
   96SAPS  H13X 9591   2.425   6.362   8.431  0.5317  1.4908 -1.9850
   96SAPS  H13Y 9592   2.250   6.339   8.377  0.1881  0.7792 -2.7031
   96SAPS  C314 9593   2.272   6.419   8.575 -0.0511 -0.4212 -0.3838
   96SAPS  H14X 9594   2.185   6.488   8.567 -0.2091 -0.5147  0.4627
   96SAPS  H14Y 9595   2.355   6.449   8.641 -0.1709 -1.7008  0.3966
   96SAPS  C315 9596   2.200   6.297   8.629 -0.0328 -0.4119 -0.2394
   96SAPS  H15X 9597   2.127   6.268   8.552 -1.0985 -1.6130  1.1571
   96SAPS  H15Y 9598   2.121   6.318   8.704 -2.1313 -2.8177 -1.6158
   96SAPS  C316 9599   2.288   6.181   8.674 -0.0581 -0.2030 -0.2793
   96SAPS  H16X 9600   2.365   6.195   8.752  0.0641  0.6523 -0.5425
   96SAPS  H16Y 9601   2.347   6.153   8.584 -1.1801  0.8506 -1.3898
   96SAPS  C317 9602   2.199   6.058   8.721  0.6884  0.0260  0.2072
   96SAPS  H17X 9603   2.120   6.044   8.645  3.0582  0.8620 -2.5942
   96SAPS  H17Y 9604   2.155   6.085   8.820 -0.3489  0.6260 -0.4019
   96SAPS  C318 9605   2.279   5.929   8.742  0.1149  0.6266  0.1883
   96SAPS  H18X 9606   2.334   5.938   8.839  0.7652 -0.5633 -0.0572
   96SAPS  H18Y 9607   2.358   5.919   8.665  1.8468 -1.8633  2.1015
   96SAPS  H18Z 9608   2.213   5.840   8.736 -0.4517  0.9927  0.8868
   97SAPS     N 9609   2.749   6.715   6.059 -0.5397 -0.1054  0.4323
   97SAPS   HN1 9610   2.733   6.616   6.087 -0.4707 -0.7415 -1.6207
   97SAPS   HN2 9611   2.721   6.730   5.960  2.5717  0.8932 -0.4169
   97SAPS   HN3 9612   2.853   6.719   6.053 -0.6414  0.5279 -1.3414
   97SAPS   C12 9613   2.690   6.800   6.158 -0.0271 -0.2239  1.0328
   97SAPS  H12A 9614   2.716   6.902   6.133  2.3410 -0.8396  0.7579
   97SAPS   C13 9615   2.531   6.779   6.170  0.4485  0.8481 -0.2382
   97SAPS  O13A 9616   2.475   6.701   6.089 -0.1366 -0.7326 -0.5032
   97SAPS  O13B 9617   2.475   6.868   6.237 -0.3365  0.5109  0.0220
   97SAPS   C11 9618   2.741   6.761   6.301 -0.0395  0.0010  1.1577
   97SAPS  H11A 9619   2.701   6.660   6.324  1.2099 -0.2009  2.5272
   97SAPS  H11B 9620   2.696   6.830   6.376  0.4987  0.9511  0.6256
   97SAPS     P 9621   2.950   6.726   6.440 -0.2390  0.0267  0.1594
   97SAPS   O13 9622   2.902   6.594   6.490 -0.4374 -0.2285  0.2832
   97SAPS   O14 9623   3.094   6.739   6.427 -0.4921 -0.3113  0.1756
   97SAPS   O12 9624   2.885   6.768   6.296  0.6191  0.3527 -0.2258
   97SAPS   O11 9625   2.914   6.837   6.548  0.0544 -0.0847 -0.8875
   97SAPS    C1 9626   2.962   6.975   6.534  0.1345 -0.2102  0.6389
   97SAPS    HA 9627   3.071   6.990   6.546 -0.0284  2.5694 -0.6359
   97SAPS    HB 9628   2.948   7.003   6.428 -2.6621 -0.9713  0.7367
   97SAPS    C2 9629   2.890   7.083   6.624 -0.1582 -0.0138 -0.0628
   97SAPS    HS 9630   2.926   7.182   6.588 -0.2028 -0.4107 -1.2380
   97SAPS   O21 9631   2.916   7.058   6.762  0.1703 -0.4228 -0.0396
   97SAPS   C21 9632   3.034   7.106   6.786 -0.2254  0.3701 -0.0729
   97SAPS   O22 9633   3.098   7.187   6.730 -0.9076 -0.1349  0.1936
   97SAPS   C22 9634   3.083   7.041   6.916  0.0068 -0.3170  0.2486
   97SAPS   H2R 9635   3.008   7.068   6.993 -0.9320  0.7545 -0.9992
   97SAPS   H2S 9636   3.087   6.931   6.895  0.5328 -0.3284  0.3933
   97SAPS    C3 9637   2.739   7.084   6.597  0.2335  0.4650  0.6209
   97SAPS    HX 9638   2.701   6.981   6.610  2.3905 -0.6131 -0.9332
   97SAPS    HY 9639   2.724   7.115   6.491 -1.1828  2.3560  1.3104
   97SAPS   O31 9640   2.673   7.175   6.689 -0.3201  0.2844 -0.5420
   97SAPS   C31 9641   2.627   7.121   6.808 -0.4224 -0.5404  0.1834
   97SAPS   O32 9642   2.631   7.008   6.846 -0.0072  0.0186 -0.3867
   97SAPS   C32 9643   2.566   7.233   6.892  0.2750  1.1347 -0.3291
   97SAPS   H2X 9644   2.474   7.184   6.930  0.9072 -1.5287 -1.9227
   97SAPS   H2Y 9645   2.529   7.308   6.818 -1.7461  2.2921  1.7386
   97SAPS   C23 9646   3.216   7.103   6.960 -0.1039  0.2376  0.2129
   97SAPS   H3R 9647   3.199   7.210   6.984 -3.2709 -0.4958  1.8435
   97SAPS   H3S 9648   3.283   7.094   6.872  1.2629  2.1903  0.9801
   97SAPS   C24 9649   3.278   7.033   7.081 -0.0086 -0.0703  0.0746
   97SAPS   H4R 9650   3.382   7.069   7.102  0.5593 -2.7998  2.5960
   97SAPS   H4S 9651   3.284   6.925   7.058  1.1929 -0.4110  1.7498
   97SAPS   C25 9652   3.192   7.060   7.198 -0.0695 -0.3862  0.3957
   97SAPS   H5R 9653   3.085   7.063   7.171  0.2974  1.8106 -1.1028
   97SAPS   C26 9654   3.230   7.080   7.323  0.1328  0.2968 -0.1809
   97SAPS   H6R 9655   3.151   7.107   7.395 -0.2614  0.4252 -0.6561
   97SAPS   C27 9656   3.374   7.078   7.370 -0.3972  0.0904 -0.7272
   97SAPS   H7R 9657   3.446   7.137   7.310  0.6024 -1.8875 -1.5569
   97SAPS   H7S 9658   3.414   6.974   7.367  1.0490  0.4703  2.0292
   97SAPS   C28 9659   3.391   7.115   7.514 -0.0882 -1.0249 -0.4844
   97SAPS   H8R 9660   3.424   7.217   7.541  1.0469 -1.4253 -0.2844
   97SAPS   C29 9661   3.366   7.035   7.625 -0.1185 -0.7906  0.2522
   97SAPS   H9R 9662   3.371   7.082   7.725  1.6555 -0.7922  0.1941
   97SAPS  C210 9663   3.322   6.893   7.611 -0.2484 -0.1445 -0.7446
   97SAPS  H10R 9664   3.410   6.829   7.592 -0.0928  0.1418 -0.9837
   97SAPS  H10S 9665   3.253   6.876   7.526 -1.8423 -0.5509  0.5623
   97SAPS  C211 9666   3.254   6.828   7.723  0.0433  0.2218 -0.6462
   97SAPS  H11R 9667   3.156   6.874   7.745  0.1965  2.1860 -3.4769
   97SAPS  C212 9668   3.298   6.722   7.799  0.0372  0.4851  0.6302
   97SAPS  H12R 9669   3.232   6.669   7.869 -0.6471 -1.2854 -1.2396
   97SAPS  C213 9670   3.437   6.660   7.786 -0.8120  0.2195  0.0035
   97SAPS  H13R 9671   3.479   6.615   7.878 -2.8607 -2.1496 -0.1034
   97SAPS  H13S 9672   3.511   6.737   7.757 -0.7530  0.0231 -0.3789
   97SAPS  C214 9673   3.458   6.564   7.674 -0.1933 -0.3416  0.8896
   97SAPS  H14R 9674   3.372   6.546   7.609 -0.4946 -0.0240  1.1962
   97SAPS  C215 9675   3.576   6.500   7.647 -0.4964 -0.4552  0.1579
   97SAPS  H15R 9676   3.583   6.436   7.557  1.3256  0.3232 -0.2899
   97SAPS  C216 9677   3.710   6.522   7.718 -0.6645  0.6472  0.0682
   97SAPS  H16R 9678   3.701   6.609   7.787  2.8593  1.4373 -0.2577
   97SAPS  H16S 9679   3.791   6.535   7.643  0.0385 -2.3345  0.2034
   97SAPS  C217 9680   3.751   6.397   7.798  0.0028 -0.0452  0.2987
   97SAPS  H17R 9681   3.726   6.311   7.731 -0.7014  2.5651 -3.0920
   97SAPS  H17S 9682   3.683   6.405   7.885  0.7278 -0.3642  0.9017
   97SAPS  C218 9683   3.899   6.390   7.846  0.5092 -0.1333  0.3330
   97SAPS  H18R 9684   3.961   6.343   7.767  1.4236  1.3938  0.1109
   97SAPS  H18S 9685   3.897   6.328   7.939  0.7397 -2.7751 -1.3200
   97SAPS  C219 9686   3.969   6.520   7.872  0.7076  0.1892  0.2225
   97SAPS  H19R 9687   3.976   6.581   7.780  2.3281 -0.1539  0.0967
   97SAPS  H19S 9688   4.071   6.501   7.912  2.0925  2.4886 -1.9401
   97SAPS  C220 9689   3.913   6.606   7.983  0.8420 -0.7168  0.2291
   97SAPS  H20R 9690   3.955   6.707   7.966  1.1699 -1.1255 -1.6840
   97SAPS  H20S 9691   3.926   6.569   8.087  0.2058  1.4435  1.1119
   97SAPS  H20T 9692   3.803   6.617   7.977  0.8131 -1.6418 -1.7819
   97SAPS   C33 9693   2.662   7.298   6.988 -0.3621  0.4459 -0.3049
   97SAPS   H3X 9694   2.615   7.392   7.024  0.5583  0.5453  0.6914
   97SAPS   H3Y 9695   2.752   7.333   6.932 -0.4449 -0.0783 -0.7665
   97SAPS   C34 9696   2.677   7.205   7.107 -0.0627  0.2338  0.5973
   97SAPS   H4X 9697   2.750   7.122   7.091  0.3584  1.1577 -3.2899
   97SAPS   H4Y 9698   2.579   7.161   7.136 -0.2709 -0.9430 -1.6575
   97SAPS   C35 9699   2.735   7.275   7.229 -0.9353  0.0124  0.3804
   97SAPS   H5X 9700   2.662   7.356   7.250 -0.9396  1.5758 -4.3437
   97SAPS   H5Y 9701   2.827   7.330   7.201 -0.2750 -0.9355  0.6439
   97SAPS   C36 9702   2.757   7.189   7.357  0.1237 -0.7525  0.1980
   97SAPS   H6X 9703   2.832   7.111   7.332  3.1068  1.4809  1.5486
   97SAPS   H6Y 9704   2.660   7.151   7.395  0.1015 -2.6324 -1.5803
   97SAPS   C37 9705   2.837   7.275   7.457 -0.2528 -0.1940  1.1899
   97SAPS   H7X 9706   2.767   7.351   7.500  2.0952  1.7692  1.7309
   97SAPS   H7Y 9707   2.908   7.332   7.394 -1.9469  0.4506 -0.2306
   97SAPS   C38 9708   2.908   7.195   7.559 -0.4983  0.6316 -0.8859
   97SAPS   H8X 9709   2.962   7.111   7.511 -2.4395 -0.5058 -1.1582
   97SAPS   H8Y 9710   2.834   7.152   7.630 -0.6509  2.3984  0.0887
   97SAPS   C39 9711   3.005   7.273   7.661 -1.0929 -0.0695  0.8568
   97SAPS   H9X 9712   2.951   7.367   7.686 -1.4116  0.1353 -0.5130
   97SAPS   H9Y 9713   3.092   7.307   7.601 -2.0053 -0.2362 -0.6408
   97SAPS  C310 9714   3.043   7.189   7.778  0.1806 -0.3031  0.2228
   97SAPS  H10X 9715   3.068   7.092   7.730 -1.4671 -0.9713  0.6403
   97SAPS  H10Y 9716   2.951   7.168   7.837 -0.0223 -0.2471 -0.0662
   97SAPS  C311 9717   3.140   7.248   7.874 -0.0374 -0.2787 -0.7975
   97SAPS  H11X 9718   3.215   7.310   7.821 -1.0501  0.8505 -0.9375
   97SAPS  H11Y 9719   3.205   7.182   7.936 -1.3622 -1.5304 -0.6602
   97SAPS  C312 9720   3.063   7.334   7.976  0.9331  0.2269 -0.0765
   97SAPS  H12X 9721   2.984   7.268   8.018  1.5889 -1.2481 -1.0840
   97SAPS  H12Y 9722   3.021   7.429   7.937  0.6740 -0.3790 -1.3216
   97SAPS  C313 9723   3.145   7.375   8.097 -0.5268  0.2599  0.0233
   97SAPS  H13X 9724   3.236   7.425   8.057  0.0820  1.2630  2.4298
   97SAPS  H13Y 9725   3.173   7.285   8.155 -0.1458  0.2182 -0.2254
   97SAPS  C314 9726   3.078   7.482   8.190  0.3297  0.1225 -0.0808
   97SAPS  H14X 9727   2.992   7.533   8.141 -0.0833 -1.6033 -1.2443
   97SAPS  H14Y 9728   3.161   7.554   8.207  0.4257 -0.3493  1.5320
   97SAPS  C315 9729   3.017   7.430   8.322  0.0716 -0.0896  1.0926
   97SAPS  H15X 9730   3.092   7.378   8.386  0.2821  1.3404  2.0352
   97SAPS  H15Y 9731   2.939   7.356   8.293 -0.5086  0.7051  0.5969
   97SAPS  C316 9732   2.955   7.544   8.402  0.5655  0.0321 -0.4966
   97SAPS  H16X 9733   2.889   7.497   8.478  0.6113  2.0245  0.8195
   97SAPS  H16Y 9734   2.890   7.598   8.330  0.7501  0.7907 -0.1013
   97SAPS  C317 9735   3.062   7.624   8.472 -0.6802 -0.2277  0.3319
   97SAPS  H17X 9736   3.112   7.678   8.389 -0.9361  0.9553  0.9246
   97SAPS  H17Y 9737   3.133   7.557   8.525 -1.0512  0.6434  1.9803
   97SAPS  C318 9738   3.012   7.734   8.563 -0.5565  0.4077  0.3440
   97SAPS  H18X 9739   2.920   7.775   8.515  0.1182  1.1733 -0.3160
   97SAPS  H18Y 9740   3.088   7.813   8.577 -0.9672  0.7396  0.7644
   97SAPS  H18Z 9741   2.989   7.690   8.662  4.1752 -1.3366  0.9183
   98SAPS     N 9742   6.589   5.821   5.939 -0.1522 -0.0767 -0.5906
   98SAPS   HN1 9743   6.653   5.899   5.917  0.4766 -0.7265 -1.1240
   98SAPS   HN2 9744   6.642   5.749   5.992  1.0676  0.0484 -1.5917
   98SAPS   HN3 9745   6.571   5.775   5.847 -1.2715 -0.4024 -0.2319
   98SAPS   C12 9746   6.456   5.869   5.984  0.1706  0.6088 -0.2911
   98SAPS  H12A 9747   6.429   5.940   5.908 -0.2344 -0.0548 -0.7774
   98SAPS   C13 9748   6.338   5.775   5.989  0.5787 -0.1842  0.5625
   98SAPS  O13A 9749   6.347   5.657   5.945 -0.4466  0.1648 -0.3090
   98SAPS  O13B 9750   6.233   5.817   6.043  0.1283  0.3933  0.5241
   98SAPS   C11 9751   6.481   5.950   6.115  0.1613  0.0244  0.4142
   98SAPS  H11A 9752   6.508   5.880   6.197  3.7642 -0.0160 -0.6574
   98SAPS  H11B 9753   6.385   5.999   6.142 -1.0503 -2.3920  0.7239
   98SAPS     P 9754   6.586   6.166   6.210 -0.3949  0.2889  0.2559
   98SAPS   O13 9755   6.644   6.285   6.148  0.0779 -0.0255  0.1955
   98SAPS   O14 9756   6.455   6.191   6.264 -0.1357  0.0264  0.1872
   98SAPS   O12 9757   6.586   6.046   6.103 -0.3577 -0.4748  0.7913
   98SAPS   O11 9758   6.677   6.118   6.328 -0.1359  0.2764 -0.1132
   98SAPS    C1 9759   6.745   5.989   6.321  0.1027  0.1803 -0.2344
   98SAPS    HA 9760   6.675   5.903   6.327  0.8092 -0.4104 -0.1937
   98SAPS    HB 9761   6.810   5.969   6.232  1.0183 -1.3680  0.7280
   98SAPS    C2 9762   6.830   5.966   6.456  0.1259  0.3358  0.6720
   98SAPS    HS 9763   6.911   5.894   6.432  0.0636  0.2290  0.7824
   98SAPS   O21 9764   6.741   5.916   6.548 -0.1316  0.1294  0.2728
   98SAPS   C21 9765   6.798   5.861   6.652  0.0752  0.2537  0.1514
   98SAPS   O22 9766   6.915   5.829   6.659  0.0025 -0.2550  0.1507
   98SAPS   C22 9767   6.692   5.861   6.760 -0.2616 -0.5375  0.7833
   98SAPS   H2R 9768   6.718   5.936   6.838 -0.9329  0.2650  0.2580
   98SAPS   H2S 9769   6.595   5.891   6.715 -0.4006 -0.2740  1.2584
   98SAPS    C3 9770   6.897   6.093   6.511 -0.1148  0.3500  0.8790
   98SAPS    HX 9771   6.812   6.150   6.553 -0.8669 -1.9808  2.7181
   98SAPS    HY 9772   6.933   6.152   6.423 -0.1661  1.4460  1.5757
   98SAPS   O31 9773   6.996   6.076   6.613  0.0537 -0.3965  0.0729
   98SAPS   C31 9774   7.123   6.076   6.584  0.4099  0.4615 -1.0102
   98SAPS   O32 9775   7.172   6.102   6.476  0.4378  0.6151  0.0556
   98SAPS   C32 9776   7.208   6.045   6.707 -0.0549 -0.0511 -0.1396
   98SAPS   H2X 9777   7.248   6.143   6.740 -3.4491  0.6975  2.3387
   98SAPS   H2Y 9778   7.284   5.971   6.677  0.0831  0.8677 -2.2187
   98SAPS   C23 9779   6.657   5.720   6.815  0.0406 -0.0939 -0.2346
   98SAPS   H3R 9780   6.743   5.691   6.880 -0.2040 -0.6630 -0.1648
   98SAPS   H3S 9781   6.638   5.644   6.737  1.1547 -1.4133  0.7286
   98SAPS   C24 9782   6.530   5.717   6.910  0.4528  0.4185  0.1354
   98SAPS   H4R 9783   6.435   5.725   6.853  1.4189 -0.2458 -1.6391
   98SAPS   H4S 9784   6.526   5.815   6.962  0.1253  0.0724  0.7735
   98SAPS   C25 9785   6.549   5.595   7.001  0.3709 -0.2705  0.5560
   98SAPS   H5R 9786   6.520   5.500   6.954 -0.0197  0.7078 -1.2784
   98SAPS   C26 9787   6.595   5.599   7.127 -0.0078  0.2022 -0.1628
   98SAPS   H6R 9788   6.581   5.502   7.178  2.8045 -0.9364 -1.3314
   98SAPS   C27 9789   6.629   5.729   7.203 -0.0934  0.4379  0.0083
   98SAPS   H7R 9790   6.547   5.757   7.273 -0.2921  2.2073 -0.8765
   98SAPS   H7S 9791   6.631   5.821   7.142 -3.1092 -0.3230 -1.4439
   98SAPS   C28 9792   6.758   5.703   7.275  0.1332  0.6089 -0.2991
   98SAPS   H8R 9793   6.838   5.682   7.202 -0.9502 -0.4247 -1.2401
   98SAPS   C29 9794   6.785   5.665   7.401 -0.1835 -0.3606  0.5020
   98SAPS   H9R 9795   6.887   5.649   7.437 -0.7483 -1.1386  1.8725
   98SAPS  C210 9796   6.680   5.643   7.515 -0.2161 -0.6406  0.3882
   98SAPS  H10R 9797   6.582   5.605   7.478  1.0053 -1.5625 -2.1628
   98SAPS  H10S 9798   6.667   5.741   7.565  1.2850 -0.8471  1.2409
   98SAPS  C211 9799   6.743   5.537   7.603  0.1906 -0.8078  0.6124
   98SAPS  H11R 9800   6.759   5.444   7.547 -2.0081 -0.4747 -0.6621
   98SAPS  C212 9801   6.770   5.548   7.734  0.4149 -0.5153  0.0214
   98SAPS  H12R 9802   6.818   5.461   7.781  0.5052 -1.1255 -1.1673
   98SAPS  C213 9803   6.739   5.665   7.817 -0.4150  0.0782  0.3476
   98SAPS  H13R 9804   6.665   5.634   7.894 -1.8752  1.6110 -0.3504
   98SAPS  H13S 9805   6.686   5.743   7.758  0.7279  0.1351 -0.6428
   98SAPS  C214 9806   6.859   5.732   7.870 -0.2464  0.1942 -0.1228
   98SAPS  H14R 9807   6.945   5.739   7.802 -0.7647  0.0319 -0.8124
   98SAPS  C215 9808   6.865   5.796   7.985  0.2813 -0.8017 -0.9702
   98SAPS  H15R 9809   6.952   5.859   8.011  0.4809 -0.6782 -1.8819
   98SAPS  C216 9810   6.752   5.809   8.087 -0.1297  0.0725  0.5962
   98SAPS  H16R 9811   6.654   5.822   8.037  1.2501  1.9832 -1.7854
   98SAPS  H16S 9812   6.774   5.898   8.150  1.4767 -0.9978  1.6184
   98SAPS  C217 9813   6.753   5.685   8.180 -0.2210 -0.4084  0.4155
   98SAPS  H17R 9814   6.860   5.664   8.202 -0.3352 -0.6505  0.7471
   98SAPS  H17S 9815   6.712   5.603   8.118  0.6960 -0.2155 -0.4697
   98SAPS  C218 9816   6.660   5.696   8.303 -0.2374  0.4882  0.2076
   98SAPS  H18R 9817   6.655   5.595   8.349 -3.3490 -0.0588 -1.0860
   98SAPS  H18S 9818   6.562   5.741   8.277  0.5498  1.4331 -1.2719
   98SAPS  C219 9819   6.726   5.796   8.403 -0.0908 -0.2819  0.1428
   98SAPS  H19R 9820   6.641   5.825   8.469  0.2011  0.0629  0.3681
   98SAPS  H19S 9821   6.765   5.885   8.349 -0.3174 -1.3192 -1.8142
   98SAPS  C220 9822   6.839   5.747   8.484 -0.9168  0.4280 -0.3201
   98SAPS  H20R 9823   6.841   5.636   8.499  0.1535  0.5524  0.6983
   98SAPS  H20S 9824   6.849   5.813   8.573  0.9103  0.2564 -0.3458
   98SAPS  H20T 9825   6.930   5.765   8.423 -1.6896  0.4648 -1.4694
   98SAPS   C33 9826   7.126   5.988   6.834  0.4126  1.0524 -0.0749
   98SAPS   H3X 9827   7.094   5.884   6.813  1.7652  0.8857 -1.4790
   98SAPS   H3Y 9828   7.045   6.062   6.852 -0.3757  0.2802 -0.3309
   98SAPS   C34 9829   7.216   6.000   6.954 -0.3503 -0.4988 -0.2851
   98SAPS   H4X 9830   7.241   6.107   6.974  0.7640 -0.9847  1.1016
   98SAPS   H4Y 9831   7.309   5.948   6.923 -1.2099 -0.0731 -4.0476
   98SAPS   C35 9832   7.143   5.959   7.082  0.0262  0.8217 -0.1682
   98SAPS   H5X 9833   7.099   5.860   7.057 -1.0440  1.1003  0.5453
   98SAPS   H5Y 9834   7.067   6.034   7.113 -0.8828 -0.6870  1.3879
   98SAPS   C36 9835   7.244   5.960   7.203 -0.0319  0.2577  0.3205
   98SAPS   H6X 9836   7.299   6.056   7.207  0.1074  0.2051 -0.1940
   98SAPS   H6Y 9837   7.315   5.877   7.183  1.9781  2.1951 -1.0109
   98SAPS   C37 9838   7.169   5.944   7.338 -0.8500  0.3370  0.1301
   98SAPS   H7X 9839   7.102   5.857   7.320  0.6924 -1.1682  1.3027
   98SAPS   H7Y 9840   7.100   6.029   7.353 -0.6735  0.4346  0.3850
   98SAPS   C38 9841   7.255   5.915   7.462  0.5927 -1.2403  0.2319
   98SAPS   H8X 9842   7.329   5.995   7.483  1.1906 -1.9298  0.8426
   98SAPS   H8Y 9843   7.300   5.815   7.439  2.0716 -0.6373  0.3982
   98SAPS   C39 9844   7.183   5.908   7.598 -0.0645 -0.1048  0.1735
   98SAPS   H9X 9845   7.125   5.814   7.609  1.0831 -0.7279  1.1845
   98SAPS   H9Y 9846   7.122   5.998   7.619 -0.6551 -0.1545 -1.2384
   98SAPS  C310 9847   7.285   5.907   7.711  0.9785 -0.9133  0.8495
   98SAPS  H10X 9848   7.339   6.004   7.699  0.1491 -0.3763  1.3120
   98SAPS  H10Y 9849   7.362   5.829   7.694  0.8553 -1.2063  1.5939
   98SAPS  C311 9850   7.231   5.883   7.857  0.3342 -0.4323 -0.1315
   98SAPS  H11X 9851   7.147   5.812   7.860 -0.7554  0.7098 -1.6510
   98SAPS  H11Y 9852   7.192   5.981   7.893  0.2946  0.4256 -2.3477
   98SAPS  C312 9853   7.353   5.841   7.940  0.7102 -0.3987  0.1659
   98SAPS  H12X 9854   7.428   5.922   7.953  0.0600  0.0083  1.5250
   98SAPS  H12Y 9855   7.409   5.762   7.886 -0.1612  0.3833 -1.9824
   98SAPS  C313 9856   7.314   5.789   8.072  0.0024 -0.1305 -0.8138
   98SAPS  H13X 9857   7.402   5.740   8.118 -0.6919 -2.7627 -2.0724
   98SAPS  H13Y 9858   7.232   5.715   8.060  0.7906 -1.0164 -0.8103
   98SAPS  C314 9859   7.253   5.893   8.172 -0.4132 -0.0188 -0.5581
   98SAPS  H14X 9860   7.155   5.918   8.127 -0.1998 -1.4424 -1.9182
   98SAPS  H14Y 9861   7.316   5.984   8.161  1.2579 -0.8851  1.1817
   98SAPS  C315 9862   7.250   5.847   8.322 -0.1872 -0.3477  0.1118
   98SAPS  H15X 9863   7.356   5.834   8.353  0.8028  0.4794 -2.6332
   98SAPS  H15Y 9864   7.206   5.745   8.320  1.3785 -1.0265 -0.5895
   98SAPS  C316 9865   7.173   5.954   8.404 -0.7366  0.8866 -0.0685
   98SAPS  H16X 9866   7.069   5.971   8.368 -0.9876 -2.5739 -1.3597
   98SAPS  H16Y 9867   7.225   6.051   8.390  0.1316  0.3765 -0.4521
   98SAPS  C317 9868   7.168   5.917   8.556 -0.7832  0.3613  0.1421
   98SAPS  H17X 9869   7.119   5.819   8.573  1.2233 -0.7139  0.0277
   98SAPS  H17Y 9870   7.106   5.999   8.598  0.9311  1.0891  1.3520
   98SAPS  C318 9871   7.298   5.939   8.633  0.3629  0.4628  0.2510
   98SAPS  H18X 9872   7.379   5.865   8.616 -0.7082 -0.4143 -1.3076
   98SAPS  H18Y 9873   7.274   5.935   8.741  1.2729  1.0043  0.4823
   98SAPS  H18Z 9874   7.339   6.040   8.613 -1.9594  1.5030  0.4104
   99SAPS     N 9875   0.658   3.173   6.198 -0.5842 -0.0561 -0.3854
   99SAPS   HN1 9876   0.755   3.178   6.237 -1.3876 -0.7394  1.8912
   99SAPS   HN2 9877   0.645   3.244   6.124 -1.6668 -1.0410 -1.1715
   99SAPS   HN3 9878   0.605   3.200   6.283  0.3114  1.8867 -0.3787
   99SAPS   C12 9879   0.659   3.030   6.156 -0.1479 -0.1016  0.3901
   99SAPS  H12A 9880   0.602   3.024   6.064 -1.1466 -0.4762  1.0282
   99SAPS   C13 9881   0.796   2.970   6.121  1.2671  0.6057 -1.2710
   99SAPS  O13A 9882   0.899   3.041   6.127 -0.4218  0.0919  0.3461
   99SAPS  O13B 9883   0.806   2.860   6.059 -0.6199 -0.0112  0.2503
   99SAPS   C11 9884   0.586   2.944   6.264  0.5786  0.1468 -0.2443
   99SAPS  H11A 9885   0.644   2.945   6.359  0.3097 -2.2293 -0.0015
   99SAPS  H11B 9886   0.571   2.841   6.225 -1.0707  0.5617 -0.7995
   99SAPS     P 9887   0.325   2.936   6.326  0.6120  0.2203  0.4154
   99SAPS   O13 9888   0.213   3.030   6.314 -0.0725 -0.0186  0.9836
   99SAPS   O14 9889   0.316   2.831   6.228 -0.6258 -0.3066 -0.3064
   99SAPS   O12 9890   0.455   3.004   6.281 -0.0372  0.1827  0.1866
   99SAPS   O11 9891   0.349   2.887   6.469 -0.1454 -0.4273 -0.0468
   99SAPS    C1 9892   0.396   2.977   6.572 -0.2778 -0.6054 -0.0501
   99SAPS    HA 9893   0.498   2.940   6.598  0.9944  1.5084 -1.6865
   99SAPS    HB 9894   0.415   3.081   6.540 -1.6312  0.0154  1.0774
   99SAPS    C2 9895   0.294   2.980   6.699  0.3413 -0.2428 -0.2868
   99SAPS    HS 9896   0.325   3.067   6.760 -0.2373  0.8207 -1.4553
   99SAPS   O21 9897   0.300   2.853   6.763 -0.2852  0.2743 -0.0431
   99SAPS   C21 9898   0.393   2.841   6.846 -0.4932  0.1471  0.0849
   99SAPS   O22 9899   0.479   2.926   6.872  0.0329  0.1449 -0.0441
   99SAPS   C22 9900   0.397   2.712   6.922  0.4604  0.5038 -0.1271
   99SAPS   H2R 9901   0.436   2.636   6.851  0.8824 -0.4584  1.1043
   99SAPS   H2S 9902   0.469   2.722   7.007  0.5098 -1.8883  0.1870
   99SAPS    C3 9903   0.157   3.019   6.645  0.0584  0.0100  0.5524
   99SAPS    HX 9904   0.123   2.950   6.565 -1.2373  0.3447  0.8014
   99SAPS    HY 9905   0.170   3.120   6.601  2.3485 -0.4221  0.0869
   99SAPS   O31 9906   0.050   3.014   6.743  0.2976  0.1049  0.7682
   99SAPS   C31 9907   0.053   3.110   6.842  0.4435 -0.7876 -0.3231
   99SAPS   O32 9908   0.135   3.201   6.851 -0.5057 -0.3810 -0.2504
   99SAPS   C32 9909  -0.070   3.093   6.941 -0.6915 -0.0730  0.1159
   99SAPS   H2X 9910  -0.083   2.983   6.949 -1.1070 -0.1025 -0.8241
   99SAPS   H2Y 9911  -0.158   3.142   6.894 -0.5998 -1.4075 -1.5105
   99SAPS   C23 9912   0.256   2.660   6.957 -0.5957  0.2416 -0.5221
   99SAPS   H3R 9913   0.275   2.562   7.005  2.1779  0.1005 -1.6974
   99SAPS   H3S 9914   0.205   2.629   6.864 -0.0126 -0.6127 -0.5739
   99SAPS   C24 9915   0.184   2.762   7.057 -0.6943 -0.1476 -0.1212
   99SAPS   H4R 9916   0.204   2.862   7.015 -0.3665 -0.3249 -0.3899
   99SAPS   H4S 9917   0.247   2.754   7.147  1.8438  1.2258 -1.6673
   99SAPS   C25 9918   0.038   2.722   7.061 -0.0526 -0.0035 -0.1360
   99SAPS   H5R 9919   0.002   2.681   6.965 -0.1624 -1.1703  0.3850
   99SAPS   C26 9920  -0.039   2.722   7.176 -0.4816 -0.2081  0.7250
   99SAPS   H6R 9921  -0.140   2.680   7.163  0.4446 -2.7466  1.1345
   99SAPS   C27 9922  -0.005   2.759   7.313 -0.7749 -0.3691  0.2931
   99SAPS   H7R 9923  -0.089   2.813   7.362  0.3888 -1.2545  3.5403
   99SAPS   H7S 9924   0.064   2.846   7.308 -4.0144  2.5277  1.7165
   99SAPS   C28 9925   0.047   2.650   7.399 -0.5645 -0.2639 -0.2903
   99SAPS   H8R 9926   0.093   2.567   7.343  0.6120  1.7073 -2.4290
   99SAPS   C29 9927   0.038   2.652   7.531  0.4149  0.4383 -0.3853
   99SAPS   H9R 9928   0.082   2.562   7.576  1.5114 -0.1665 -2.5483
   99SAPS  C210 9929  -0.007   2.766   7.616  0.8463 -0.8929 -0.6645
   99SAPS  H10R 9930  -0.039   2.731   7.716  3.2501 -0.0777  0.4622
   99SAPS  H10S 9931  -0.106   2.806   7.586  0.7729  1.1133  1.9751
   99SAPS  C211 9932   0.090   2.882   7.620 -0.0531  0.0330  0.4921
   99SAPS  H11R 9933   0.101   2.931   7.522  2.8942 -1.2461  0.0935
   99SAPS  C212 9934   0.150   2.945   7.725  0.3196  0.6095  0.3774
   99SAPS  H12R 9935   0.201   3.038   7.697  2.9351 -0.4063  1.4428
   99SAPS  C213 9936   0.141   2.902   7.870  0.1544 -0.3995  0.6020
   99SAPS  H13R 9937   0.221   2.960   7.921  0.3713 -0.4562  0.3326
   99SAPS  H13S 9938   0.178   2.797   7.865 -0.4282 -0.5677 -2.6934
   99SAPS  C214 9939   0.009   2.898   7.943  0.1732  0.1809  0.0335
   99SAPS  H14R 9940  -0.075   2.932   7.881  0.3934  1.4752  0.4077
   99SAPS  C215 9941  -0.002   2.837   8.066 -0.1651  0.2408  0.5372
   99SAPS  H15R 9942  -0.106   2.840   8.101 -0.9452  0.2286 -1.6696
   99SAPS  C216 9943   0.106   2.783   8.157  0.4456  0.1047  0.0478
   99SAPS  H16R 9944   0.089   2.814   8.263  0.3523 -0.7765  0.2957
   99SAPS  H16S 9945   0.209   2.807   8.121  0.1418  1.2605 -0.1110
   99SAPS  C217 9946   0.088   2.632   8.154 -0.2010  0.1289  0.0572
   99SAPS  H17R 9947   0.161   2.579   8.218 -0.0774 -2.5102 -2.1184
   99SAPS  H17S 9948   0.103   2.601   8.049  1.1776  2.0870 -0.3848
   99SAPS  C218 9949  -0.055   2.578   8.183  0.0598  0.9897  0.6083
   99SAPS  H18R 9950  -0.053   2.468   8.168 -2.0968  1.2046 -2.0321
   99SAPS  H18S 9951  -0.126   2.612   8.105  1.2521 -0.3575 -1.1446
   99SAPS  C219 9952  -0.118   2.594   8.326 -0.3099  0.0908  0.3699
   99SAPS  H19R 9953  -0.226   2.570   8.328  0.0880 -1.9197  0.9113
   99SAPS  H19S 9954  -0.111   2.696   8.370 -2.5880  0.9161 -1.0436
   99SAPS  C220 9955  -0.050   2.497   8.430 -0.3466  0.4754 -0.5829
   99SAPS  H20R 9956  -0.108   2.496   8.525 -1.0770  2.5963 -0.9628
   99SAPS  H20S 9957   0.053   2.538   8.440  0.2437 -1.1013  0.1725
   99SAPS  H20T 9958  -0.043   2.395   8.386 -2.5261  0.2069 -0.4210
   99SAPS   C33 9959  -0.036   3.156   7.070 -0.3505  0.3604  0.5132
   99SAPS   H3X 9960  -0.045   3.265   7.053 -1.0170  0.1394 -0.6642
   99SAPS   H3Y 9961   0.067   3.122   7.094  0.8087  2.2535 -1.4280
   99SAPS   C34 9962  -0.132   3.110   7.181  0.4313 -0.0058  0.1397
   99SAPS   H4X 9963  -0.125   3.001   7.198 -1.6026 -0.5737 -2.1560
   99SAPS   H4Y 9964  -0.236   3.124   7.146 -0.0644 -2.4469  0.4696
   99SAPS   C35 9965  -0.116   3.173   7.319 -0.2593 -0.0562 -0.1217
   99SAPS   H5X 9966  -0.135   3.282   7.315  0.1575  0.0608  0.8142
   99SAPS   H5Y 9967  -0.010   3.158   7.349 -0.4126 -2.5683 -0.5875
   99SAPS   C36 9968  -0.203   3.106   7.423  0.0122 -0.5183 -0.4247
   99SAPS   H6X 9969  -0.173   2.999   7.428 -0.8954 -0.7499  3.2475
   99SAPS   H6Y 9970  -0.310   3.106   7.393 -0.3486  0.0695  0.8057
   99SAPS   C37 9971  -0.181   3.179   7.551  0.1530  0.0958 -0.7453
   99SAPS   H7X 9972  -0.216   3.284   7.543  2.3693  0.7961 -1.7891
   99SAPS   H7Y 9973  -0.071   3.183   7.565 -0.0466  0.7014  0.8140
   99SAPS   C38 9974  -0.250   3.119   7.675  0.1314  0.4645  0.1843
   99SAPS   H8X 9975  -0.212   3.015   7.686 -0.6606 -0.0423 -1.4857
   99SAPS   H8Y 9976  -0.357   3.112   7.646 -0.0975 -0.4147  1.1855
   99SAPS   C39 9977  -0.241   3.207   7.795  0.6529  0.7504 -0.8206
   99SAPS   H9X 9978  -0.280   3.308   7.770  1.4240  1.0375 -0.8964
   99SAPS   H9Y 9979  -0.133   3.227   7.815  1.1243 -1.6439 -0.7317
   99SAPS  C310 9980  -0.314   3.144   7.922  0.6441  0.1075 -0.3082
   99SAPS  H10X 9981  -0.259   3.048   7.925  0.4887 -0.0092 -1.0201
   99SAPS  H10Y 9982  -0.420   3.122   7.894  0.0355  0.5115  1.5042
   99SAPS  C311 9983  -0.298   3.224   8.054  0.6270 -0.1359  0.4280
   99SAPS  H11X 9984  -0.193   3.243   8.084  0.9836 -2.3660  0.7989
   99SAPS  H11Y 9985  -0.352   3.166   8.131 -1.3411 -0.2552 -0.9696
   99SAPS  C312 9986  -0.371   3.360   8.051 -0.6058 -0.4013  0.3333
   99SAPS  H12X 9987  -0.481   3.345   8.047 -0.8954  0.9954  2.0222
   99SAPS  H12Y 9988  -0.332   3.404   7.957 -2.6073 -0.9159 -0.8046
   99SAPS  C313 9989  -0.366   3.442   8.179 -0.2956  0.1536 -0.4718
   99SAPS  H13X 9990  -0.388   3.550   8.163 -0.6066 -0.1984 -2.5888
   99SAPS  H13Y 9991  -0.267   3.421   8.226 -1.5240 -0.8189  1.8394
   99SAPS  C314 9992  -0.468   3.395   8.286  0.3345 -0.2847  0.7780
   99SAPS  H14X 9993  -0.437   3.298   8.329  4.5873  0.3710 -0.3703
   99SAPS  H14Y 9994  -0.564   3.388   8.230 -0.0440 -1.3132  1.5251
   99SAPS  C315 9995  -0.489   3.486   8.400 -0.0149 -0.5980 -0.3373
   99SAPS  H15X 9996  -0.503   3.591   8.367  0.2962 -0.9730 -1.7314
   99SAPS  H15Y 9997  -0.394   3.490   8.458 -0.3653  0.6459  0.1882
   99SAPS  C316 9998  -0.599   3.447   8.499 -0.1921  0.1348 -0.0022
   99SAPS  H16X 9999  -0.557   3.351   8.536  0.8917  0.8134  0.5554
   99SAPS  H16Y10000  -0.693   3.433   8.441 -0.3649 -1.7386  0.6567
   99SAPS  C31710001  -0.625   3.547   8.621  0.0774  0.1201  0.0040
   99SAPS  H17X10002  -0.733   3.551   8.643 -0.0006 -0.2440 -0.2898
   99SAPS  H17Y10003  -0.574   3.645   8.606 -0.1677  0.1132 -0.9610
   99SAPS  C31810004  -0.544   3.494   8.738 -0.5104  0.0683  0.1895
   99SAPS  H18X10005  -0.583   3.395   8.766 -0.0754  0.0162  0.6203
   99SAPS  H18Y10006  -0.553   3.557   8.829 -1.9833  1.2884 -0.7445
   99SAPS  H18Z10007  -0.438   3.464   8.724 -0.2654 -0.5348  2.9016
  100SAPS     N10008   1.670   5.033   6.178  0.1003 -0.3049  0.0503
  100SAPS   HN110009   1.765   5.048   6.141 -0.2658  0.6776 -0.5345
  100SAPS   HN210010   1.663   5.026   6.282 -1.0076  3.5630  0.4088
  100SAPS   HN310011   1.643   4.935   6.154 -1.7713 -0.6258  2.9186
  100SAPS   C1210012   1.574   5.137   6.140  0.3497 -0.6478 -0.0386
  100SAPS  H12A10013   1.606   5.230   6.187  0.2323 -0.7939  0.3340
  100SAPS   C1310014   1.576   5.144   5.983  0.7188 -0.2563 -0.7808
  100SAPS  O13A10015   1.639   5.061   5.915 -0.2008 -0.3919 -0.0864
  100SAPS  O13B10016   1.483   5.210   5.925 -0.2415 -0.0116 -0.2230
  100SAPS   C1110017   1.437   5.111   6.200  0.6023 -0.0259 -0.3373
  100SAPS  H11A10018   1.396   5.026   6.141 -0.0765  1.5188 -2.2145
  100SAPS  H11B10019   1.373   5.199   6.180 -1.1207 -0.7521  1.6787
  100SAPS     P10020   1.319   5.101   6.429  0.1131 -0.0333  0.4604
  100SAPS   O1310021   1.242   5.224   6.390  0.0794  0.3335 -0.0656
  100SAPS   O1410022   1.247   4.974   6.427  0.0841  0.0496  0.1239
  100SAPS   O1210023   1.445   5.088   6.340 -0.3007 -0.3122  0.3142
  100SAPS   O1110024   1.376   5.128   6.569  0.3344 -0.2945 -0.1857
  100SAPS    C110025   1.510   5.111   6.607  0.2105 -1.1548 -1.0320
  100SAPS    HA10026   1.574   5.166   6.535 -0.8884  0.1787 -1.0296
  100SAPS    HB10027   1.511   5.156   6.709 -0.3568 -1.1156 -1.0378
  100SAPS    C210028   1.562   4.968   6.629 -0.1481  0.7099  0.2662
  100SAPS    HS10029   1.567   4.917   6.530 -0.1210  2.6795 -0.7918
  100SAPS   O2110030   1.475   4.898   6.718  0.6739 -0.1602  0.4689
  100SAPS   C2110031   1.487   4.770   6.737  0.2956  0.4350  0.6507
  100SAPS   O2210032   1.563   4.690   6.686  0.8104  0.1058  0.1009
  100SAPS   C2210033   1.380   4.733   6.838 -0.3553  0.9198 -0.1891
  100SAPS   H2R10034   1.278   4.764   6.807 -1.2787  0.2798  2.0110
  100SAPS   H2S10035   1.370   4.622   6.842  0.0212  0.8562 -0.8870
  100SAPS    C310036   1.709   4.966   6.671 -0.2276 -0.4138 -0.9075
  100SAPS    HX10037   1.772   4.994   6.583  0.0367 -3.8448 -1.9948
  100SAPS    HY10038   1.750   4.862   6.672  0.7130 -0.0517 -0.0122
  100SAPS   O3110039   1.741   5.042   6.790  0.6398 -0.9360  0.6120
  100SAPS   C3110040   1.747   4.975   6.901 -0.8809  0.3053 -0.1581
  100SAPS   O3210041   1.737   4.852   6.911 -0.3407  0.0103 -0.2087
  100SAPS   C3210042   1.780   5.076   7.016  0.6881  0.1782 -0.0505
  100SAPS   H2X10043   1.782   5.182   6.982 -1.3561  1.0324  2.1709
  100SAPS   H2Y10044   1.878   5.045   7.060  0.1539  1.9129  2.5899
  100SAPS   C2310045   1.410   4.778   6.977  0.7714 -0.4413  0.5998
  100SAPS   H3R10046   1.431   4.887   6.982  5.1401 -0.9462 -1.7064
  100SAPS   H3S10047   1.498   4.742   7.035  0.6487 -0.6148  0.6794
  100SAPS   C2410048   1.284   4.746   7.064 -0.7448  0.0643  0.3067
  100SAPS   H4R10049   1.195   4.766   7.002 -0.5809 -0.5846 -0.1411
  100SAPS   H4S10050   1.279   4.817   7.150 -1.7164 -0.5426  0.7659
  100SAPS   C2510051   1.271   4.597   7.093 -0.6103  0.7596 -0.2698
  100SAPS   H5R10052   1.255   4.540   7.000  1.1682  1.0300 -0.7851
  100SAPS   C2610053   1.284   4.533   7.212 -0.0346 -0.2005 -0.4468
  100SAPS   H6R10054   1.272   4.424   7.218  0.0673 -0.1777  0.2150
  100SAPS   C2710055   1.317   4.587   7.344  0.7119 -0.8465  0.0517
  100SAPS   H7R10056   1.317   4.698   7.349 -1.3155 -0.8716  1.9297
  100SAPS   H7S10057   1.421   4.560   7.373  0.4715  0.1916  2.0558
  100SAPS   C2810058   1.221   4.537   7.453 -0.2076 -0.2712  0.5215
  100SAPS   H8R10059   1.123   4.587   7.454  0.8775  1.9815  0.8881
  100SAPS   C2910060   1.253   4.438   7.542  0.2556 -0.2419 -0.2182
  100SAPS   H9R10061   1.181   4.399   7.616  1.5041  0.1476  1.2450
  100SAPS  C21010062   1.379   4.351   7.553 -0.3161  0.2193  0.4186
  100SAPS  H10R10063   1.448   4.393   7.629  1.6107  0.5859 -1.4316
  100SAPS  H10S10064   1.440   4.363   7.461  1.4974 -0.9472  1.4043
  100SAPS  C21110065   1.357   4.202   7.564  0.1277  0.3387 -0.5105
  100SAPS  H11R10066   1.369   4.143   7.472  1.4467 -2.2956  1.2394
  100SAPS  C21210067   1.347   4.138   7.686  1.0730 -0.1767  1.2474
  100SAPS  H12R10068   1.341   4.029   7.679 -2.5923 -0.0035 -0.0290
  100SAPS  C21310069   1.329   4.209   7.818 -0.1503  0.0698 -0.2063
  100SAPS  H13R10070   1.328   4.320   7.821 -1.0200  0.0860  3.5261
  100SAPS  H13S10071   1.408   4.177   7.889  1.0203  1.9945 -0.5820
  100SAPS  C21410072   1.188   4.184   7.866  0.4695  0.3190  0.2710
  100SAPS  H14R10073   1.115   4.207   7.787  2.4478 -0.2005 -1.8182
  100SAPS  C21510074   1.149   4.170   7.992 -0.4571 -0.0516 -0.2093
  100SAPS  H15R10075   1.047   4.145   8.026  0.0103 -1.2886  0.3430
  100SAPS  C21610076   1.232   4.167   8.116 -0.0762 -0.8723 -0.2551
  100SAPS  H16R10077   1.229   4.271   8.154 -0.9514 -0.2951 -1.7850
  100SAPS  H16S10078   1.336   4.133   8.098  0.5626  1.4074 -1.1443
  100SAPS  C21710079   1.171   4.077   8.222  0.3387 -0.9107 -0.3532
  100SAPS  H17R10080   1.158   3.978   8.174  0.1336 -0.2280 -1.7388
  100SAPS  H17S10081   1.074   4.126   8.245  1.4117  1.6701 -0.9332
  100SAPS  C21810082   1.249   4.052   8.342 -0.1828 -0.1186 -0.0872
  100SAPS  H18R10083   1.271   4.148   8.393  0.4743 -0.6511  0.6618
  100SAPS  H18S10084   1.347   4.011   8.308 -1.2929 -2.9800 -0.1457
  100SAPS  C21910085   1.172   3.945   8.430 -0.4825  1.0371 -0.3615
  100SAPS  H19R10086   1.158   3.853   8.370 -0.1319  0.6090  0.2055
  100SAPS  H19S10087   1.075   3.990   8.460 -1.2930 -1.7802  1.5232
  100SAPS  C22010088   1.235   3.914   8.564  0.2855  0.5098  0.5655
  100SAPS  H20R10089   1.188   3.839   8.631 -1.0114 -1.0899 -1.9601
  100SAPS  H20S10090   1.255   4.001   8.630 -0.6573  0.0020  1.5453
  100SAPS  H20T10091   1.331   3.862   8.544 -1.2614 -2.0825 -0.5788
  100SAPS   C3310092   1.675   5.060   7.125 -0.3046  0.1073  0.1078
  100SAPS   H3X10093   1.572   5.044   7.085 -0.3116 -0.8400  0.4805
  100SAPS   H3Y10094   1.675   5.154   7.183 -1.3907  1.7400 -2.3526
  100SAPS   C3410095   1.700   4.949   7.234 -0.4569 -0.2013  0.0183
  100SAPS   H4X10096   1.798   4.955   7.287 -0.3411  3.3932 -0.3665
  100SAPS   H4Y10097   1.703   4.848   7.186 -0.3869 -0.0352 -0.3253
  100SAPS   C3510098   1.592   4.946   7.340 -0.5218 -0.0070  0.2731
  100SAPS   H5X10099   1.493   4.946   7.289  0.4410 -0.6271 -1.6976
  100SAPS   H5Y10100   1.599   5.038   7.402 -1.5124 -0.7754  1.5677
  100SAPS   C3610101   1.607   4.817   7.422 -0.2620 -0.0111  0.7846
  100SAPS   H6X10102   1.707   4.813   7.469  0.6866  2.8524 -0.7644
  100SAPS   H6Y10103   1.581   4.730   7.358 -2.1582  0.2128  1.1722
  100SAPS   C3710104   1.509   4.826   7.542 -0.1898  0.4953 -0.6672
  100SAPS   H7X10105   1.405   4.835   7.504  0.1052  1.1948 -1.3413
  100SAPS   H7Y10106   1.550   4.911   7.601  3.6285 -0.2819 -1.9097
  100SAPS   C3810107   1.521   4.698   7.627  0.3894 -0.1388  1.4078
  100SAPS   H8X10108   1.627   4.689   7.658  1.6686  0.6896 -2.1500
  100SAPS   H8Y10109   1.486   4.608   7.571  1.9309 -0.7548  1.3973
  100SAPS   C3910110   1.428   4.699   7.751 -0.1540 -1.0412 -0.6916
  100SAPS   H9X10111   1.325   4.675   7.717 -0.5696 -0.8172  0.3615
  100SAPS   H9Y10112   1.413   4.803   7.785 -0.6413  0.0225 -3.9018
  100SAPS  C31010113   1.477   4.609   7.871 -0.4093  0.3076 -0.1578
  100SAPS  H10X10114   1.588   4.607   7.874 -0.3004  2.3865 -1.2133
  100SAPS  H10Y10115   1.432   4.508   7.864 -3.1783  1.5085 -0.9180
  100SAPS  C31110116   1.434   4.667   8.012 -0.0731 -0.4730  0.0173
  100SAPS  H11X10117   1.324   4.656   8.002  0.1526 -0.8263 -2.8203
  100SAPS  H11Y10118   1.457   4.775   8.024 -0.0954 -0.5978  1.3570
  100SAPS  C31210119   1.498   4.576   8.120 -0.1066  0.3825 -0.0169
  100SAPS  H12X10120   1.604   4.594   8.145  0.3905 -1.9718 -0.2095
  100SAPS  H12Y10121   1.497   4.473   8.079 -0.2755  0.4051 -0.0712
  100SAPS  C31310122   1.428   4.568   8.261  0.0584  0.4782 -0.4724
  100SAPS  H13X10123   1.331   4.516   8.246  0.8955 -0.8295 -1.6233
  100SAPS  H13Y10124   1.405   4.672   8.293  2.3479  0.9518 -0.1682
  100SAPS  C31410125   1.510   4.498   8.374  0.4698 -0.4839  0.3990
  100SAPS  H14X10126   1.459   4.512   8.471 -0.0072  1.2441 -0.0773
  100SAPS  H14Y10127   1.606   4.552   8.379  0.3718 -0.1029 -1.2964
  100SAPS  C31510128   1.538   4.354   8.345  0.0455  0.1018 -0.1176
  100SAPS  H15X10129   1.595   4.340   8.250  1.2535  0.8144  0.4757
  100SAPS  H15Y10130   1.446   4.293   8.349  1.9954 -2.9989  0.9288
  100SAPS  C31610131   1.638   4.309   8.444 -0.1377  0.0251 -0.1079
  100SAPS  H16X10132   1.719   4.383   8.463  0.4098 -1.0792  2.3286
  100SAPS  H16Y10133   1.682   4.219   8.396 -0.6242 -0.5673  0.5310
  100SAPS  C31710134   1.587   4.277   8.580  0.1726  0.6163 -0.8224
  100SAPS  H17X10135   1.478   4.255   8.577  0.2763 -0.1383  0.3046
  100SAPS  H17Y10136   1.597   4.366   8.646  0.4864 -0.4088  0.5539
  100SAPS  C31810137   1.657   4.174   8.668 -1.1874  0.4843  0.0330
  100SAPS  H18X10138   1.679   4.086   8.603  2.5083  2.3234 -1.5405
  100SAPS  H18Y10139   1.594   4.138   8.752  0.6410  0.0530  1.2851
  100SAPS  H18Z10140   1.753   4.211   8.709 -0.9253  1.2884 -1.2353
  101OSM      N10141   5.520   2.864  11.009 -0.4531  0.1297  0.3116
  101OSM    C1510142   5.598   2.836  10.886  0.4819 -0.5038 -0.0649
  101OSM   H15A10143   5.553   2.758  10.826  1.5696  0.1049 -1.7532
  101OSM   H15B10144   5.700   2.808  10.910  0.5284 -0.2846 -0.0029
  101OSM   H15C10145   5.596   2.925  10.824 -0.4410  0.0072  0.6728
  101OSM    C1410146   5.537   2.759  11.117  0.0860 -0.3221  0.6924
  101OSM   H14A10147   5.642   2.747  11.137 -0.3943  0.0692  4.0128
  101OSM   H14B10148   5.485   2.670  11.087  0.7285 -0.8661  1.1786
  101OSM   H14C10149   5.501   2.796  11.212 -2.4613  0.9713 -0.6660
  101OSM    C1310150   5.573   2.995  11.061 -0.5302 -0.4056 -0.5489
  101OSM   H13A10151   5.670   2.986  11.108 -0.0304 -0.1293 -1.4993
  101OSM   H13B10152   5.504   3.026  11.138  1.5773 -0.3805  1.4061
  101OSM   H13C10153   5.584   3.070  10.984  1.2453  0.4621  0.4935
  101OSM    C1210154   5.377   2.863  10.963 -0.3484 -0.8497  0.5994
  101OSM   H12A10155   5.357   2.773  10.908 -0.0628 -0.1484 -0.6883
  101OSM   H12B10156   5.365   2.948  10.897  2.7242  0.0971  1.1027
  101OSM    C1110157   5.266   2.878  11.068  0.5204 -0.2424 -0.2020
  101OSM   H11A10158   5.288   2.804  11.148  1.8269  1.3494  0.9824
  101OSM   H11B10159   5.170   2.853  11.019 -0.6207 -1.0851  2.2796
  101OSM      P10160   5.162   3.114  11.057 -0.1864 -0.6312  0.4120
  101OSM    O1310161   5.024   3.089  11.107  0.5280  0.2374 -0.2387
  101OSM    O1410162   5.220   3.251  11.076  0.0268  0.3337  0.4541
  101OSM    O1110163   5.174   3.076  10.900  0.1200  0.3688  0.2721
  101OSM    O1210164   5.259   3.010  11.120  0.3035 -0.4129 -0.0881
  101OSM    C1S10165   5.211   3.183  10.813 -0.3240 -0.3348  1.0592
  101OSM    H1S10166   5.308   3.229  10.842  0.0322  0.9863 -1.9137
  101OSM    H1T10167   5.138   3.267  10.815  0.7507  0.6427  0.3299
  101OSM     NF10168   5.306   3.239  10.589 -0.2824  0.1539 -0.4131
  101OSM    HNF10169   5.257   3.299  10.526  2.0407  1.5628 -0.9796
  101OSM    C2S10170   5.229   3.134  10.669  0.1804  0.1436 -0.1053
  101OSM    H2S10171   5.293   3.043  10.674  0.5564  0.3280 -1.2873
  101OSM    C3S10172   5.086   3.086  10.611 -0.2586  0.1549  0.1869
  101OSM    H3S10173   5.016   3.173  10.610 -0.3596  0.0850  0.7235
  101OSM     O310174   5.019   2.988  10.697 -0.0394 -0.6705 -0.1260
  101OSM    HO310175   5.074   2.988  10.775  0.6105  0.1857 -0.5654
  101OSM    C4S10176   5.098   3.030  10.475 -0.5139 -0.0697 -0.2393
  101OSM    H4S10177   5.184   2.961  10.469 -0.1085  0.3770  0.3096
  101OSM    C5S10178   5.024   3.054  10.363 -0.3809 -0.4603 -0.4844
  101OSM    H5S10179   4.947   3.132  10.359  0.1157  0.2296  2.0306
  101OSM    C6S10180   5.051   2.994  10.227  0.3227 -0.2320  0.4009
  101OSM    H6S10181   4.966   2.929  10.196  0.0233  0.1644  0.3941
  101OSM    H6T10182   5.133   2.919  10.226 -0.2027 -0.8247  0.9419
  101OSM    C7S10183   5.079   3.091  10.115  0.5810 -0.2854  0.2263
  101OSM    H7S10184   5.185   3.116  10.137  0.5665 -0.9423  1.1168
  101OSM    H7T10185   5.009   3.177  10.117 -1.6306 -1.9773  2.2618
  101OSM    C8S10186   5.075   3.032   9.973  0.2400  0.5597  0.0813
  101OSM    H8S10187   4.974   2.987   9.961 -0.3790  1.3027  2.1033
  101OSM    H8T10188   5.142   2.944   9.975  0.0027  0.3742 -0.0201
  101OSM    C9S10189   5.113   3.133   9.865 -0.6385 -0.0703  0.0220
  101OSM    H9S10190   5.221   3.150   9.881 -0.2098 -1.5170 -1.1254
  101OSM    H9T10191   5.054   3.226   9.882 -2.5089 -1.3641  0.9719
  101OSM   C10S10192   5.091   3.098   9.713  0.9081  0.7462  0.3705
  101OSM   H10S10193   4.992   3.050   9.701 -0.1623  2.0575  3.1298
  101OSM   H10T10194   5.168   3.028   9.674 -1.0659 -3.0483  2.6090
  101OSM   C11S10195   5.085   3.223   9.626 -0.4213 -0.6260  0.4035
  101OSM   H11S10196   5.184   3.269   9.650 -0.3550 -1.3544  1.6475
  101OSM   H11T10197   4.993   3.275   9.659  0.0543 -1.0592  2.6196
  101OSM   C12S10198   5.086   3.203   9.480  0.2215 -0.5120  0.9208
  101OSM   H12S10199   4.983   3.191   9.440 -0.2939  2.9332  0.8920
  101OSM   H12T10200   5.135   3.106   9.457  1.4835  0.7449 -2.2671
  101OSM   C13S10201   5.148   3.315   9.392 -0.1419  0.4842 -0.6048
  101OSM   H13S10202   5.258   3.308   9.406  0.6243  4.3461 -3.0935
  101OSM   H13T10203   5.115   3.413   9.432  1.9724  1.1934 -0.5007
  101OSM   C14S10204   5.119   3.312   9.243  0.3229 -0.0058 -0.7053
  101OSM   H14S10205   5.040   3.383   9.211 -0.1102  0.0028  0.3687
  101OSM   H14T10206   5.097   3.214   9.196  0.1655  0.0812 -0.8122
  101OSM   C15S10207   5.253   3.356   9.177 -0.9159  0.2168 -0.2127
  101OSM   H15S10208   5.340   3.291   9.199  0.7389  1.0273 -3.6665
  101OSM   H15T10209   5.281   3.458   9.213 -0.5865  0.0621 -0.0252
  101OSM   C16S10210   5.250   3.369   9.025  0.2248 -0.8065 -0.0755
  101OSM   H16S10211   5.224   3.272   8.978  1.3648 -1.2878  0.2264
  101OSM   H16T10212   5.353   3.400   8.995 -0.5958  2.6936  0.3583
  101OSM   C17S10213   5.162   3.477   8.976  0.5103  0.3050 -0.1675
  101OSM   H17S10214   5.191   3.572   9.027  2.0939 -1.1084  1.7675
  101OSM   H17T10215   5.056   3.463   9.005  0.6222 -0.2408 -0.0176
  101OSM   C18S10216   5.170   3.487   8.818  0.3597  0.5276 -0.4157
  101OSM   H18S10217   5.088   3.556   8.789  0.4288  1.3394  1.2050
  101OSM   H18T10218   5.148   3.390   8.767 -1.1562 -0.6094  2.2005
  101OSM   H18U10219   5.267   3.533   8.792  1.4698 -0.2304  2.0861
  101OSM    C1F10220   5.442   3.255  10.597 -0.0161 -0.0269 -0.4574
  101OSM     OF10221   5.510   3.167  10.651  0.1752  0.2352 -0.0861
  101OSM    C2F10222   5.499   3.389  10.552  0.3119 -0.8791  0.0074
  101OSM    H2F10223   5.605   3.396  10.585  0.6441 -0.2676 -1.1400
  101OSM    H2G10224   5.440   3.470  10.600  2.4572 -0.4635  2.1260
  101OSM    C3F10225   5.503   3.403  10.399 -0.1197  0.2063 -0.6523
  101OSM    H3F10226   5.417   3.349  10.353  0.8833 -1.2556 -0.8534
  101OSM    H3G10227   5.586   3.353  10.346 -0.7894 -0.8545 -0.7325
  101OSM    C4F10228   5.513   3.551  10.360 -0.5692 -0.0730  0.4124
  101OSM    H4F10229   5.603   3.597  10.406  0.6539 -0.6376 -1.3232
  101OSM    H4G10230   5.420   3.605  10.388  0.8551  1.6761  2.0382
  101OSM    C5F10231   5.534   3.561  10.208 -0.0939  0.4075  0.6309
  101OSM    H5F10232   5.456   3.501  10.155  0.2883  1.2549 -0.9504
  101OSM    H5G10233   5.629   3.525  10.163 -0.6240  0.0126 -0.2223
  101OSM    C6F10234   5.525   3.704  10.156 -0.1009  1.0190 -0.8275
  101OSM    H6F10235   5.607   3.762  10.205  0.1292  0.4552 -0.5382
  101OSM    H6G10236   5.424   3.745  10.179 -0.3680  0.0772 -0.2600
  101OSM    C7F10237   5.549   3.712  10.006  0.4734 -0.5875 -0.2010
  101OSM    H7F10238   5.487   3.639   9.949  2.0533 -1.2768 -1.1131
  101OSM    H7G10239   5.656   3.691   9.984  0.6241  0.4679 -0.5575
  101OSM    C8F10240   5.509   3.853   9.949  0.0916 -0.1632 -0.0065
  101OSM    H8F10241   5.554   3.935  10.009 -0.9468  0.9433 -0.6949
  101OSM    H8G10242   5.398   3.853   9.954  0.0305  0.4255 -0.9734
  101OSM    C9F10243   5.551   3.861   9.807  0.3156  0.2046  0.4087
  101OSM    H9F10244   5.641   3.799   9.792  0.2184  0.1973 -0.1494
  101OSM   C10F10245   5.503   3.922   9.703 -0.3270 -0.5338 -0.4119
  101OSM   H10F10246   5.560   3.912   9.609  1.0939  2.9291 -0.0587
  101OSM   C11F10247   5.380   4.014   9.701  0.0329 -0.2289 -0.6345
  101OSM   H11F10248   5.403   4.094   9.776 -1.7172  0.3284 -0.6566
  101OSM   H11G10249   5.291   3.967   9.747  0.3412 -0.2496 -0.0452
  101OSM   C12F10250   5.362   4.076   9.563 -0.3386  0.2682 -0.0087
  101OSM   H12F10251   5.452   4.106   9.505  0.1669 -1.3694 -0.1065
  101OSM   H12G10252   5.304   4.170   9.576 -1.5902 -0.6667  1.4772
  101OSM   C13F10253   5.286   3.992   9.469 -0.0809  0.3134  0.1830
  101OSM   H13F10254   5.192   3.962   9.518  1.4957 -0.9460  2.6557
  101OSM   H13G10255   5.332   3.894   9.445  0.1202  0.1517  1.2127
  101OSM   C14F10256   5.258   4.074   9.338 -0.2894  0.7570 -0.2785
  101OSM   H14F10257   5.357   4.078   9.289 -0.1647 -0.2626 -0.1232
  101OSM   H14G10258   5.218   4.176   9.358 -0.5948  0.8562 -1.3615
  101OSM   C15F10259   5.157   4.001   9.249  0.5898  0.4411  0.8780
  101OSM   H15F10260   5.066   3.984   9.310  0.8987  1.2145  1.5635
  101OSM   H15G10261   5.183   3.901   9.208 -2.2355  0.5132 -1.3355
  101OSM   C16F10262   5.116   4.088   9.120 -0.2315  0.2445  0.0731
  101OSM   H16F10263   5.059   4.016   9.058 -0.7251 -0.5234  1.3935
  101OSM   H16G10264   5.214   4.115   9.074 -0.5556 -1.7031 -1.9167
  101OSM   C17F10265   5.034   4.214   9.152  0.5939  0.2831 -0.3712
  101OSM   H17F10266   4.998   4.262   9.058 -0.2425 -2.8847 -1.7933
  101OSM   H17G10267   5.093   4.286   9.212 -0.6028  1.1108 -0.1430
  101OSM   C18F10268   4.897   4.186   9.223  0.2803  0.5172  0.0651
  101OSM   H18F10269   4.833   4.129   9.153 -2.0367  0.1548  2.3249
  101OSM   H18G10270   4.837   4.271   9.261 -2.6646 -1.4078 -0.0165
  101OSM   H18H10271   4.915   4.114   9.307  2.4110 -0.1590 -0.8998
  102OSM      N10272   3.553   3.187  11.033  0.1759 -0.3295  0.2596
  102OSM    C1510273   3.447   3.289  11.028  0.6609 -0.0294 -0.0727
  102OSM   H15A10274   3.479   3.373  10.968  1.1232 -0.7543 -0.8666
  102OSM   H15B10275   3.421   3.320  11.128 -2.8600  0.0228 -0.8486
  102OSM   H15C10276   3.352   3.245  11.001  0.4235  0.2321  0.3393
  102OSM    C1410277   3.677   3.266  11.066 -0.2625  0.0531 -0.0854
  102OSM   H14A10278   3.675   3.354  11.004 -1.6551  0.5149  0.5646
  102OSM   H14B10279   3.765   3.205  11.058  2.0486  3.3143 -2.1218
  102OSM   H14C10280   3.672   3.297  11.170 -0.9271  2.4396 -0.7647
  102OSM    C1310281   3.509   3.073  11.126 -0.4744  0.1019  0.0769
  102OSM   H13A10282   3.564   2.982  11.110  0.8007  1.1466 -1.9135
  102OSM   H13B10283   3.406   3.049  11.106 -0.6023  1.7675 -1.5412
  102OSM   H13C10284   3.523   3.101  11.230 -1.7899 -0.8893  0.5550
  102OSM    C1210285   3.565   3.127  10.896 -0.2563  0.5009  0.0602
  102OSM   H12A10286   3.625   3.038  10.910  0.3223  0.6639 -1.2486
  102OSM   H12B10287   3.627   3.187  10.832 -1.8769  1.1318 -0.9576
  102OSM    C1110288   3.440   3.089  10.814  0.5305 -0.1893 -0.6309
  102OSM   H11A10289   3.467   3.065  10.709 -2.8411 -1.1845 -1.3978
  102OSM   H11B10290   3.370   3.172  10.792 -0.9121 -1.2687 -0.2271
  102OSM      P10291   3.422   2.837  10.878 -0.0155  0.3807  0.4276
  102OSM    O1310292   3.570   2.824  10.892 -0.5286 -0.0055 -0.1379
  102OSM    O1410293   3.346   2.768  10.984  0.4728  0.4842 -0.1483
  102OSM    O1110294   3.379   2.777  10.737 -0.1102 -0.1399 -0.4146
  102OSM    O1210295   3.367   2.984  10.879 -0.2393  0.1015 -0.2008
  102OSM    C1S10296   3.466   2.786  10.621  0.2890 -0.1347 -0.3705
  102OSM    H1S10297   3.535   2.700  10.614 -0.6053 -1.1141  1.9501
  102OSM    H1T10298   3.533   2.875  10.619  0.4763 -0.2626  0.1866
  102OSM     NF10299   3.463   2.790  10.366 -0.7395  0.1683 -0.3628
  102OSM    HNF10300   3.479   2.884  10.338  1.7312  0.6167  2.1204
  102OSM    C2S10301   3.381   2.785  10.487 -0.6061  0.0434  0.3584
  102OSM    H2S10302   3.313   2.697  10.482 -0.2927 -0.2635  1.3307
  102OSM    C3S10303   3.277   2.901  10.496 -0.4980 -0.0248  0.1914
  102OSM    H3S10304   3.323   2.999  10.520  1.4196 -1.2076  1.6568
  102OSM     O310305   3.178   2.874  10.597  0.2967  0.4241  0.2918
  102OSM    HO310306   3.222   2.808  10.651 -1.6121 -1.3062 -0.1330
  102OSM    C4S10307   3.203   2.920  10.364  0.0187 -0.0637  0.6984
  102OSM    H4S10308   3.243   3.002  10.302 -2.5829 -0.8034 -2.2460
  102OSM    C5S10309   3.114   2.837  10.303  0.2943 -1.0094 -0.4611
  102OSM    H5S10310   3.088   2.747  10.360  3.2860 -1.4019  0.4666
  102OSM    C6S10311   3.054   2.864  10.170  0.3108 -0.2134 -0.0937
  102OSM    H6S10312   2.958   2.918  10.184 -1.0911 -2.6994  0.4432
  102OSM    H6T10313   3.020   2.769  10.124 -1.3019  0.5775 -0.6183
  102OSM    C7S10314   3.136   2.921  10.050  0.3002  0.0881 -0.3999
  102OSM    H7S10315   3.206   2.838  10.026 -2.3558 -1.9316 -1.7759
  102OSM    H7T10316   3.187   3.014  10.083  1.1304 -1.3399  2.6944
  102OSM    C8S10317   3.058   2.962   9.933 -0.5474  0.0791  0.4490
  102OSM    H8S10318   2.982   3.040   9.954 -0.2363  1.1618 -2.1034
  102OSM    H8T10319   3.005   2.873   9.894 -1.0085  0.2846  0.6055
  102OSM    C9S10320   3.153   3.021   9.825  0.2781 -0.5069  0.3584
  102OSM    H9S10321   3.237   2.949   9.814  0.9797  0.1920  0.9851
  102OSM    H9T10322   3.194   3.120   9.854  0.4055 -0.4360 -0.0470
  102OSM   C10S10323   3.079   3.030   9.683 -0.3413 -0.3842 -0.6865
  102OSM   H10S10324   2.990   3.091   9.712 -0.4795  0.0649 -1.9764
  102OSM   H10T10325   3.046   2.926   9.666 -0.2449 -0.4470 -0.4896
  102OSM   C11S10326   3.161   3.094   9.574 -0.2229 -0.6668 -0.6421
  102OSM   H11S10327   3.258   3.039   9.569 -0.8835 -1.9923  0.4327
  102OSM   H11T10328   3.181   3.198   9.609 -1.2205 -1.0192  1.0524
  102OSM   C12S10329   3.094   3.086   9.430 -0.9773  0.0626  1.0432
  102OSM   H12S10330   2.986   3.111   9.441 -0.4081  3.1941  0.4199
  102OSM   H12T10331   3.108   2.984   9.389  1.6291  0.3261  1.0973
  102OSM   C13S10332   3.156   3.194   9.334  0.0511 -0.2734  0.2797
  102OSM   H13S10333   3.264   3.170   9.324 -0.3184 -1.0908 -2.7427
  102OSM   H13T10334   3.127   3.295   9.369  0.2842 -0.4069  0.8837
  102OSM   C14S10335   3.107   3.179   9.192  0.0300  0.6274 -0.2633
  102OSM   H14S10336   2.998   3.199   9.193 -0.1498 -0.2829 -0.6313
  102OSM   H14T10337   3.117   3.072   9.165  0.6528 -0.0837  2.5477
  102OSM   C15S10338   3.181   3.264   9.092 -0.6157 -0.7692  0.5467
  102OSM   H15S10339   3.291   3.250   9.099  0.0569  3.4488  1.0563
  102OSM   H15T10340   3.152   3.369   9.116 -1.4134 -0.3887 -1.7933
  102OSM   C16S10341   3.124   3.242   8.952  0.2313  0.4667  0.1057
  102OSM   H16S10342   3.018   3.276   8.943 -0.4095 -1.2486  0.7294
  102OSM   H16T10343   3.129   3.132   8.934 -1.6656  0.3628 -0.0437
  102OSM   C17S10344   3.201   3.324   8.853 -0.4612  0.7989  0.3531
  102OSM   H17S10345   3.306   3.307   8.884 -0.0674 -1.8274 -2.0355
  102OSM   H17T10346   3.170   3.431   8.849  0.1626  0.9406 -2.4862
  102OSM   C18S10347   3.185   3.266   8.715 -0.0744  0.4200 -0.1471
  102OSM   H18S10348   3.081   3.271   8.676 -1.1440  0.4869  2.5103
  102OSM   H18T10349   3.211   3.159   8.726 -0.9954  0.2282  0.2213
  102OSM   H18U10350   3.265   3.301   8.645 -1.8637  0.5011 -2.2844
  102OSM    C1F10351   3.544   2.698  10.324 -1.1441 -0.3714  0.0324
  102OSM     OF10352   3.582   2.597  10.392  0.0015  0.1109  0.6076
  102OSM    C2F10353   3.589   2.711  10.178  0.5144  0.6751 -0.5091
  102OSM    H2F10354   3.603   2.606  10.144 -0.0452  0.9422 -1.6245
  102OSM    H2G10355   3.687   2.762  10.166  0.8946  0.4369  1.3885
  102OSM    C3F10356   3.473   2.758  10.091 -0.5884 -0.0183  0.2860
  102OSM    H3F10357   3.453   2.867  10.102  0.5891  0.0020  3.0611
  102OSM    H3G10358   3.381   2.703  10.121 -0.6638  0.6926  1.4254
  102OSM    C4F10359   3.491   2.727   9.938 -0.6541  0.4966 -0.3186
  102OSM    H4F10360   3.391   2.717   9.892 -0.9426 -0.8327  0.5266
  102OSM    H4G10361   3.545   2.631   9.921 -0.8283  0.6301 -1.7246
  102OSM    C5F10362   3.563   2.838   9.862 -0.4823  0.5417 -0.3196
  102OSM    H5F10363   3.670   2.846   9.889 -0.1862 -0.5910 -1.0695
  102OSM    H5G10364   3.518   2.938   9.880 -1.3278  0.0635  0.2593
  102OSM    C6F10365   3.560   2.818   9.709 -0.0854 -0.3582 -0.2074
  102OSM    H6F10366   3.593   2.906   9.650 -1.0973  0.8514  0.9752
  102OSM    H6G10367   3.456   2.801   9.674  0.1296 -1.6411 -0.2984
  102OSM    C7F10368   3.651   2.698   9.671  0.0544  0.6786  0.1928
  102OSM    H7F10369   3.624   2.612   9.737 -0.7350 -0.3694 -1.4117
  102OSM    H7G10370   3.755   2.725   9.696  1.3183 -1.3820 -2.3324
  102OSM    C8F10371   3.628   2.659   9.523 -0.2467 -0.6737 -0.4882
  102OSM    H8F10372   3.637   2.755   9.468  2.5357 -0.6820 -0.1772
  102OSM    H8G10373   3.528   2.616   9.502 -0.7568  0.1248  0.2042
  102OSM    C9F10374   3.727   2.557   9.470 -0.0774 -0.0444  0.0493
  102OSM    H9F10375   3.710   2.457   9.512 -0.3824  0.2976  0.7494
  102OSM   C10F10376   3.823   2.585   9.370  0.2934  0.9533  0.3777
  102OSM   H10F10377   3.894   2.505   9.344  0.0910  0.8580  0.1246
  102OSM   C11F10378   3.855   2.713   9.297  0.0806 -0.7238 -0.1843
  102OSM   H11F10379   3.961   2.744   9.313  0.4852 -1.0734 -2.0094
  102OSM   H11G10380   3.790   2.793   9.340  0.9980 -1.4883  2.8932
  102OSM   C12F10381   3.822   2.692   9.154  0.6460 -0.0113 -0.3977
  102OSM   H12F10382   3.713   2.675   9.153  0.6900 -0.3654 -1.7214
  102OSM   H12G10383   3.850   2.596   9.105 -1.4738 -2.2389  2.4383
  102OSM   C13F10384   3.850   2.815   9.060 -0.0283 -0.4651 -0.1559
  102OSM   H13F10385   3.947   2.861   9.092 -0.1114 -1.5187  1.7901
  102OSM   H13G10386   3.776   2.898   9.069  1.3050  0.9254 -1.4245
  102OSM   C14F10387   3.836   2.785   8.913 -0.5438  0.1681  0.0288
  102OSM   H14F10388   3.887   2.687   8.899 -0.8849 -0.0552  0.3370
  102OSM   H14G10389   3.888   2.858   8.848 -0.0540 -0.7555 -0.6451
  102OSM   C15F10390   3.693   2.796   8.865 -0.1594  0.8310 -0.1746
  102OSM   H15F10391   3.658   2.891   8.909  2.2984  1.4639  0.5796
  102OSM   H15G10392   3.642   2.706   8.905  1.6886 -1.5934 -2.7658
  102OSM   C16F10393   3.672   2.768   8.716 -0.2268 -0.2895  0.1341
  102OSM   H16F10394   3.562   2.776   8.705 -0.2503 -0.7917 -0.0134
  102OSM   H16G10395   3.694   2.660   8.703  2.8369  0.0472  1.5049
  102OSM   C17F10396   3.736   2.857   8.614  0.1527  0.0267  0.2946
  102OSM   H17F10397   3.702   2.835   8.511 -0.2948  1.8949  0.0008
  102OSM   H17G10398   3.846   2.849   8.625  0.2412 -0.7952 -0.9834
  102OSM   C18F10399   3.694   3.005   8.633 -0.2520 -0.0042  0.0281
  102OSM   H18F10400   3.703   3.029   8.741 -0.3326  1.2613 -0.2408
  102OSM   H18G10401   3.587   3.026   8.612 -0.1482  1.6047  0.9289
  102OSM   H18H10402   3.755   3.070   8.568 -0.2990 -0.7746 -0.8159
  103OSM      N10403   6.498   0.593  11.312  0.5532 -0.0477  0.2681
  103OSM    C1510404   6.530   0.686  11.417 -0.5043 -0.7474 -0.0754
  103OSM   H15A10405   6.455   0.693  11.494  0.9538 -2.9276  1.7032
  103OSM   H15B10406   6.532   0.782  11.368  0.8255 -0.7284 -0.0268
  103OSM   H15C10407   6.623   0.660  11.466  0.5275  2.1377 -0.3269
  103OSM    C1410408   6.612   0.606  11.211  0.2203  0.5438 -0.2671
  103OSM   H14A10409   6.695   0.544  11.239 -0.6337 -0.3529  0.3177
  103OSM   H14B10410   6.621   0.711  11.188  0.6651  0.5781  0.0471
  103OSM   H14C10411   6.591   0.546  11.124 -0.1599 -1.7046  1.3125
  103OSM    C1310412   6.491   0.464  11.365  0.2533  0.3329 -0.3637
  103OSM   H13A10413   6.413   0.460  11.440 -2.5517 -2.0090 -3.1742
  103OSM   H13B10414   6.589   0.427  11.392  0.0289 -0.9061 -1.1797
  103OSM   H13C10415   6.459   0.388  11.295 -0.4500 -0.6679  0.9938
  103OSM    C1210416   6.370   0.636  11.244  0.4613  0.5968 -0.3900
  103OSM   H12A10417   6.372   0.741  11.217 -2.3657  0.7185 -0.4414
  103OSM   H12B10418   6.291   0.641  11.318 -0.1273 -0.1925 -0.9499
  103OSM    C1110419   6.327   0.564  11.112 -0.5757  0.0448 -0.4929
  103OSM   H11A10420   6.415   0.561  11.044  0.6459 -1.7631  1.0680
  103OSM   H11B10421   6.242   0.601  11.051 -0.7422  0.1349 -0.2117
  103OSM      P10422   6.261   0.319  11.042  0.0158  0.1623  0.1703
  103OSM    O1310423   6.340   0.200  11.070 -0.5033  0.0509  0.0327
  103OSM    O1410424   6.121   0.281  11.050  0.1034 -0.3784  0.0258
  103OSM    O1110425   6.301   0.378  10.900 -0.2784 -0.0943  0.1637
  103OSM    O1210426   6.290   0.432  11.146 -0.1422  0.2431  0.2446
  103OSM    C1S10427   6.263   0.307  10.780 -0.0483 -0.1016 -0.2737
  103OSM    H1S10428   6.155   0.285  10.768 -0.6292  3.1234 -2.2194
  103OSM    H1T10429   6.307   0.205  10.780 -1.2143 -0.6203 -0.0396
  103OSM     NF10430   6.260   0.315  10.533 -0.7496 -1.0822 -0.0916
  103OSM    HNF10431   6.323   0.242  10.506  4.5266  2.5617  0.7771
  103OSM    C2S10432   6.315   0.381  10.653  0.7346 -0.1145 -0.8044
  103OSM    H2S10433   6.277   0.485  10.661 -1.6212 -0.8258 -1.7621
  103OSM    C3S10434   6.470   0.385  10.653 -0.2545  0.4649 -0.8694
  103OSM    H3S10435   6.499   0.278  10.642 -2.3077 -0.3581  0.9467
  103OSM     O310436   6.536   0.428  10.776 -0.0733  0.2348 -0.3000
  103OSM    HO310437   6.466   0.444  10.840 -0.4547 -1.7305 -0.1646
  103OSM    C4S10438   6.516   0.459  10.526 -0.2589 -0.1841  0.5373
  103OSM    H4S10439   6.497   0.565  10.547 -0.0712  0.6286 -2.8985
  103OSM    C5S10440   6.587   0.407  10.427 -0.0485 -0.2764 -0.0092
  103OSM    H5S10441   6.592   0.298  10.418  1.7747 -0.2833  0.7135
  103OSM    C6S10442   6.641   0.483  10.316  0.3050 -0.1955  0.1805
  103OSM    H6S10443   6.752   0.488  10.324  0.4295 -1.0702 -0.7907
  103OSM    H6T10444   6.602   0.586  10.311 -0.6623 -0.5244  0.6971
  103OSM    C7S10445   6.592   0.418  10.178  0.1688  0.8004 -0.9004
  103OSM    H7S10446   6.482   0.403  10.175  0.2504  0.2923 -1.6135
  103OSM    H7T10447   6.640   0.318  10.180  0.6039  1.0109 -0.8160
  103OSM    C8S10448   6.633   0.502  10.060  0.7320  0.8287 -0.2458
  103OSM    H8S10449   6.743   0.488  10.046  0.5078  0.4484 -1.8202
  103OSM    H8T10450   6.602   0.608  10.071 -1.6103  0.5002 -2.6386
  103OSM    C9S10451   6.575   0.455   9.925 -0.4181 -0.0940 -0.5548
  103OSM    H9S10452   6.465   0.453   9.917 -0.4356 -0.5097 -0.2087
  103OSM    H9T10453   6.601   0.348   9.912 -1.5729 -0.4244 -0.1793
  103OSM   C10S10454   6.632   0.537   9.805  0.3172  0.0274 -0.3478
  103OSM   H10S10455   6.738   0.505   9.811  0.4795  0.7650  1.2606
  103OSM   H10T10456   6.627   0.647   9.822  2.0636  0.6811 -3.3927
  103OSM   C11S10457   6.574   0.493   9.675  0.3006  0.1340  0.4910
  103OSM   H11S10458   6.465   0.516   9.671  0.4216  0.5871 -0.6051
  103OSM   H11T10459   6.569   0.383   9.659 -1.4564  0.4650 -1.7558
  103OSM   C12S10460   6.642   0.539   9.550 -0.4685 -0.2259  0.5107
  103OSM   H12S10461   6.740   0.487   9.539 -1.1900 -1.5342  0.0069
  103OSM   H12T10462   6.678   0.643   9.561  0.7119 -0.7087  1.4524
  103OSM   C13S10463   6.555   0.531   9.418 -0.7578  0.4696 -0.6015
  103OSM   H13S10464   6.462   0.588   9.440 -0.4627  0.5039  0.6250
  103OSM   H13T10465   6.528   0.424   9.400  0.0417  0.1534  0.0481
  103OSM   C14S10466   6.621   0.588   9.296  0.6483  0.5330 -0.1898
  103OSM   H14S10467   6.711   0.530   9.266  0.0824 -0.1952 -0.5108
  103OSM   H14T10468   6.644   0.696   9.305 -1.7103  1.0671  0.0042
  103OSM   C15S10469   6.518   0.570   9.181 -0.1165 -0.0818 -0.1248
  103OSM   H15S10470   6.425   0.618   9.218 -0.1294  1.4160 -1.9373
  103OSM   H15T10471   6.513   0.460   9.165  0.3685 -0.3311  1.3118
  103OSM   C16S10472   6.567   0.654   9.062  0.1708 -0.5950  0.3977
  103OSM   H16S10473   6.643   0.596   9.005  0.4887  1.3928 -1.3434
  103OSM   H16T10474   6.619   0.745   9.096  0.7721 -0.6618 -0.3094
  103OSM   C17S10475   6.458   0.684   8.955  0.0594 -0.3551 -0.2292
  103OSM   H17S10476   6.503   0.709   8.856  1.0591 -1.9164 -0.1951
  103OSM   H17T10477   6.400   0.772   8.989 -0.2329 -0.5399 -0.2539
  103OSM   C18S10478   6.369   0.569   8.928  0.8228  0.7972  0.4401
  103OSM   H18S10479   6.309   0.596   8.839 -0.9343 -0.7592  1.0947
  103OSM   H18T10480   6.290   0.547   9.003  1.4102 -0.6459  0.6636
  103OSM   H18U10481   6.430   0.480   8.902  0.7406 -0.0591  2.8739
  103OSM    C1F10482   6.130   0.336  10.503  0.1267  0.2682  0.1110
  103OSM     OF10483   6.052   0.411  10.564 -0.7715  0.7653  0.0993
  103OSM    C2F10484   6.080   0.260  10.386 -0.6421 -0.0006  0.2142
  103OSM    H2F10485   5.997   0.190  10.407  0.0272 -1.4135 -1.6100
  103OSM    H2G10486   6.164   0.213  10.329 -0.9209  2.0487 -2.0317
  103OSM    C3F10487   6.013   0.354  10.280  0.3527 -0.4284 -0.0738
  103OSM    H3F10488   6.052   0.457  10.272 -1.4589  0.3651  0.8585
  103OSM    H3G10489   5.905   0.367  10.304  0.0686  0.5503 -1.7033
  103OSM    C4F10490   6.019   0.312  10.131 -0.5948  0.8665 -0.6855
  103OSM    H4F10491   5.953   0.224  10.114 -0.7961  0.7138  0.7679
  103OSM    H4G10492   6.123   0.272  10.123 -0.8854  0.0046 -0.2177
  103OSM    C5F10493   5.996   0.427  10.037  0.0965 -0.2373  0.3637
  103OSM    H5F10494   6.060   0.516  10.056  0.4125  0.0184 -1.6582
  103OSM    H5G10495   5.890   0.459  10.040 -0.3980 -1.7527  0.1220
  103OSM    C6F10496   6.030   0.381   9.893 -0.2649  0.1317 -0.8720
  103OSM    H6F10497   6.006   0.468   9.828  0.7422  0.5160 -0.7426
  103OSM    H6G10498   5.974   0.290   9.862  1.4575 -2.1166  2.1153
  103OSM    C7F10499   6.181   0.350   9.873  0.0055  0.2250 -0.2303
  103OSM    H7F10500   6.224   0.256   9.913  2.6755  1.7644  0.7804
  103OSM    H7G10501   6.223   0.431   9.936  0.8539 -0.8327  0.6066
  103OSM    C8F10502   6.240   0.354   9.729  0.2638  0.5819 -0.0599
  103OSM    H8F10503   6.194   0.268   9.674  0.4429  0.8691 -0.6716
  103OSM    H8G10504   6.350   0.346   9.732  0.1163 -1.8453  1.8079
  103OSM    C9F10505   6.207   0.479   9.647 -0.1046 -0.2122 -0.8159
  103OSM    H9F10506   6.245   0.572   9.692  0.1604 -0.6093 -0.2009
  103OSM   C10F10507   6.139   0.490   9.537  0.4395  0.4631 -0.4882
  103OSM   H10F10508   6.128   0.589   9.490  1.0312  0.6896 -0.1596
  103OSM   C11F10509   6.062   0.379   9.482  0.2056 -0.0146  0.6852
  103OSM   H11F10510   5.954   0.393   9.505  0.8620  1.5515  3.1960
  103OSM   H11G10511   6.084   0.279   9.525 -0.3125 -0.3626  0.1494
  103OSM   C12F10512   6.068   0.388   9.323  0.3235 -0.6007 -0.5143
  103OSM   H12F10513   6.166   0.347   9.290  1.1194  1.4076 -0.7441
  103OSM   H12G10514   6.064   0.494   9.291 -0.2537 -0.1860  0.8541
  103OSM   C13F10515   5.962   0.306   9.253 -0.3028 -0.7220 -0.7143
  103OSM   H13F10516   5.962   0.200   9.286 -0.0706 -0.2337  0.9657
  103OSM   H13G10517   5.866   0.349   9.290 -0.3807  1.7222 -3.4303
  103OSM   C14F10518   5.973   0.328   9.102 -0.3724  0.1408 -0.2248
  103OSM   H14F10519   6.063   0.286   9.052  0.0163  0.8162 -0.1052
  103OSM   H14G10520   5.987   0.437   9.088  2.5839 -0.0607  0.3955
  103OSM   C15F10521   5.858   0.277   9.014 -0.2737  0.7899  0.2613
  103OSM   H15F10522   5.766   0.326   9.051 -0.2371  2.1906 -1.4109
  103OSM   H15G10523   5.855   0.170   9.045  1.5355  0.7322  0.3609
  103OSM   C16F10524   5.877   0.283   8.860  0.5730 -0.0762 -0.1739
  103OSM   H16F10525   5.964   0.220   8.831  0.7474 -0.2667  0.7089
  103OSM   H16G10526   5.894   0.389   8.831  2.4838 -0.5850 -1.0545
  103OSM   C17F10527   5.760   0.227   8.782  0.8621  0.2714  0.3803
  103OSM   H17F10528   5.680   0.303   8.796 -0.6742 -1.0453 -0.7495
  103OSM   H17G10529   5.734   0.123   8.812  1.2983  0.4287  1.3506
  103OSM   C18F10530   5.791   0.224   8.628  0.0756 -0.7508  0.1306
  103OSM   H18F10531   5.873   0.154   8.603  3.0057  1.7732  2.0616
  103OSM   H18G10532   5.814   0.330   8.601  1.0749 -2.0232 -4.9053
  103OSM   H18H10533   5.700   0.205   8.566 -0.6598  2.1560  0.1651
  104OSM      N10534   2.984   5.710  10.643 -0.5931 -0.2430  0.4434
  104OSM    C1510535   3.000   5.563  10.673  0.3344 -0.1642 -1.1483
  104OSM   H15A10536   2.979   5.493  10.593  1.0397 -0.8013 -0.7802
  104OSM   H15B10537   2.932   5.538  10.753 -0.9572  0.4313 -2.0173
  104OSM   H15C10538   3.098   5.542  10.713 -1.0399 -0.8630  2.0869
  104OSM    C1410539   3.060   5.745  10.517 -0.4555 -0.7184 -0.6467
  104OSM   H14A10540   3.165   5.733  10.539 -0.9995 -2.4604  1.2789
  104OSM   H14B10541   3.039   5.848  10.492 -2.0298 -0.6778  0.6730
  104OSM   H14C10542   3.035   5.679  10.436 -1.0202 -3.3205  1.5230
  104OSM    C1310543   2.845   5.746  10.618  0.0213  0.4163  0.6506
  104OSM   H13A10544   2.807   5.690  10.534 -1.6321  0.3836  1.3854
  104OSM   H13B10545   2.824   5.849  10.595  1.2106  1.1265  2.5460
  104OSM   H13C10546   2.789   5.714  10.705  0.2581  0.9149  0.9882
  104OSM    C1210547   3.039   5.794  10.763 -0.4941 -0.3040 -0.1858
  104OSM   H12A10548   3.002   5.758  10.857 -0.1769  1.8558  0.8277
  104OSM   H12B10549   3.001   5.895  10.759  0.9121  0.2275 -1.1598
  104OSM    C1110550   3.192   5.813  10.782 -0.4391  0.5100  0.4205
  104OSM   H11A10551   3.205   5.882  10.868 -0.8991  0.8019  0.2642
  104OSM   H11B10552   3.249   5.863  10.700  0.1291  0.7022  0.9221
  104OSM      P10553   3.382   5.631  10.739  0.0035  0.0249  0.1943
  104OSM    O1310554   3.494   5.725  10.768  0.3971 -0.5470 -0.4940
  104OSM    O1410555   3.405   5.491  10.769  0.1921 -0.3370  0.5420
  104OSM    O1110556   3.363   5.650  10.582  0.2778  0.0224  0.1596
  104OSM    O1210557   3.253   5.682  10.813  0.4395 -0.8066 -0.9415
  104OSM    C1S10558   3.429   5.550  10.501  0.8619 -0.0586  0.4529
  104OSM    H1S10559   3.349   5.476  10.482  0.4733  0.6328 -0.8129
  104OSM    H1T10560   3.526   5.513  10.540  1.3262 -0.5728 -1.0840
  104OSM     NF10561   3.507   5.508  10.262  0.5219  0.3431 -0.4501
  104OSM    HNF10562   3.603   5.493  10.239  1.1858  1.6038  1.2787
  104OSM    C2S10563   3.475   5.613  10.357  0.7634 -0.0576  0.1711
  104OSM    H2S10564   3.399   5.682  10.315  2.8608  1.9786 -0.4648
  104OSM    C3S10565   3.594   5.717  10.377  0.0168 -0.0353  0.2447
  104OSM    H3S10566   3.686   5.659  10.400 -0.0264  0.5465  2.0441
  104OSM     O310567   3.578   5.813  10.480 -0.4983 -0.2850  0.0980
  104OSM    HO310568   3.531   5.769  10.551  1.7037 -0.2155  1.6871
  104OSM    C4S10569   3.613   5.784  10.240  0.7634 -1.0178  0.3260
  104OSM    H4S10570   3.533   5.852  10.207  0.3208 -0.2587  2.7289
  104OSM    C5S10571   3.731   5.796  10.181 -0.1406  0.6828  0.0207
  104OSM    H5S10572   3.820   5.768  10.239 -0.1178 -3.1908 -1.5747
  104OSM    C6S10573   3.750   5.875  10.048  0.3706  0.5143 -0.2118
  104OSM    H6S10574   3.855   5.908  10.056 -0.2678  2.3195  1.3633
  104OSM    H6T10575   3.690   5.968  10.036 -1.2955 -0.2274  1.8012
  104OSM    C7S10576   3.731   5.783   9.928 -0.3691 -1.2348 -0.4333
  104OSM    H7S10577   3.622   5.763   9.928 -0.7738  0.6004 -2.0343
  104OSM    H7T10578   3.802   5.698   9.922  0.6493 -0.3225 -3.0166
  104OSM    C8S10579   3.749   5.857   9.794  0.8243 -0.0003  0.2265
  104OSM    H8S10580   3.854   5.892   9.803 -0.0980  2.9757  0.7564
  104OSM    H8T10581   3.685   5.948   9.801  0.3329 -0.2330 -1.0197
  104OSM    C9S10582   3.697   5.779   9.675  0.9059 -0.6244 -0.0631
  104OSM    H9S10583   3.694   5.850   9.589  2.7396  0.4160  0.6512
  104OSM    H9T10584   3.597   5.741   9.705  1.2349 -1.7561 -0.3535
  104OSM   C10S10585   3.794   5.669   9.642 -0.3619 -0.4290 -0.0058
  104OSM   H10S10586   3.819   5.612   9.734  1.2357  1.4122  0.7813
  104OSM   H10T10587   3.885   5.720   9.604 -0.2397 -0.3688  0.3610
  104OSM   C11S10588   3.725   5.580   9.538 -0.7509  0.1164 -0.0968
  104OSM   H11S10589   3.669   5.642   9.464  0.5643  3.1240  1.2572
  104OSM   H11T10590   3.648   5.516   9.587 -2.0975  1.8232  0.1438
  104OSM   C12S10591   3.823   5.494   9.455 -0.5043  0.0125  0.0802
  104OSM   H12S10592   3.910   5.461   9.516  1.4585  1.2322 -1.9033
  104OSM   H12T10593   3.859   5.543   9.362 -1.4886 -2.2975 -1.6122
  104OSM   C13S10594   3.750   5.374   9.392 -0.3075  1.3985 -0.1269
  104OSM   H13S10595   3.710   5.313   9.476  0.4562  0.8607 -0.1365
  104OSM   H13T10596   3.821   5.300   9.349 -0.9694  0.1169  0.9162
  104OSM   C14S10597   3.637   5.399   9.290  0.1657 -0.5992 -0.2479
  104OSM   H14S10598   3.568   5.469   9.342  0.3226  0.3283 -1.2557
  104OSM   H14T10599   3.576   5.308   9.272 -1.2996 -0.6115  3.7717
  104OSM   C15S10600   3.683   5.464   9.159  1.2425 -0.4911 -0.0219
  104OSM   H15S10601   3.738   5.560   9.172 -1.5462  1.2593 -0.5351
  104OSM   H15T10602   3.596   5.482   9.093  0.3262 -0.1887  1.2223
  104OSM   C16S10603   3.777   5.364   9.089  0.2700  0.6113  0.1795
  104OSM   H16S10604   3.756   5.256   9.106 -0.3551  0.6070 -0.5939
  104OSM   H16T10605   3.877   5.387   9.132  0.4096 -0.0392  0.2144
  104OSM   C17S10606   3.794   5.384   8.939 -0.4938  0.2177  0.4856
  104OSM   H17S10607   3.818   5.491   8.919 -0.7784  0.0825 -0.6330
  104OSM   H17T10608   3.691   5.379   8.898 -1.1254  1.0383  1.8980
  104OSM   C18S10609   3.896   5.293   8.869  0.5668 -0.4800 -0.1060
  104OSM   H18S10610   3.998   5.307   8.912  0.5976 -0.6177 -0.1362
  104OSM   H18T10611   3.893   5.323   8.762 -2.0113  4.2401  1.0020
  104OSM   H18U10612   3.872   5.185   8.878 -0.6123 -0.2619 -0.5226
  104OSM    C1F10613   3.410   5.433  10.209 -0.9557  0.3187 -0.2042
  104OSM     OF10614   3.296   5.469  10.213 -0.4652  0.2455 -0.3905
  104OSM    C2F10615   3.435   5.302  10.146 -0.3001  0.2917  0.9738
  104OSM    H2F10616   3.336   5.261  10.114  0.7727 -0.7813 -1.1955
  104OSM    H2G10617   3.471   5.233  10.224 -0.3799 -0.7888  0.0829
  104OSM    C3F10618   3.531   5.311  10.026 -0.1960  0.1573 -0.4212
  104OSM    H3F10619   3.629   5.350  10.060 -1.0833  1.2082  1.0480
  104OSM    H3G10620   3.504   5.392   9.955 -0.3630  1.9204  1.5511
  104OSM    C4F10621   3.547   5.173   9.956  0.9474 -0.1938  0.2669
  104OSM    H4F10622   3.467   5.145   9.884  0.0315 -0.9835  1.5619
  104OSM    H4G10623   3.542   5.095  10.034  1.1424  1.0433  1.5619
  104OSM    C5F10624   3.683   5.168   9.871 -0.7806  0.1971  0.1964
  104OSM    H5F10625   3.767   5.151   9.943 -0.7809  0.5163  0.2768
  104OSM    H5G10626   3.692   5.270   9.827  0.6713 -0.1505 -0.3604
  104OSM    C6F10627   3.688   5.075   9.751 -0.0024 -0.1092  0.1202
  104OSM    H6F10628   3.779   5.091   9.690  0.3598 -0.0937  0.6514
  104OSM    H6G10629   3.601   5.088   9.684 -0.1223 -0.7289  0.1547
  104OSM    C7F10630   3.680   4.923   9.784  0.3616  0.1112 -0.0020
  104OSM    H7F10631   3.619   4.928   9.877  1.8559 -1.9994  1.1892
  104OSM    H7G10632   3.780   4.890   9.819 -0.0334 -1.1318  0.0225
  104OSM    C8F10633   3.608   4.840   9.687  0.7845  0.3867 -0.4047
  104OSM    H8F10634   3.508   4.887   9.672  0.2165 -0.9948 -1.0951
  104OSM    H8G10635   3.602   4.736   9.726  0.0994 -0.1966 -2.0000
  104OSM    C9F10636   3.687   4.812   9.563  0.3163  0.7462  0.0055
  104OSM    H9F10637   3.740   4.717   9.585  0.3101  1.4011  3.3253
  104OSM   C10F10638   3.690   4.862   9.441 -0.6529  0.5249 -0.4169
  104OSM   H10F10639   3.762   4.816   9.372 -0.7858  0.5880 -0.5973
  104OSM   C11F10640   3.615   4.982   9.389 -1.3619 -0.3818  0.0301
  104OSM   H11F10641   3.681   5.071   9.403 -1.4733 -0.3803  0.5499
  104OSM   H11G10642   3.531   4.988   9.461 -1.1722 -1.3278  0.3327
  104OSM   C12F10643   3.561   4.967   9.247 -0.4229  0.3241 -0.1460
  104OSM   H12F10644   3.493   5.053   9.228  0.9210  1.0985 -1.6936
  104OSM   H12G10645   3.496   4.879   9.231  0.2984  0.1020 -2.1891
  104OSM   C13F10646   3.661   4.982   9.130  0.0331  0.5278 -0.2924
  104OSM   H13F10647   3.726   4.892   9.119 -1.8185 -0.7725 -1.2124
  104OSM   H13G10648   3.736   5.056   9.164 -0.2560  1.3516 -1.3895
  104OSM   C14F10649   3.602   5.039   8.999  0.1785  0.4366  0.0530
  104OSM   H14F10650   3.684   5.026   8.926 -0.4046 -0.0632 -0.5220
  104OSM   H14G10651   3.565   5.141   9.020  0.5309  0.6442 -0.3281
  104OSM   C15F10652   3.487   4.951   8.944 -0.5561 -0.1252 -0.1197
  104OSM   H15F10653   3.416   4.919   9.023  0.7215 -0.8113  0.8045
  104OSM   H15G10654   3.537   4.854   8.921  2.9622  1.5793 -0.3720
  104OSM   C16F10655   3.415   5.003   8.819  0.4945 -0.7691 -0.7960
  104OSM   H16F10656   3.348   4.917   8.799 -2.6249  1.7484 -2.0723
  104OSM   H16G10657   3.488   5.016   8.736 -0.4384 -1.0431 -1.6933
  104OSM   C17F10658   3.334   5.133   8.844  0.2727 -0.3007 -0.5972
  104OSM   H17F10659   3.396   5.214   8.887 -1.3897  0.0800  1.2378
  104OSM   H17G10660   3.256   5.102   8.918  0.9726 -0.1134  0.2354
  104OSM   C18F10661   3.266   5.191   8.715 -0.2787 -0.2285 -0.6468
  104OSM   H18F10662   3.346   5.198   8.639 -0.5499 -0.4649 -0.9567
  104OSM   H18G10663   3.215   5.288   8.734  1.9990  0.9005  0.0514
  104OSM   H18H10664   3.192   5.122   8.667 -0.8078 -0.7471  0.8537
  105OSM      N10665   2.801   6.444  10.854  0.0923  0.1816 -0.0185
  105OSM    C1510666   2.847   6.579  10.809  0.2250 -0.1802  0.1093
  105OSM   H15A10667   2.759   6.637  10.785  0.1225 -0.6690 -0.7224
  105OSM   H15B10668   2.926   6.574  10.735 -0.3584 -1.3278 -0.4638
  105OSM   H15C10669   2.891   6.629  10.894  1.0711 -1.0967  0.2301
  105OSM    C1410670   2.910   6.378  10.923 -0.1210 -0.2526 -0.3716
  105OSM   H14A10671   2.888   6.279  10.961  2.8091 -0.2261  1.6969
  105OSM   H14B10672   2.940   6.431  11.012 -2.4271  0.8586 -0.1881
  105OSM   H14C10673   2.997   6.361  10.860  0.5882  1.3738  0.1218
  105OSM    C1310674   2.692   6.458  10.962  0.5103 -0.5312  0.0971
  105OSM   H13A10675   2.666   6.369  11.017  0.2439  0.9905  2.5824
  105OSM   H13B10676   2.600   6.499  10.922 -0.3576 -2.5962 -0.1075
  105OSM   H13C10677   2.728   6.519  11.044  0.1674 -0.6584  0.3452
  105OSM    C1210678   2.751   6.360  10.745  0.3782 -0.5726  0.8763
  105OSM   H12A10679   2.654   6.389  10.710  1.1731 -0.0809 -1.0096
  105OSM   H12B10680   2.749   6.260  10.787  1.9120  0.5320  3.9034
  105OSM    C1110681   2.836   6.347  10.606 -0.2064 -0.0988 -0.2727
  105OSM   H11A10682   2.843   6.446  10.558  0.0989  0.2014  0.3683
  105OSM   H11B10683   2.782   6.276  10.540  0.4926 -0.5207 -0.4036
  105OSM      P10684   3.016   6.151  10.639 -0.3363  0.0590 -0.4980
  105OSM    O1310685   3.165   6.152  10.644 -0.0037 -0.4103  0.1946
  105OSM    O1410686   2.941   6.085  10.748 -0.8062  0.0788  0.0650
  105OSM    O1110687   2.962   6.089  10.502 -0.2762  0.1605 -0.5491
  105OSM    O1210688   2.973   6.300  10.626 -0.0138 -1.0015 -0.7228
  105OSM    C1S10689   3.038   6.137  10.386 -0.3692 -0.3035 -0.4616
  105OSM    H1S10690   3.141   6.094  10.384  0.7070  2.0946  0.0279
  105OSM    H1T10691   3.032   6.246  10.368  0.7892 -0.4871 -2.2003
  105OSM     NF10692   3.058   6.109  10.127  0.2884  0.2021 -0.2004
  105OSM    HNF10693   3.012   6.167  10.060  0.5601  3.8680  2.4934
  105OSM    C2S10694   2.974   6.082  10.246  0.3441 -0.2780 -0.5120
  105OSM    H2S10695   2.973   5.972  10.255 -0.0741 -0.1321  2.0792
  105OSM    C3S10696   2.837   6.140  10.240  0.4386  0.3469 -0.9706
  105OSM    H3S10697   2.840   6.251  10.234  1.0094  0.4320  0.4813
  105OSM     O310698   2.757   6.102  10.349  0.6950  0.3504 -0.3571
  105OSM    HO310699   2.816   6.063  10.413 -1.9582 -0.8067  1.5718
  105OSM    C4S10700   2.771   6.079  10.118  0.3559 -0.1472  0.4290
  105OSM    H4S10701   2.742   5.974  10.134  0.4869 -0.1083  0.9326
  105OSM    C5S10702   2.741   6.133   9.993  0.4046  0.4434  0.0269
  105OSM    H5S10703   2.784   6.230   9.964 -0.3153  0.7812  0.0741
  105OSM    C6S10704   2.670   6.051   9.890 -0.5750  0.6719 -0.2146
  105OSM    H6S10705   2.606   6.111   9.822 -2.3564 -0.9612 -0.0651
  105OSM    H6T10706   2.599   5.976   9.932 -0.9687 -0.7875 -3.2084
  105OSM    C7S10707   2.779   5.985   9.810 -0.4892  0.8617  0.8603
  105OSM    H7S10708   2.735   5.888   9.780 -0.4766  0.8329  0.9363
  105OSM    H7T10709   2.870   5.955   9.866  0.0479  1.6741  0.4494
  105OSM    C8S10710   2.818   6.071   9.689 -0.0353  0.8947  0.4957
  105OSM    H8S10711   2.882   6.151   9.731  1.1210  0.4343 -0.3586
  105OSM    H8T10712   2.726   6.116   9.646 -0.2616  0.2264  0.2714
  105OSM    C9S10713   2.893   5.993   9.586 -0.1940 -0.3753  0.3692
  105OSM    H9S10714   2.821   5.913   9.558 -0.2210 -1.0670  2.2852
  105OSM    H9T10715   2.978   5.945   9.641 -0.5339 -1.0536  0.3188
  105OSM   C10S10716   2.948   6.080   9.472 -0.6584 -0.0825 -0.8344
  105OSM   H10S10717   3.002   6.171   9.504  0.7899 -0.9076 -0.8747
  105OSM   H10T10718   2.857   6.123   9.424 -0.4519  1.5657  0.1661
  105OSM   C11S10719   3.030   5.989   9.376  0.5002  0.3052 -0.1141
  105OSM   H11S10720   3.082   5.907   9.430 -2.1446 -1.2075  0.3640
  105OSM   H11T10721   3.114   6.042   9.327  0.3429 -1.1289 -2.0882
  105OSM   C12S10722   2.942   5.938   9.262 -0.0180  0.1521 -0.7062
  105OSM   H12S10723   2.871   6.015   9.225 -0.7421  0.3277  0.9519
  105OSM   H12T10724   2.885   5.859   9.316 -0.7115  1.2074  0.1284
  105OSM   C13S10725   3.018   5.866   9.153  0.6234 -0.2337  0.7876
  105OSM   H13S10726   3.087   5.793   9.198 -0.3890 -1.2790  0.6796
  105OSM   H13T10727   3.083   5.943   9.104 -1.0030  1.6492  1.4526
  105OSM   C14S10728   2.930   5.792   9.053  0.1661 -0.0075  0.5015
  105OSM   H14S10729   2.843   5.853   9.019  0.1922 -0.6332 -0.7476
  105OSM   H14T10730   2.890   5.705   9.110  0.3341 -0.7883 -0.5421
  105OSM   C15S10731   2.995   5.745   8.920 -0.3010 -0.5135  0.0794
  105OSM   H15S10732   3.025   5.840   8.871 -0.1702  0.5860  2.1670
  105OSM   H15T10733   2.930   5.690   8.848  1.3964  0.3180 -2.1999
  105OSM   C16S10734   3.117   5.655   8.953 -0.3096  0.3175  0.1302
  105OSM   H16S10735   3.091   5.567   9.016 -0.6536  0.1331 -0.2676
  105OSM   H16T10736   3.196   5.700   9.018 -0.3109 -1.4408  1.4433
  105OSM   C17S10737   3.177   5.613   8.821 -0.1814  0.0871 -0.2928
  105OSM   H17S10738   3.206   5.702   8.762  1.1079  1.6419  2.4903
  105OSM   H17T10739   3.098   5.558   8.765 -0.0332 -3.2459  2.4185
  105OSM   C18S10740   3.305   5.526   8.822 -0.2745 -0.1264  0.3262
  105OSM   H18S10741   3.380   5.594   8.867  0.8745 -0.1759 -1.4196
  105OSM   H18T10742   3.333   5.488   8.721 -1.2129  0.8646 -0.3393
  105OSM   H18U10743   3.302   5.435   8.885  1.0760 -1.9681 -2.1047
  105OSM    C1F10744   3.175   6.058  10.101  0.4118 -0.0597 -0.3066
  105OSM     OF10745   3.217   5.982  10.184  0.3722 -0.5814  0.1382
  105OSM    C2F10746   3.256   6.096   9.981 -0.1384  0.0383 -0.0004
  105OSM    H2F10747   3.331   6.167  10.023 -0.1606 -0.1829  0.4239
  105OSM    H2G10748   3.190   6.142   9.904 -0.3510  0.8109  0.6201
  105OSM    C3F10749   3.320   5.969   9.919  0.8588 -0.4289 -0.0544
  105OSM    H3F10750   3.347   5.897   9.999  2.2624  1.4295  1.2447
  105OSM    H3G10751   3.416   5.988   9.867 -0.2737 -0.7266 -2.3821
  105OSM    C4F10752   3.219   5.894   9.828  0.0853  0.1635 -0.4373
  105OSM    H4F10753   3.205   5.951   9.733 -1.8657 -0.4788 -0.5651
  105OSM    H4G10754   3.120   5.884   9.876 -0.5632 -1.5481 -2.0208
  105OSM    C5F10755   3.269   5.755   9.790 -0.2305 -0.3591  0.1095
  105OSM    H5F10756   3.207   5.676   9.837 -2.0211  1.6071  1.2448
  105OSM    H5G10757   3.370   5.727   9.825  0.9948  1.2317 -1.9316
  105OSM    C6F10758   3.273   5.726   9.638 -0.3606 -0.1482  0.1930
  105OSM    H6F10759   3.325   5.797   9.570 -1.8419 -1.3277 -2.3024
  105OSM    H6G10760   3.171   5.731   9.594  0.3658 -0.1128 -1.5489
  105OSM    C7F10761   3.333   5.587   9.602 -0.6408  0.0236  0.2020
  105OSM    H7F10762   3.442   5.575   9.622 -0.3014 -1.1570 -1.9926
  105OSM    H7G10763   3.318   5.573   9.493 -0.9787 -1.2159  0.3816
  105OSM    C8F10764   3.258   5.465   9.667 -0.2229  0.2452 -0.3709
  105OSM    H8F10765   3.148   5.470   9.654 -0.8447 -1.5523  3.0004
  105OSM    H8G10766   3.276   5.474   9.776  0.1759 -0.6694 -0.3555
  105OSM    C9F10767   3.311   5.332   9.621  0.3749  0.3516  0.2678
  105OSM    H9F10768   3.388   5.294   9.691 -1.4293 -1.3694  1.4031
  105OSM   C10F10769   3.282   5.264   9.511  0.4293  0.0415  0.3941
  105OSM   H10F10770   3.324   5.164   9.494  0.8668  0.3572 -0.4282
  105OSM   C11F10771   3.187   5.306   9.402  0.2647  0.4428 -0.6870
  105OSM   H11F10772   3.135   5.403   9.417 -1.7829 -0.7367  0.2572
  105OSM   H11G10773   3.098   5.241   9.410  0.0326  0.8008 -0.3216
  105OSM   C12F10774   3.238   5.296   9.257 -0.0574 -0.1252 -0.0405
  105OSM   H12F10775   3.269   5.191   9.240 -1.7273 -0.6383 -0.0766
  105OSM   H12G10776   3.327   5.362   9.246 -0.2907  1.2859  4.5063
  105OSM   C13F10777   3.121   5.335   9.169 -0.3039  0.0115 -0.4477
  105OSM   H13F10778   3.170   5.399   9.093 -0.6582 -0.0437 -0.7255
  105OSM   H13G10779   3.054   5.402   9.227 -0.4318  0.8517 -1.5419
  105OSM   C14F10780   3.046   5.222   9.095  0.7904  0.7232 -1.5637
  105OSM   H14F10781   2.969   5.171   9.157  0.4097  2.2010 -0.7526
  105OSM   H14G10782   3.117   5.142   9.067  1.5610  0.5961  0.5332
  105OSM   C15F10783   2.989   5.267   8.969 -0.5246  0.2566  0.7710
  105OSM   H15F10784   3.079   5.292   8.908 -0.8377  0.0579  0.2280
  105OSM   H15G10785   2.924   5.357   8.975 -0.9318  0.1238 -0.9337
  105OSM   C16F10786   2.925   5.154   8.889 -0.2275  0.3350 -0.0128
  105OSM   H16F10787   2.840   5.128   8.955 -0.1640 -1.6198 -0.6465
  105OSM   H16G10788   2.986   5.062   8.879 -0.4834  0.2353 -0.7192
  105OSM   C17F10789   2.871   5.197   8.756  0.4350  0.1044  0.3897
  105OSM   H17F10790   2.941   5.263   8.700 -1.4033  2.2202  0.4763
  105OSM   H17G10791   2.785   5.267   8.767 -0.0040 -0.4670  0.6314
  105OSM   C18F10792   2.811   5.082   8.673  0.0444  0.1597 -0.4980
  105OSM   H18F10793   2.893   5.029   8.620  0.2492  0.6512 -0.6768
  105OSM   H18G10794   2.749   5.125   8.591  2.2208  2.0338 -1.2603
  105OSM   H18H10795   2.747   5.018   8.737 -0.4182  0.7885 -0.3164
  106OSM      N10796   4.817   3.483  11.053 -0.2397  0.4217 -0.1933
  106OSM    C1510797   4.948   3.475  11.109 -0.6262 -0.1204  0.3674
  106OSM   H15A10798   4.988   3.377  11.133 -0.6134 -0.2958 -0.3550
  106OSM   H15B10799   4.958   3.521  11.207  1.8562 -0.0734  0.1522
  106OSM   H15C10800   5.025   3.520  11.048  0.6215  0.2307  2.0863
  106OSM    C1410801   4.720   3.438  11.151  0.2050 -0.7047  0.3851
  106OSM   H14A10802   4.623   3.481  11.128  0.7588  1.8177  2.2968
  106OSM   H14B10803   4.745   3.482  11.246 -0.3620  0.2089  0.1245
  106OSM   H14C10804   4.709   3.331  11.162  2.2615 -0.8445  1.4397
  106OSM    C1310805   4.785   3.632  11.031  0.2530 -0.1311 -0.0165
  106OSM   H13A10806   4.871   3.675  10.981 -0.1159 -0.7742 -1.2529
  106OSM   H13B10807   4.776   3.679  11.128  2.6921  2.4339 -0.8800
  106OSM   H13C10808   4.701   3.637  10.963 -0.4602 -2.6895  0.5862
  106OSM    C1210809   4.815   3.411  10.913  0.1253 -0.9339  0.0454
  106OSM   H12A10810   4.718   3.427  10.868 -0.7903  0.5101  2.3568
  106OSM   H12B10811   4.817   3.305  10.933  0.4827 -1.2785 -1.6640
  106OSM    C1110812   4.926   3.457  10.805 -0.8145  0.2162  0.2857
  106OSM   H11A10813   4.919   3.385  10.721 -2.0442 -1.1320  1.4766
  106OSM   H11B10814   5.022   3.453  10.860 -0.7363 -3.1386  0.1445
  106OSM      P10815   4.776   3.624  10.670 -0.1975 -0.1864  0.3752
  106OSM    O1310816   4.667   3.686  10.752 -0.2846 -0.2124  0.2291
  106OSM    O1410817   4.826   3.701  10.555 -0.3788  0.4659  0.5385
  106OSM    O1110818   4.719   3.489  10.619  0.1301 -0.3085  0.2412
  106OSM    O1210819   4.899   3.592  10.759  0.2877  0.9644 -0.0841
  106OSM    C1S10820   4.597   3.483  10.550  0.4983 -0.9353  0.0328
  106OSM    H1S10821   4.544   3.580  10.542  1.3182 -0.2751  2.0101
  106OSM    H1T10822   4.528   3.414  10.604 -1.0419  0.3881 -0.1486
  106OSM     NF10823   4.475   3.420  10.343 -0.2321  0.6266 -0.6437
  106OSM    HNF10824   4.440   3.327  10.343  1.0632  0.1196 -0.2236
  106OSM    C2S10825   4.611   3.431  10.407 -0.1705 -0.5553  0.4951
  106OSM    H2S10826   4.658   3.516  10.352  2.6766  0.5558  4.2456
  106OSM    C3S10827   4.692   3.300  10.414  0.3288  0.7702 -0.5060
  106OSM    H3S10828   4.627   3.231  10.472 -1.7751  0.5704 -2.9058
  106OSM     O310829   4.822   3.300  10.469 -0.3231  0.0691  0.5610
  106OSM    HO310830   4.815   3.388  10.507 -0.7298  0.4357 -0.3349
  106OSM    C4S10831   4.714   3.246  10.278  0.1446  0.2851  0.1289
  106OSM    H4S10832   4.779   3.298  10.206 -0.8105  1.1265 -0.1429
  106OSM    C5S10833   4.664   3.131  10.238  0.2716  0.0055  0.1179
  106OSM    H5S10834   4.599   3.063  10.296 -0.0621 -2.4240 -2.8391
  106OSM    C6S10835   4.686   3.080  10.093 -0.6086 -0.0763 -0.6238
  106OSM    H6S10836   4.628   2.986  10.083 -1.3080  0.1642  0.9515
  106OSM    H6T10837   4.793   3.050  10.083 -0.9242 -0.8421 -1.9005
  106OSM    C7S10838   4.631   3.170   9.984  0.4491 -0.1415 -0.0112
  106OSM    H7S10839   4.676   3.269  10.004  2.6905 -1.6812  3.5769
  106OSM    H7T10840   4.521   3.184   9.985  0.4209 -0.3519  0.6512
  106OSM    C8S10841   4.663   3.116   9.843 -0.7612  0.5078  0.5619
  106OSM    H8S10842   4.636   3.009   9.834  2.7295 -0.8002  3.3702
  106OSM    H8T10843   4.774   3.110   9.839 -0.7066  2.0342 -1.8953
  106OSM    C9S10844   4.620   3.206   9.731  0.4140  0.0296 -0.0866
  106OSM    H9S10845   4.639   3.312   9.759 -1.9507  0.9108 -1.5375
  106OSM    H9T10846   4.509   3.202   9.730  0.3548  1.1027 -1.5829
  106OSM   C10S10847   4.669   3.181   9.590 -0.0854  0.3453  0.8288
  106OSM   H10S10848   4.675   3.071   9.571  0.8511  0.7211 -1.3354
  106OSM   H10T10849   4.775   3.215   9.592  0.0516 -0.0920  1.2579
  106OSM   C11S10850   4.593   3.250   9.476 -0.0436  0.5272 -0.2527
  106OSM   H11S10851   4.564   3.356   9.489 -1.7001  0.0222  0.4300
  106OSM   H11T10852   4.497   3.194   9.470 -0.9510  2.1674 -3.2000
  106OSM   C12S10853   4.667   3.230   9.348 -0.1139  0.0308  0.7119
  106OSM   H12S10854   4.696   3.124   9.333  0.5841  0.4315 -1.0887
  106OSM   H12T10855   4.761   3.288   9.355  2.1720 -3.3079  0.0722
  106OSM   C13S10856   4.593   3.276   9.225  0.2334  0.0634 -0.1087
  106OSM   H13S10857   4.583   3.386   9.237  2.3261  0.1914  1.0808
  106OSM   H13T10858   4.497   3.222   9.213 -0.4394  1.1875  0.0676
  106OSM   C14S10859   4.679   3.249   9.098 -0.0343  0.5252  0.2235
  106OSM   H14S10860   4.687   3.138   9.095  0.6440  0.5706  0.2360
  106OSM   H14T10861   4.779   3.293   9.119  0.5525 -1.2402  1.3317
  106OSM   C15S10862   4.618   3.317   8.974  0.8244 -0.4853  0.1585
  106OSM   H15S10863   4.609   3.426   8.997  3.2701 -0.6585  2.5276
  106OSM   H15T10864   4.516   3.280   8.955  0.6495 -0.7043  1.4040
  106OSM   C16S10865   4.704   3.294   8.851 -0.4621  0.3990 -0.0403
  106OSM   H16S10866   4.724   3.185   8.843  1.7636  0.3977  3.1765
  106OSM   H16T10867   4.803   3.345   8.856 -0.0947  0.2649 -3.5134
  106OSM   C17S10868   4.635   3.348   8.723  0.2187 -0.1879  0.4643
  106OSM   H17S10869   4.624   3.458   8.731  1.6370  0.0757 -0.8365
  106OSM   H17T10870   4.541   3.288   8.721 -0.4295  0.7648  1.4880
  106OSM   C18S10871   4.708   3.327   8.592 -0.8458  0.6365 -0.2758
  106OSM   H18S10872   4.763   3.231   8.587  1.1611  1.6655  0.9876
  106OSM   H18T10873   4.775   3.412   8.567 -1.3908  0.6250 -1.9221
  106OSM   H18U10874   4.645   3.323   8.500 -0.5064 -0.3253 -0.4704
  106OSM    C1F10875   4.409   3.527  10.311  0.5772 -0.4033  0.1232
  106OSM     OF10876   4.460   3.640  10.325  0.2132  0.5988 -0.2401
  106OSM    C2F10877   4.267   3.509  10.262 -0.3115  0.5405 -0.2254
  106OSM    H2F10878   4.214   3.476  10.354  1.8175 -1.9253  0.2401
  106OSM    H2G10879   4.260   3.420  10.195 -3.2935  0.6852 -0.2609
  106OSM    C3F10880   4.209   3.627  10.183 -0.2059 -0.1006  0.0742
  106OSM    H3F10881   4.226   3.724  10.234  0.1440  0.4613 -1.0847
  106OSM    H3G10882   4.099   3.612  10.171 -0.5490  1.0728  1.4550
  106OSM    C4F10883   4.273   3.634  10.044  0.0094  0.2570 -0.2610
  106OSM    H4F10884   4.382   3.654  10.042  0.0903 -0.1794 -0.6068
  106OSM    H4G10885   4.225   3.723   9.999 -0.1752  0.1234 -0.3284
  106OSM    C5F10886   4.252   3.519   9.940 -0.2903 -0.5254  0.0355
  106OSM    H5F10887   4.152   3.474   9.962 -0.1316 -0.5721  0.6966
  106OSM    H5G10888   4.339   3.452   9.952  0.5598  0.1171 -2.0881
  106OSM    C6F10889   4.243   3.568   9.799 -0.3836  0.2156  0.4092
  106OSM    H6F10890   4.344   3.599   9.764 -0.2150 -2.3608 -1.7037
  106OSM    H6G10891   4.180   3.659   9.789 -0.1271  0.4646  1.0153
  106OSM    C7F10892   4.213   3.456   9.696  0.0780  0.3358 -0.5695
  106OSM    H7F10893   4.117   3.404   9.715  1.1561 -2.7249 -2.7224
  106OSM    H7G10894   4.300   3.388   9.711  2.4479  3.3179  0.3502
  106OSM    C8F10895   4.211   3.516   9.560 -0.5839 -0.2145 -0.2437
  106OSM    H8F10896   4.212   3.432   9.488  0.9465  1.7565 -2.6978
  106OSM    H8G10897   4.309   3.566   9.544 -0.1411 -1.4416 -1.4802
  106OSM    C9F10898   4.110   3.615   9.521  0.1596  0.2270  0.1806
  106OSM    H9F10899   4.086   3.682   9.605  2.3593 -1.2046  2.0618
  106OSM   C10F10900   4.045   3.636   9.402 -0.7548  0.4620  0.1206
  106OSM   H10F10901   3.982   3.724   9.384  2.8087  3.1259 -0.4854
  106OSM   C11F10902   4.064   3.545   9.286  0.5429 -0.0784  0.5689
  106OSM   H11F10903   3.972   3.489   9.259  1.3785 -0.9038 -0.6911
  106OSM   H11G10904   4.143   3.469   9.305  0.3517 -0.6954 -0.9673
  106OSM   C12F10905   4.108   3.612   9.155  0.2684 -0.0410  0.1127
  106OSM   H12F10906   4.184   3.690   9.179 -0.0058 -0.1583  1.4001
  106OSM   H12G10907   4.030   3.679   9.114  0.3951  0.6867  1.0377
  106OSM   C13F10908   4.158   3.518   9.038  0.6893  0.1776 -0.2190
  106OSM   H13F10909   4.083   3.440   9.014  3.0072 -2.3026  0.1670
  106OSM   H13G10910   4.246   3.462   9.076 -0.4186 -1.5764 -0.1321
  106OSM   C14F10911   4.206   3.591   8.909 -1.1463  0.1402 -0.2774
  106OSM   H14F10912   4.258   3.523   8.840 -1.9547 -2.2988  1.3814
  106OSM   H14G10913   4.283   3.663   8.945 -2.1361  0.0440  2.2498
  106OSM   C15F10914   4.086   3.644   8.835 -0.7971  0.5090  0.7287
  106OSM   H15F10915   4.016   3.714   8.887 -0.2952  1.1831  0.4990
  106OSM   H15G10916   4.024   3.557   8.805 -0.3567  0.0732  1.0637
  106OSM   C16F10917   4.136   3.701   8.696  0.1490 -0.0234  0.1191
  106OSM   H16F10918   4.212   3.629   8.658  1.6062  1.7036 -0.3633
  106OSM   H16G10919   4.197   3.788   8.728  0.2232 -0.6469  1.7859
  106OSM   C17F10920   4.033   3.731   8.591 -0.1788  0.8237  0.0122
  106OSM   H17F10921   3.952   3.794   8.634  0.8674  0.7600  2.2260
  106OSM   H17G10922   4.001   3.633   8.551 -0.5371  1.1934 -0.6351
  106OSM   C18F10923   4.091   3.798   8.463  0.0764  0.3922 -0.7525
  106OSM   H18F10924   4.190   3.759   8.430  0.2962 -1.1506  1.4503
  106OSM   H18G10925   4.096   3.906   8.487  0.1818  0.2421 -0.0786
  106OSM   H18H10926   4.021   3.776   8.380  1.7750 -1.1894 -1.8505
  107OSM      N10927   5.956   6.627  11.300  0.0450 -0.1811  0.0145
  107OSM    C1510928   5.961   6.753  11.225  0.0862  0.5469  0.0170
  107OSM   H15A10929   5.946   6.831  11.298 -0.7158  1.3005 -0.9228
  107OSM   H15B10930   5.875   6.757  11.160 -0.0155  1.7956  0.1987
  107OSM   H15C10931   6.058   6.766  11.180  0.9937 -0.7482  1.4909
  107OSM    C1410932   6.054   6.653  11.408 -0.4325 -0.0446  0.4358
  107OSM   H14A10933   6.014   6.712  11.489 -0.0232 -0.3818  0.8897
  107OSM   H14B10934   6.144   6.700  11.370 -0.4412 -0.8973 -0.7085
  107OSM   H14C10935   6.075   6.560  11.457  1.7182  0.8598  1.3425
  107OSM    C1310936   5.824   6.605  11.358  0.0102 -0.4667 -0.7222
  107OSM   H13A10937   5.796   6.684  11.426  2.3370  0.1746 -0.4187
  107OSM   H13B10938   5.821   6.511  11.410  0.0535  0.3125  0.7681
  107OSM   H13C10939   5.740   6.608  11.290 -0.5795 -1.5898 -0.0674
  107OSM    C1210940   5.991   6.504  11.207  0.3282 -0.5147  0.1924
  107OSM   H12A10941   5.984   6.407  11.253 -1.3567  0.2314  1.6416
  107OSM   H12B10942   6.092   6.523  11.176  0.4423 -1.1076  0.1969
  107OSM    C1110943   5.905   6.504  11.076  0.0351 -0.1974 -0.2201
  107OSM   H11A10944   5.959   6.439  11.003 -1.6745 -0.9345 -0.8677
  107OSM   H11B10945   5.897   6.606  11.031 -1.5802  0.3978  1.3233
  107OSM      P10946   5.706   6.326  11.092 -0.3820  0.3858 -0.2149
  107OSM    O1310947   5.783   6.240  11.184  0.4742  0.3539  0.0021
  107OSM    O1410948   5.560   6.327  11.115  0.1540 -0.1331 -0.6313
  107OSM    O1110949   5.726   6.277  10.947 -0.0909 -0.2873  0.1016
  107OSM    O1210950   5.775   6.468  11.090  0.2119  0.7424 -0.0940
  107OSM    C1S10951   5.640   6.330  10.839  0.7191  0.1451 -0.5708
  107OSM    H1S10952   5.623   6.440  10.846  0.1207 -0.0571  1.7109
  107OSM    H1T10953   5.540   6.283  10.846  1.3350 -1.0680  0.6135
  107OSM     NF10954   5.615   6.382  10.599 -0.4956 -0.3822  0.2275
  107OSM    HNF10955   5.525   6.350  10.572 -0.3488 -0.0702 -0.6582
  107OSM    C2S10956   5.699   6.305  10.697  0.5521 -0.3799 -0.1108
  107OSM    H2S10957   5.805   6.338  10.694  0.5117 -0.2764 -0.3704
  107OSM    C3S10958   5.707   6.151  10.663  0.1918 -0.2767  0.2839
  107OSM    H3S10959   5.603   6.112  10.666  0.9498 -2.4654 -0.4155
  107OSM     O310960   5.775   6.069  10.756  0.0754 -0.1744  0.3104
  107OSM    HO310961   5.783   6.126  10.833 -0.2017 -1.7197  1.5214
  107OSM    C4S10962   5.748   6.129  10.517  0.4571 -0.4284  0.1703
  107OSM    H4S10963   5.670   6.119  10.440  2.3518 -0.8868 -1.7550
  107OSM    C5S10964   5.872   6.110  10.476  0.2137  0.1860  0.5206
  107OSM    H5S10965   5.949   6.114  10.554 -0.2310  1.6524  0.9150
  107OSM    C6S10966   5.929   6.083  10.340  0.3378 -0.0816 -0.1689
  107OSM    H6S10967   5.957   5.975  10.334 -0.8210 -0.3954 -0.1841
  107OSM    H6T10968   6.030   6.128  10.338  1.1354 -1.8212 -1.4259
  107OSM    C7S10969   5.842   6.125  10.218  0.6448  0.1739  0.1063
  107OSM    H7S10970   5.802   6.227  10.238  1.0016  0.1850  0.7871
  107OSM    H7T10971   5.764   6.047  10.201  2.0307 -1.1367 -0.5004
  107OSM    C8S10972   5.936   6.118  10.095  0.4185  0.7389  0.6679
  107OSM    H8S10973   5.973   6.014  10.093  0.9849  0.9404 -0.7297
  107OSM    H8T10974   6.022   6.186  10.114  1.5108 -0.1869 -0.7674
  107OSM    C9S10975   5.873   6.145   9.960  0.6137  0.0606  0.2093
  107OSM    H9S10976   5.808   6.235   9.965 -2.6758 -2.1781  0.7067
  107OSM    H9T10977   5.809   6.059   9.929 -0.5516  0.4797  1.3630
  107OSM   C10S10978   5.965   6.152   9.838 -0.9903  0.3109  0.7590
  107OSM   H10S10979   6.040   6.070   9.834  2.5764  3.2889  0.8267
  107OSM   H10T10980   6.021   6.248   9.833 -0.7246  0.1048 -2.3772
  107OSM   C11S10981   5.882   6.163   9.704  0.0192 -0.6579 -0.1319
  107OSM   H11S10982   5.803   6.241   9.709 -0.8988 -1.5683 -0.0338
  107OSM   H11T10983   5.823   6.071   9.682 -1.0613  0.4022 -1.9238
  107OSM   C12S10984   5.975   6.170   9.581  0.1394  0.1550  0.0398
  107OSM   H12S10985   6.027   6.072   9.575 -0.5948 -0.2540  0.3169
  107OSM   H12T10986   6.055   6.245   9.602 -0.9643  2.0667 -2.1325
  107OSM   C13S10987   5.899   6.193   9.451 -0.1530 -0.4536 -0.4141
  107OSM   H13S10988   5.855   6.295   9.448 -1.5486 -1.0310 -0.3978
  107OSM   H13T10989   5.821   6.115   9.460 -0.0630 -0.4804  0.2431
  107OSM   C14S10990   5.988   6.185   9.316 -0.0934  0.7764 -0.5824
  107OSM   H14S10991   6.083   6.136   9.346 -0.1103  1.5369  0.7827
  107OSM   H14T10992   6.017   6.286   9.280  1.2917  0.0847 -1.5213
  107OSM   C15S10993   5.926   6.103   9.209 -0.2138 -0.9493  0.5589
  107OSM   H15S10994   5.826   6.142   9.179  1.7916  3.1679 -1.6586
  107OSM   H15T10995   5.917   6.000   9.249  1.2461 -1.4725 -0.3799
  107OSM   C16S10996   6.018   6.090   9.087  0.0472  0.0961 -0.0058
  107OSM   H16S10997   6.005   5.981   9.070  0.0664 -0.1944  1.7185
  107OSM   H16T10998   6.128   6.094   9.096 -0.0725 -0.6526  2.2317
  107OSM   C17S10999   5.976   6.176   8.967  0.3766  0.3626 -0.4123
  107OSM   H17S11000   6.008   6.278   8.996  0.7381 -0.0934  0.8479
  107OSM   H17T11001   5.867   6.159   8.952  0.4738 -0.6775 -0.0594
  107OSM   C18S11002   6.049   6.135   8.838  0.0174 -0.2004  1.2303
  107OSM   H18S11003   6.024   6.210   8.759  0.4464 -1.0540  0.2647
  107OSM   H18T11004   6.019   6.034   8.801 -0.0999  0.0669  0.5804
  107OSM   H18U11005   6.157   6.142   8.859  0.1834 -0.7019  0.5781
  107OSM    C1F11006   5.634   6.507  10.581 -1.1720  0.2870  0.3098
  107OSM     OF11007   5.740   6.558  10.611 -0.1537  0.1996  0.2385
  107OSM    C2F11008   5.528   6.584  10.503 -0.5189 -0.2985 -0.0591
  107OSM    H2F11009   5.446   6.629  10.563 -0.3258 -0.8092  0.6049
  107OSM    H2G11010   5.475   6.526  10.426 -2.4990 -0.3458  1.2674
  107OSM    C3F11011   5.593   6.708  10.433  0.3984  0.3274  0.0373
  107OSM    H3F11012   5.682   6.677  10.373  1.0353  1.4391  0.3841
  107OSM    H3G11013   5.640   6.784  10.499 -0.0930  1.5333 -0.9376
  107OSM    C4F11014   5.494   6.794  10.351 -0.1137 -0.2297 -0.2778
  107OSM    H4F11015   5.526   6.893  10.313  2.0582 -0.9622 -0.5373
  107OSM    H4G11016   5.403   6.798  10.414  0.2083  1.4081  0.1305
  107OSM    C5F11017   5.449   6.730  10.220  0.4985 -0.0348 -0.4499
  107OSM    H5F11018   5.341   6.751  10.206  0.8328  2.8377  0.5623
  107OSM    H5G11019   5.482   6.625  10.206  0.8608  0.1756 -1.2632
  107OSM    C6F11020   5.519   6.794  10.095 -0.8085  0.6093 -1.1839
  107OSM    H6F11021   5.628   6.774  10.104 -1.0207 -0.2894 -0.4213
  107OSM    H6G11022   5.499   6.904  10.093 -0.7509  0.6611  0.1240
  107OSM    C7F11023   5.499   6.729   9.962 -0.0113  0.6240  0.3213
  107OSM    H7F11024   5.398   6.745   9.918 -1.0405 -0.6765  2.0480
  107OSM    H7G11025   5.502   6.619   9.978 -1.9146  0.3210 -0.9980
  107OSM    C8F11026   5.611   6.765   9.866  0.0057  0.4899 -0.4194
  107OSM    H8F11027   5.595   6.706   9.774  0.6475  0.5058 -0.5431
  107OSM    H8G11028   5.705   6.717   9.902  0.0187  2.1843  2.0461
  107OSM    C9F11029   5.624   6.911   9.843 -0.3962 -1.1299 -1.5249
  107OSM    H9F11030   5.612   6.974   9.932 -1.1211 -2.6848 -0.4861
  107OSM   C10F11031   5.661   6.967   9.728  0.4252 -0.4970  0.8593
  107OSM   H10F11032   5.661   7.076   9.714 -1.3995 -0.5753 -0.0803
  107OSM   C11F11033   5.680   6.883   9.594  0.0040 -0.2753  0.0543
  107OSM   H11F11034   5.699   6.775   9.613  0.5557 -0.4918 -1.6354
  107OSM   H11G11035   5.767   6.931   9.546  0.4475 -2.1441 -1.0900
  107OSM   C12F11036   5.567   6.894   9.487 -0.5198 -0.1821  0.0283
  107OSM   H12F11037   5.524   6.997   9.486  1.1624  0.6019  1.1968
  107OSM   H12G11038   5.487   6.823   9.514 -0.7621 -0.2037 -0.7282
  107OSM   C13F11039   5.623   6.875   9.348  0.4825 -0.3615  0.4095
  107OSM   H13F11040   5.694   6.790   9.339 -0.7154 -1.5693  1.8923
  107OSM   H13G11041   5.681   6.966   9.323 -2.3480  1.1417 -1.2066
  107OSM   C14F11042   5.509   6.840   9.248 -0.2955 -0.1083  0.7522
  107OSM   H14F11043   5.448   6.933   9.242  1.5265  1.0556 -0.7898
  107OSM   H14G11044   5.446   6.760   9.292  0.1621 -0.5944  0.5383
  107OSM   C15F11045   5.562   6.810   9.108  0.7395  0.1065  0.9124
  107OSM   H15F11046   5.604   6.708   9.127 -1.2719 -0.7817  0.8090
  107OSM   H15G11047   5.642   6.879   9.074  1.4671 -0.9151  0.4934
  107OSM   C16F11048   5.460   6.807   8.992  0.6273  0.0343  0.4743
  107OSM   H16F11049   5.434   6.908   8.953 -1.2425 -1.0352 -1.2203
  107OSM   H16G11050   5.361   6.770   9.026 -2.1181  3.2845 -3.0895
  107OSM   C17F11051   5.485   6.705   8.878  0.4921 -0.0264 -0.2731
  107OSM   H17F11052   5.425   6.616   8.908 -0.9937  1.5577  1.7958
  107OSM   H17G11053   5.595   6.689   8.884  0.2651 -1.6886 -0.1315
  107OSM   C18F11054   5.427   6.758   8.736 -0.0313  0.4969 -0.8644
  107OSM   H18F11055   5.317   6.756   8.746 -0.0090 -1.2507 -0.6670
  107OSM   H18G11056   5.459   6.676   8.668  0.0154 -1.7609  1.6860
  107OSM   H18H11057   5.469   6.857   8.709  0.9989  1.0190  2.2474
  108OSM      N11058   6.745   6.511  10.981  0.2442  0.2468 -0.3744
  108OSM    C1511059   6.625   6.484  11.072  1.2810 -0.3148 -0.9680
  108OSM   H15A11060   6.603   6.379  11.079  2.2033 -0.4129  1.9814
  108OSM   H15B11061   6.538   6.534  11.033 -0.3339 -0.6760  1.9072
  108OSM   H15C11062   6.641   6.521  11.172 -2.2920 -0.9422 -0.0642
  108OSM    C1411063   6.854   6.426  11.054 -0.2023  0.1138  0.5102
  108OSM   H14A11064   6.951   6.454  11.016 -0.3134 -0.5241 -0.2552
  108OSM   H14B11065   6.837   6.323  11.028 -0.5706  0.6304 -1.4930
  108OSM   H14C11066   6.849   6.436  11.161  0.8782 -0.0300  0.5854
  108OSM    C1311067   6.726   6.466  10.840 -0.0177  0.7353  0.2794
  108OSM   H13A11068   6.710   6.360  10.830 -0.7675  0.9899 -1.4909
  108OSM   H13B11069   6.815   6.495  10.785  1.2359  1.3415  2.4972
  108OSM   H13C11070   6.643   6.521  10.797  0.4738  0.6595 -0.7753
  108OSM    C1211071   6.778   6.659  10.988 -0.1845  0.6026 -0.0521
  108OSM   H12A11072   6.788   6.683  11.093  0.3620  0.5463 -0.0902
  108OSM   H12B11073   6.691   6.714  10.953 -0.1747  1.6673  1.4788
  108OSM    C1111074   6.890   6.711  10.901  0.4961 -0.1299 -0.1559
  108OSM   H11A11075   6.900   6.821  10.914  2.4581  0.0372 -2.3111
  108OSM   H11B11076   6.856   6.692  10.797  0.6479  1.1590 -0.4693
  108OSM      P11077   7.101   6.709  11.048 -0.0582  0.0048  0.3468
  108OSM    O1311078   7.025   6.808  11.132  0.1904 -0.1624 -0.3754
  108OSM    O1411079   7.163   6.601  11.125 -0.0662  0.2508  0.2801
  108OSM    O1111080   7.210   6.788  10.975  0.5539 -0.6900 -0.0987
  108OSM    O1211081   7.017   6.648  10.923 -0.2125  0.3696 -0.0141
  108OSM    C1S11082   7.265   6.743  10.853  0.2645  0.3376 -0.9064
  108OSM    H1S11083   7.258   6.632  10.848 -0.4591  0.2433  1.0793
  108OSM    H1T11084   7.371   6.773  10.846  1.2526 -2.4905  0.3843
  108OSM     NF11085   7.273   6.756  10.603  0.1957  0.4511  0.2392
  108OSM    HNF11086   7.358   6.804  10.581  0.3854  0.0349  0.0461
  108OSM    C2S11087   7.205   6.801  10.721 -0.3624 -0.0617 -0.2631
  108OSM    H2S11088   7.105   6.752  10.716 -0.3451  0.0126 -2.2277
  108OSM    C3S11089   7.190   6.956  10.732 -0.6722 -0.4931  0.1614
  108OSM    H3S11090   7.288   7.001  10.756 -0.7611  0.8005 -1.6948
  108OSM     O311091   7.091   6.991  10.829  0.2736  0.7440  0.0680
  108OSM    HO311092   7.086   6.910  10.881  0.1575  0.7387  0.0491
  108OSM    C4S11093   7.140   7.019  10.601 -0.0774 -0.1333 -0.1458
  108OSM    H4S11094   7.032   6.998  10.594 -0.4876  1.6426  0.2849
  108OSM    C5S11095   7.206   7.104  10.527  0.2106 -0.1641 -0.4734
  108OSM    H5S11096   7.309   7.131  10.555  0.2171 -0.5913 -0.0701
  108OSM    C6S11097   7.146   7.168  10.408  0.4251 -0.1002  0.4761
  108OSM    H6S11098   7.166   7.277  10.408  0.1799 -0.0296 -1.1286
  108OSM    H6T11099   7.035   7.172  10.400  0.4954  2.1049  0.0495
  108OSM    C7S11100   7.185   7.103  10.272  0.0440  0.2208 -0.3730
  108OSM    H7S11101   7.170   6.993  10.283  1.0447 -0.3261 -3.4721
  108OSM    H7T11102   7.292   7.120  10.248  0.0845  0.5246  0.0075
  108OSM    C8S11103   7.095   7.146  10.154 -0.1890  0.5807 -1.2041
  108OSM    H8S11104   7.084   7.256  10.140  1.4739  0.7334 -1.5573
  108OSM    H8T11105   6.994   7.101  10.164 -0.1123  0.4042 -1.2243
  108OSM    C9S11106   7.138   7.095  10.020 -0.1319  0.0942  0.7862
  108OSM    H9S11107   7.131   6.987  10.045  0.6051 -0.5077 -1.4078
  108OSM    H9T11108   7.244   7.119   9.999  0.2188 -1.2925  0.8950
  108OSM   C10S11109   7.040   7.145   9.918 -0.1213  0.9674  0.3948
  108OSM   H10S11110   7.059   7.254   9.911  0.4373  0.8671  0.2761
  108OSM   H10T11111   6.933   7.123   9.938 -0.2797  1.0785 -0.3022
  108OSM   C11S11112   7.069   7.092   9.777  0.1376  0.2306  0.1664
  108OSM   H11S11113   7.041   6.985   9.774 -0.8493  0.4607 -2.7218
  108OSM   H11T11114   7.175   7.105   9.749  0.3653 -0.9816  0.4078
  108OSM   C12S11115   6.971   7.140   9.668  0.1951 -0.3338  0.4420
  108OSM   H12S11116   6.956   7.249   9.682  0.8855 -0.0855 -0.5905
  108OSM   H12T11117   6.875   7.086   9.684  0.5539 -1.1864 -0.1789
  108OSM   C13S11118   7.035   7.118   9.529 -0.1206 -0.0670 -0.3055
  108OSM   H13S11119   7.065   7.012   9.540  2.7199  0.7949  1.1739
  108OSM   H13T11120   7.125   7.181   9.513 -0.6040  0.0213 -3.2417
  108OSM   C14S11121   6.954   7.142   9.400 -0.6141  0.2091  0.2420
  108OSM   H14S11122   6.919   7.246   9.383 -1.5017  0.1513  1.6096
  108OSM   H14T11123   6.864   7.079   9.419 -1.7788  2.1324  1.4734
  108OSM   C15S11124   7.031   7.071   9.286 -0.2300  0.5173  0.3550
  108OSM   H15S11125   7.059   6.971   9.325  0.0044  0.2198 -0.5622
  108OSM   H15T11126   7.126   7.123   9.261  0.6885 -0.7466  1.1338
  108OSM   C16S11127   6.938   7.055   9.166  0.0283  0.2299  0.0398
  108OSM   H16S11128   6.902   7.154   9.129  2.9195  0.6894 -1.8674
  108OSM   H16T11129   6.855   6.984   9.188  0.1685  0.1004  0.1533
  108OSM   C17S11130   7.008   7.007   9.038  0.8643  0.2464  0.3015
  108OSM   H17S11131   7.049   6.910   9.074  1.3720  1.0117  1.8519
  108OSM   H17T11132   7.091   7.071   9.001  2.1702 -2.8567 -2.7678
  108OSM   C18S11133   6.901   6.978   8.928 -0.2213  0.1025 -0.3493
  108OSM   H18S11134   6.814   7.048   8.929 -0.2497  0.1106  2.3298
  108OSM   H18T11135   6.861   6.876   8.943  0.3464  0.2548  2.8193
  108OSM   H18U11136   6.944   6.980   8.825 -0.0500  0.6374 -0.2717
  108OSM    C1F11137   7.252   6.641  10.544 -0.4716 -0.5478  0.1271
  108OSM     OF11138   7.157   6.577  10.577 -0.3892 -0.0290  0.1300
  108OSM    C2F11139   7.359   6.601  10.438  0.3288 -0.4429  0.1114
  108OSM    H2F11140   7.337   6.496  10.408 -0.6019 -0.5541  1.1045
  108OSM    H2G11141   7.454   6.610  10.495 -0.0414  1.0715  0.5217
  108OSM    C3F11142   7.373   6.707  10.324  0.5001 -0.6333 -0.6099
  108OSM    H3F11143   7.458   6.685  10.256 -0.8968  0.3894 -2.8269
  108OSM    H3G11144   7.385   6.805  10.376  2.4115 -1.0498 -0.1721
  108OSM    C4F11145   7.247   6.731  10.236 -0.4081 -0.0957 -0.6322
  108OSM    H4F11146   7.265   6.808  10.158  0.4174 -2.9245 -3.4939
  108OSM    H4G11147   7.162   6.757  10.303 -1.1459  0.8150 -1.8752
  108OSM    C5F11148   7.191   6.603  10.165  0.5339 -0.4754  0.0567
  108OSM    H5F11149   7.089   6.625  10.125 -0.1261 -0.7903  1.4976
  108OSM    H5G11150   7.182   6.528  10.246 -2.3947  0.6047  0.8730
  108OSM    C6F11151   7.291   6.547  10.066  0.6443  0.3866  0.0933
  108OSM    H6F11152   7.231   6.465  10.020 -1.4210  0.5550  2.2995
  108OSM    H6G11153   7.377   6.512  10.126  0.4487  1.6401  1.1542
  108OSM    C7F11154   7.338   6.641   9.952  1.1862 -0.1143 -0.2027
  108OSM    H7F11155   7.424   6.592   9.901  1.9408  3.3281 -2.6027
  108OSM    H7G11156   7.378   6.731  10.003  1.1008  0.9071 -1.8606
  108OSM    C8F11157   7.222   6.677   9.856  0.7441 -0.1097  0.0034
  108OSM    H8F11158   7.133   6.707   9.915  0.3287  3.0416 -1.9921
  108OSM    H8G11159   7.190   6.589   9.796 -3.4739 -0.3631  2.2015
  108OSM    C9F11160   7.264   6.791   9.768  0.3188 -0.7870 -0.4893
  108OSM    H9F11161   7.275   6.885   9.823 -2.1619 -1.7196  1.8091
  108OSM   C10F11162   7.280   6.790   9.636 -0.6174 -0.1067  0.8256
  108OSM   H10F11163   7.307   6.880   9.579  1.5990  0.7215  3.0090
  108OSM   C11F11164   7.268   6.673   9.542  0.3932 -0.1313  0.1938
  108OSM   H11F11165   7.328   6.585   9.574  1.3886  0.6478  0.4937
  108OSM   H11G11166   7.298   6.704   9.439 -1.7017 -2.3201 -1.1872
  108OSM   C12F11167   7.121   6.630   9.527  0.0862 -0.6115 -0.3642
  108OSM   H12F11168   7.054   6.718   9.541  1.0188  0.2070 -0.8991
  108OSM   H12G11169   7.084   6.563   9.607 -0.8911  1.7076  1.2583
  108OSM   C13F11170   7.097   6.566   9.387 -0.3002  0.4808  0.0491
  108OSM   H13F11171   7.166   6.480   9.371 -0.7030  0.2211 -0.3280
  108OSM   H13G11172   7.114   6.652   9.318 -4.9510 -0.4330 -2.7283
  108OSM   C14F11173   6.955   6.528   9.370  0.7471  0.8541 -0.7314
  108OSM   H14F11174   6.891   6.614   9.399  0.7266 -0.0409  2.1771
  108OSM   H14G11175   6.917   6.456   9.446  0.4762  0.7064 -0.9993
  108OSM   C15F11176   6.917   6.473   9.229 -0.3366  0.6312  0.1715
  108OSM   H15F11177   6.808   6.451   9.226 -0.1114 -0.4227 -1.2977
  108OSM   H15G11178   6.976   6.379   9.226  0.7876  1.1941  2.4539
  108OSM   C16F11179   6.952   6.574   9.119 -0.4538  0.7664 -0.1053
  108OSM   H16F11180   7.063   6.579   9.113 -0.4883  0.4720 -1.1901
  108OSM   H16G11181   6.919   6.671   9.163 -0.8273  0.1885  0.9203
  108OSM   C17F11182   6.905   6.530   8.986 -0.3186 -0.0732  0.2528
  108OSM   H17F11183   6.952   6.433   8.960 -1.8830 -1.0465  0.8986
  108OSM   H17G11184   6.939   6.605   8.912  1.3272  0.4995  1.5224
  108OSM   C18F11185   6.749   6.533   8.980 -0.4960 -0.4730  0.4278
  108OSM   H18F11186   6.717   6.450   9.047 -0.0179 -0.5763  0.5352
  108OSM   H18G11187   6.714   6.517   8.876  2.5046 -0.8255 -0.6022
  108OSM   H18H11188   6.709   6.630   9.018 -2.1542  0.0844 -2.4487
  109OSM      N11189   3.824   5.538  10.804  0.3368 -0.1995 -0.0248
  109OSM    C1511190   3.714   5.471  10.885 -0.1653 -0.3338  0.4740
  109OSM   H15A11191   3.625   5.507  10.837  1.2691  1.2826 -1.1377
  109OSM   H15B11192   3.708   5.492  10.991 -1.5334 -1.9439  0.7566
  109OSM   H15C11193   3.714   5.364  10.872 -0.6287 -0.3988  0.9749
  109OSM    C1411194   3.954   5.529  10.876  1.2520  0.4281  0.0605
  109OSM   H14A11195   3.946   5.547  10.982  0.5742 -0.4292  0.1596
  109OSM   H14B11196   4.033   5.595  10.844 -0.8596  2.7732 -0.6771
  109OSM   H14C11197   3.984   5.426  10.867 -1.4701 -0.3613 -0.8710
  109OSM    C1311198   3.820   5.452  10.684  0.6059 -0.2730  0.3992
  109OSM   H13A11199   3.725   5.457  10.634  0.3079 -0.6439  0.9263
  109OSM   H13B11200   3.838   5.346  10.700  0.4221 -0.1042  1.7657
  109OSM   H13C11201   3.892   5.492  10.614  0.3633  0.2291  0.4332
  109OSM    C1211202   3.787   5.683  10.772  0.3874 -0.1870  0.4860
  109OSM   H12A11203   3.777   5.746  10.860  2.6189  4.0219 -1.9489
  109OSM   H12B11204   3.687   5.695  10.733  0.1326  0.5886  1.3219
  109OSM    C1111205   3.884   5.767  10.682 -0.3213  0.4931 -0.3030
  109OSM   H11A11206   3.826   5.857  10.653 -2.4646 -0.9727 -0.7589
  109OSM   H11B11207   3.904   5.704  10.592 -0.7338  1.0710 -0.8108
  109OSM      P11208   4.042   5.903  10.838 -0.2888 -0.3343  0.0523
  109OSM    O1311209   3.929   5.916  10.937  0.6513 -0.3897 -0.1882
  109OSM    O1411210   4.176   5.889  10.899 -0.4504 -0.5621 -0.2906
  109OSM    O1111211   4.038   6.029  10.742 -0.0380 -0.2502  0.4736
  109OSM    O1211212   4.007   5.792  10.742  0.0695  0.3547 -0.4049
  109OSM    C1S11213   4.107   6.032  10.614 -1.0183 -0.2340 -0.6373
  109OSM    H1S11214   4.180   5.949  10.603  2.8215  2.7187  0.6430
  109OSM    H1T11215   4.160   6.129  10.612 -1.8101  0.2017 -0.8376
  109OSM     NF11216   4.088   6.016  10.370 -0.2297  0.2706  0.3421
  109OSM    HNF11217   4.102   6.104  10.325 -0.1300  0.8506  1.4804
  109OSM    C2S11218   4.013   6.029  10.494  0.4985 -0.5190 -0.0042
  109OSM    H2S11219   3.933   5.953  10.504 -1.6262  1.3658 -1.6397
  109OSM    C3S11220   3.919   6.164  10.493  0.2036  0.5019  0.1483
  109OSM    H3S11221   3.977   6.258  10.493 -0.7901  1.1591 -1.3993
  109OSM     O311222   3.837   6.184  10.604  0.3397  0.5340  0.0290
  109OSM    HO311223   3.882   6.129  10.668  1.1849  2.5895  1.2955
  109OSM    C4S11224   3.828   6.164  10.371  0.2989 -0.1451 -0.2886
  109OSM    H4S11225   3.754   6.083  10.373  0.1120  0.0232 -0.4623
  109OSM    C5S11226   3.846   6.241  10.264  0.4025 -0.3998 -0.1041
  109OSM    H5S11227   3.928   6.314  10.256 -0.3713  0.5907  0.7491
  109OSM    C6S11228   3.755   6.228  10.147 -0.6546 -0.3002  0.2421
  109OSM    H6S11229   3.670   6.162  10.177  1.4876 -2.2651  2.3905
  109OSM    H6T11230   3.807   6.166  10.071 -0.1139  1.3636 -0.7905
  109OSM    C7S11231   3.704   6.363  10.090 -0.1200  0.1723 -0.2318
  109OSM    H7S11232   3.780   6.442  10.073 -0.5264  0.3839 -1.1103
  109OSM    H7T11233   3.639   6.401  10.171  0.8080 -1.2841  1.2704
  109OSM    C8S11234   3.616   6.331   9.970 -0.8496  0.0252  0.2669
  109OSM    H8S11235   3.533   6.265  10.002 -0.8502 -0.4029 -0.5993
  109OSM    H8T11236   3.683   6.263   9.913 -0.6624 -0.4630  1.0540
  109OSM    C9S11237   3.579   6.445   9.878 -0.0082 -0.0141 -0.5490
  109OSM    H9S11238   3.664   6.512   9.853 -0.3943 -0.3837 -3.1560
  109OSM    H9T11239   3.507   6.513   9.927  0.3304 -0.7386  1.0112
  109OSM   C10S11240   3.519   6.410   9.745  0.2208  0.5671  0.1891
  109OSM   H10S11241   3.584   6.354   9.676 -1.5682 -0.6685 -0.5773
  109OSM   H10T11242   3.505   6.505   9.690 -0.0015 -0.5260 -1.7208
  109OSM   C11S11243   3.391   6.330   9.751  0.1426  1.3462 -0.0837
  109OSM   H11S11244   3.323   6.377   9.825  1.7416  0.6316  1.9311
  109OSM   H11T11245   3.418   6.231   9.793  1.1579  1.2247 -0.9764
  109OSM   C12S11246   3.330   6.311   9.615  0.4285 -0.7554 -0.4280
  109OSM   H12S11247   3.294   6.411   9.585 -0.0587 -1.1680 -1.2477
  109OSM   H12T11248   3.235   6.254   9.623  0.0405 -0.0207  0.4056
  109OSM   C13S11249   3.426   6.246   9.511 -0.1227  0.4395 -0.5456
  109OSM   H13S11250   3.505   6.188   9.562 -1.4227 -0.0241  1.0321
  109OSM   H13T11251   3.485   6.313   9.445 -0.7209 -0.1109 -1.6581
  109OSM   C14S11252   3.360   6.145   9.418  0.4471  0.1110 -0.3792
  109OSM   H14S11253   3.294   6.192   9.342  0.1487 -0.0962 -0.2527
  109OSM   H14T11254   3.306   6.077   9.487 -0.0682  0.6650 -0.2247
  109OSM   C15S11255   3.457   6.065   9.341 -0.1328  0.4862 -0.4675
  109OSM   H15S11256   3.499   5.998   9.419 -1.3563  0.7210  0.4248
  109OSM   H15T11257   3.537   6.137   9.311  0.4639  0.2231  0.4402
  109OSM   C16S11258   3.382   5.991   9.232  0.6127  0.2795 -0.2156
  109OSM   H16S11259   3.311   6.057   9.178  2.1937  1.5819 -0.7865
  109OSM   H16T11260   3.307   5.931   9.288 -1.0975  2.1334 -0.3830
  109OSM   C17S11261   3.475   5.904   9.149 -0.8187 -0.1600  0.3112
  109OSM   H17S11262   3.426   5.808   9.123 -0.4742 -0.3554  0.3801
  109OSM   H17T11263   3.557   5.880   9.220 -0.5965 -1.2793 -0.3070
  109OSM   C18S11264   3.538   5.972   9.026  0.9266  0.5455 -0.0254
  109OSM   H18S11265   3.458   5.947   8.953 -0.9617  0.3315  1.9916
  109OSM   H18T11266   3.627   5.921   8.984 -0.9537 -0.8518 -2.6130
  109OSM   H18U11267   3.548   6.082   9.041 -1.6578  0.8836 -0.1787
  109OSM    C1F11268   4.151   5.903  10.330  0.2856  0.3093 -0.1285
  109OSM     OF11269   4.120   5.797  10.387 -0.4881 -0.2596 -0.1010
  109OSM    C2F11270   4.251   5.918  10.223 -0.2447 -0.5888  0.2026
  109OSM    H2F11271   4.340   5.967  10.268  0.6638 -2.1865  0.1981
  109OSM    H2G11272   4.224   5.994  10.147  1.9723 -0.1906 -0.2566
  109OSM    C3F11273   4.284   5.790  10.144 -0.8262 -0.1561 -0.6784
  109OSM    H3F11274   4.307   5.702  10.209  0.0809  0.5687 -0.0008
  109OSM    H3G11275   4.377   5.803  10.085  0.4013 -1.0880  0.9413
  109OSM    C4F11276   4.169   5.746  10.053 -0.1977  0.5474 -0.4834
  109OSM    H4F11277   4.083   5.723  10.121  0.8822 -0.7008  0.5317
  109OSM    H4G11278   4.200   5.650  10.006  0.5071  1.4843 -1.9807
  109OSM    C5F11279   4.124   5.845   9.947 -0.4966  0.2385  0.5628
  109OSM    H5F11280   4.060   5.924   9.992  2.1587  1.5597  2.2762
  109OSM    H5G11281   4.059   5.800   9.868  0.6363  0.6387 -0.6316
  109OSM    C6F11282   4.250   5.914   9.882  0.3218  1.2523  0.6186
  109OSM    H6F11283   4.316   5.832   9.846  0.5875  1.3547  0.8705
  109OSM    H6G11284   4.317   5.964   9.955  2.5141 -4.6121  3.2322
  109OSM    C7F11285   4.205   6.004   9.765  0.3989 -0.1788 -0.6821
  109OSM    H7F11286   4.171   5.946   9.677  2.5845  0.2004 -1.8316
  109OSM    H7G11287   4.299   6.047   9.725  0.4882 -0.9525 -1.3208
  109OSM    C8F11288   4.112   6.128   9.807 -0.3040  0.2150 -0.1299
  109OSM    H8F11289   4.164   6.177   9.892  1.3914 -1.0395 -0.3847
  109OSM    H8G11290   4.012   6.097   9.842 -0.7216  1.2030 -0.4225
  109OSM    C9F11291   4.107   6.223   9.698  0.2480 -0.1162  0.6164
  109OSM    H9F11292   4.202   6.274   9.676  0.0190  0.0359 -0.0468
  109OSM   C10F11293   4.013   6.246   9.609  1.4172  0.9968 -0.8261
  109OSM   H10F11294   4.029   6.324   9.532  0.4821  0.1785 -1.8827
  109OSM   C11F11295   3.878   6.173   9.615 -0.8347 -0.8803 -1.0871
  109OSM   H11F11296   3.799   6.247   9.640  0.9541  0.3372  1.3936
  109OSM   H11G11297   3.871   6.096   9.695  0.5715  0.8720  0.8349
  109OSM   C12F11298   3.851   6.109   9.475 -0.6832  0.4116  0.9624
  109OSM   H12F11299   3.867   6.174   9.386  1.1509  0.1308  1.0469
  109OSM   H12G11300   3.747   6.072   9.476 -1.0528  1.2451 -1.3483
  109OSM   C13F11301   3.953   5.986   9.449  0.0899 -0.6847  0.0694
  109OSM   H13F11302   3.945   5.910   9.530  1.8256  0.0019  0.9413
  109OSM   H13G11303   4.058   6.022   9.446 -0.0908 -0.1213  0.3090
  109OSM   C14F11304   3.948   5.914   9.316  0.4267  0.3379 -0.2539
  109OSM   H14F11305   3.945   5.994   9.239 -0.5104 -0.9297 -1.6025
  109OSM   H14G11306   3.855   5.855   9.302 -1.4890  2.5622  2.1085
  109OSM   C15F11307   4.070   5.823   9.282  0.4848  0.5011 -0.0248
  109OSM   H15F11308   4.082   5.750   9.364  1.8772  1.6147  0.8032
  109OSM   H15G11309   4.166   5.879   9.277  0.2489  0.8646 -0.5761
  109OSM   C16F11310   4.054   5.747   9.146  0.3589 -0.0552 -0.1357
  109OSM   H16F11311   3.974   5.670   9.153  0.3632  0.0414  1.2475
  109OSM   H16G11312   4.147   5.690   9.126 -0.7206 -1.4032 -1.5108
  109OSM   C17F11313   4.021   5.835   9.022  0.4465 -0.3783 -0.1788
  109OSM   H17F11314   3.924   5.890   9.022  0.2154 -0.7830 -0.7299
  109OSM   H17G11315   4.014   5.759   8.942 -1.5655 -1.3416  0.8401
  109OSM   C18F11316   4.131   5.943   9.005  0.0219  1.1376  0.1156
  109OSM   H18F11317   4.144   5.999   9.100 -0.0065 -1.6479  1.8918
  109OSM   H18G11318   4.085   6.012   8.931  1.1906  1.0139 -0.7486
  109OSM   H18H11319   4.226   5.897   8.972 -0.9263 -0.9616  0.1512
  110OSM      N11320   4.691   5.617  11.126  0.8195 -0.5748 -0.5122
  110OSM    C1511321   4.565   5.667  11.076 -0.0046 -0.2151  0.2517
  110OSM   H15A11322   4.557   5.775  11.080 -3.1260 -0.3453  0.4266
  110OSM   H15B11323   4.483   5.629  11.135 -1.1981 -1.0935 -1.8429
  110OSM   H15C11324   4.538   5.628  10.979 -0.5173  4.7118 -1.9307
  110OSM    C1411325   4.751   5.720  11.214 -0.2662  0.9206  0.3990
  110OSM   H14A11326   4.850   5.693  11.248 -0.8353  0.0499  1.4291
  110OSM   H14B11327   4.703   5.730  11.311  2.8655 -0.2822  2.2490
  110OSM   H14C11328   4.769   5.819  11.176  1.0560  1.1510  1.5063
  110OSM    C1311329   4.658   5.500  11.203 -0.3735  0.6912 -0.8391
  110OSM   H13A11330   4.748   5.449  11.233 -0.5329 -0.0705 -1.6230
  110OSM   H13B11331   4.595   5.432  11.147 -1.8097 -1.0113  2.5368
  110OSM   H13C11332   4.599   5.506  11.293  1.6694  0.1003  0.6130
  110OSM    C1211333   4.772   5.589  11.002 -0.0646  0.6672  0.4106
  110OSM   H12A11334   4.800   5.673  10.940  1.9869  0.4650  0.9992
  110OSM   H12B11335   4.715   5.526  10.935  1.8958 -1.5376  0.6878
  110OSM    C1111336   4.914   5.518  11.021 -0.1742  0.2555 -0.5533
  110OSM   H11A11337   4.973   5.580  11.093  0.9382 -1.0915 -0.2800
  110OSM   H11B11338   4.964   5.514  10.922  0.5034  1.8540 -0.3144
  110OSM      P11339   4.877   5.260  11.006 -0.2546 -0.2168 -0.0136
  110OSM    O1311340   5.012   5.196  11.001 -0.5660 -0.8686  0.3397
  110OSM    O1411341   4.757   5.190  11.057 -0.1376  0.4071  0.1501
  110OSM    O1111342   4.857   5.302  10.857 -0.0317 -0.0817 -0.3183
  110OSM    O1211343   4.897   5.392  11.081 -0.1139 -0.3454 -0.1962
  110OSM    C1S11344   4.958   5.299  10.756 -0.0888  0.0384 -1.3486
  110OSM    H1S11345   5.008   5.200  10.766  0.4335  0.2805 -1.4974
  110OSM    H1T11346   5.036   5.377  10.770 -1.0211  0.9538 -1.1279
  110OSM     NF11347   5.010   5.294  10.525  0.1691 -0.0042  0.8614
  110OSM    HNF11348   5.036   5.374  10.472 -1.9578  0.3323  0.2073
  110OSM    C2S11349   4.901   5.310  10.616  0.5438 -0.6878 -1.1600
  110OSM    H2S11350   4.820   5.233  10.615  0.8489 -1.2078  2.2513
  110OSM    C3S11351   4.823   5.450  10.605  0.2672  0.3406 -0.0884
  110OSM    H3S11352   4.890   5.539  10.609  0.1425  0.3941  1.4371
  110OSM     O311353   4.725   5.470  10.704  0.0717 -0.2847  0.1326
  110OSM    HO311354   4.768   5.418  10.772 -0.6578  2.2324  2.7659
  110OSM    C4S11355   4.760   5.453  10.465  0.7783  0.6418 -0.3382
  110OSM    H4S11356   4.803   5.526  10.394  0.0713 -0.3090 -1.8075
  110OSM    C5S11357   4.657   5.381  10.424 -0.6745 -0.2684  0.2912
  110OSM    H5S11358   4.613   5.301  10.486 -1.0689 -0.8303 -0.6901
  110OSM    C6S11359   4.600   5.391  10.282  0.6292  0.2504 -0.4304
  110OSM    H6S11360   4.518   5.462  10.303  0.8089  0.2970  0.1189
  110OSM    H6T11361   4.546   5.295  10.272  1.0922 -0.4044  2.4998
  110OSM    C7S11362   4.682   5.436  10.160  0.0655 -0.2632  0.1788
  110OSM    H7S11363   4.773   5.372  10.153  0.5029  0.3541  0.0886
  110OSM    H7T11364   4.728   5.535  10.185  0.2689  0.1902 -1.8448
  110OSM    C8S11365   4.603   5.436  10.034  0.2693 -0.7345  0.1620
  110OSM    H8S11366   4.499   5.474  10.039  0.5181 -0.1454  1.4262
  110OSM    H8T11367   4.595   5.330  10.002 -2.7433  0.1104 -2.3534
  110OSM    C9S11368   4.684   5.514   9.922 -0.2453 -0.2512 -0.7142
  110OSM    H9S11369   4.790   5.480   9.920  0.6710  2.3636 -1.7186
  110OSM    H9T11370   4.686   5.622   9.950  0.2107  0.1214 -2.0899
  110OSM   C10S11371   4.626   5.498   9.778  0.0902  0.4163 -0.1317
  110OSM   H10S11372   4.535   5.561   9.776  1.0941  1.9588  0.7842
  110OSM   H10T11373   4.603   5.390   9.770 -0.8758  0.5266  0.8567
  110OSM   C11S11374   4.723   5.547   9.676  0.4607 -0.0190  0.0728
  110OSM   H11S11375   4.771   5.629   9.732 -0.4121 -0.7758  2.0129
  110OSM   H11T11376   4.677   5.595   9.587 -0.4116 -0.4377  0.2861
  110OSM   C12S11377   4.814   5.428   9.640  0.1966 -0.6134 -0.4926
  110OSM   H12S11378   4.746   5.364   9.581  1.1164 -1.5422 -0.5744
  110OSM   H12T11379   4.855   5.379   9.731 -0.8677 -0.6119  0.0036
  110OSM   C13S11380   4.933   5.477   9.551 -0.0207  0.1425 -0.2161
  110OSM   H13S11381   5.007   5.401   9.584  0.6338  1.1877  0.7895
  110OSM   H13T11382   4.972   5.570   9.596  2.0066 -1.3388  1.2532
  110OSM   C14S11383   4.913   5.483   9.399 -0.1195  0.4258  0.2718
  110OSM   H14S11384   4.903   5.379   9.362  2.3371  0.8472 -1.8858
  110OSM   H14T11385   5.001   5.526   9.346  1.9308 -0.6986  2.5530
  110OSM   C15S11386   4.786   5.567   9.350  0.8114  0.5477 -0.1622
  110OSM   H15S11387   4.785   5.672   9.387 -0.3179 -0.2624  2.3584
  110OSM   H15T11388   4.697   5.516   9.394  1.0516  1.0047  0.8791
  110OSM   C16S11389   4.781   5.565   9.198 -0.1612 -0.3677 -0.0499
  110OSM   H16S11390   4.674   5.561   9.171 -0.4965  1.2595  0.9177
  110OSM   H16T11391   4.834   5.481   9.149  0.7141 -0.6793  1.3496
  110OSM   C17S11392   4.842   5.694   9.148 -0.6859  0.2972  0.2428
  110OSM   H17S11393   4.937   5.715   9.201 -0.2860 -2.3973  0.7584
  110OSM   H17T11394   4.791   5.786   9.182 -2.2031  0.1808 -1.5411
  110OSM   C18S11395   4.867   5.697   8.999  0.5004 -0.1819 -0.2369
  110OSM   H18S11396   4.888   5.804   8.974 -0.9576  0.7536  2.1868
  110OSM   H18T11397   4.773   5.668   8.948  0.7290 -2.2051  0.4150
  110OSM   H18U11398   4.945   5.625   8.965  1.3263  0.4375  0.3092
  110OSM    C1F11399   5.070   5.174  10.510 -0.1456  0.6645  0.2421
  110OSM     OF11400   5.014   5.071  10.552 -0.0029  0.5853 -0.3883
  110OSM    C2F11401   5.200   5.173  10.426  0.2849 -0.3493 -0.0986
  110OSM    H2F11402   5.277   5.216  10.493  1.0402 -0.3728 -0.9414
  110OSM    H2G11403   5.186   5.245  10.343  1.2707  0.9586  0.8201
  110OSM    C3F11404   5.230   5.041  10.356  0.6901  0.6971  0.4453
  110OSM    H3F11405   5.255   4.962  10.430  2.1799  1.1762  0.4840
  110OSM    H3G11406   5.319   5.060  10.292 -0.2123  0.4816 -0.9053
  110OSM    C4F11407   5.141   4.987  10.241 -0.4783  0.2027 -0.1517
  110OSM    H4F11408   5.142   5.055  10.154  2.7963  1.2899  0.5769
  110OSM    H4G11409   5.033   4.992  10.269 -0.5694 -1.8817  0.0514
  110OSM    C5F11410   5.178   4.842  10.206  0.1072  0.5143  0.9047
  110OSM    H5F11411   5.179   4.766  10.288  1.4124 -1.4250 -0.7995
  110OSM    H5G11412   5.281   4.843  10.165 -0.4686  3.0667 -0.6598
  110OSM    C6F11413   5.092   4.781  10.097 -1.0440  0.3759  0.3829
  110OSM    H6F11414   5.084   4.844  10.005 -1.9231 -0.5351 -0.1869
  110OSM    H6G11415   4.993   4.790  10.146 -0.6078  1.1437  1.1640
  110OSM    C7F11416   5.150   4.644  10.055  0.4009 -0.0900 -0.1019
  110OSM    H7F11417   5.136   4.575  10.141 -0.4689  0.8229  0.5025
  110OSM    H7G11418   5.256   4.673  10.037 -0.1575 -0.0278 -4.3069
  110OSM    C8F11419   5.087   4.567   9.935  0.1106 -1.3138 -0.5737
  110OSM    H8F11420   5.047   4.642   9.864  1.9606 -1.0446 -1.3995
  110OSM    H8G11421   5.000   4.508   9.970 -0.4893 -1.8789 -2.8196
  110OSM    C9F11422   5.183   4.475   9.869 -0.6636  0.4645  0.5879
  110OSM    H9F11423   5.223   4.390   9.927  0.1919 -0.3738 -1.1685
  110OSM   C10F11424   5.217   4.471   9.737  0.2022 -0.9178 -1.2203
  110OSM   H10F11425   5.286   4.389   9.711  0.2491 -0.9798 -0.9063
  110OSM   C11F11426   5.172   4.560   9.621  0.0674 -0.2403 -1.0554
  110OSM   H11F11427   5.234   4.561   9.529 -1.2205 -0.1114 -1.9468
  110OSM   H11G11428   5.160   4.662   9.664 -0.5683 -0.4068 -0.8199
  110OSM   C12F11429   5.024   4.524   9.582 -0.2469  0.0108 -0.0053
  110OSM   H12F11430   4.957   4.500   9.668 -1.3380  1.2584 -0.4638
  110OSM   H12G11431   5.033   4.423   9.538  1.8244 -0.1582  0.6947
  110OSM   C13F11432   4.968   4.635   9.501  0.5910  0.4188  0.5940
  110OSM   H13F11433   5.041   4.661   9.421  2.0041 -0.0227  1.7200
  110OSM   H13G11434   4.948   4.726   9.563  3.6424  1.2619  0.4799
  110OSM   C14F11435   4.837   4.597   9.433 -0.1236  0.3149 -0.0296
  110OSM   H14F11436   4.750   4.602   9.502 -1.3880  1.6001 -1.6536
  110OSM   H14G11437   4.841   4.492   9.397  0.9827  0.5386 -0.5903
  110OSM   C15F11438   4.811   4.691   9.314 -0.1374  0.6303 -0.1641
  110OSM   H15F11439   4.899   4.693   9.246 -1.0522 -1.6879 -1.5383
  110OSM   H15G11440   4.790   4.797   9.339  0.6162  0.7029  0.1842
  110OSM   C16F11441   4.696   4.635   9.217 -0.4516  0.2334  0.0917
  110OSM   H16F11442   4.606   4.608   9.276  0.3496 -1.7091  0.4819
  110OSM   H16G11443   4.744   4.548   9.168  0.5822 -0.0313  1.5063
  110OSM   C17F11444   4.650   4.747   9.120  0.0356 -0.6125  0.4021
  110OSM   H17F11445   4.740   4.804   9.089 -1.3773  1.1771 -0.5872
  110OSM   H17G11446   4.589   4.824   9.171 -0.4041 -0.5732 -0.1726
  110OSM   C18F11447   4.567   4.704   8.990  0.0918  0.3941 -0.2688
  110OSM   H18F11448   4.638   4.638   8.935 -0.7223 -1.3892  0.7353
  110OSM   H18G11449   4.536   4.797   8.937  0.9062  1.3201  0.8184
  110OSM   H18H11450   4.470   4.658   9.017  0.1690  0.7226  0.6002
  111OSM      N11451   5.639   2.303  11.131  0.1242  0.0487 -0.3043
  111OSM    C1511452   5.777   2.251  11.104  1.0900  0.1150  0.7203
  111OSM   H15A11453   5.767   2.167  11.037 -2.8987  0.7284  0.2779
  111OSM   H15B11454   5.840   2.225  11.188  1.3588  0.4565  0.6273
  111OSM   H15C11455   5.823   2.333  11.051 -0.9606  0.7754 -0.1331
  111OSM    C1411456   5.650   2.428  11.216  0.2006 -0.3061 -0.0360
  111OSM   H14A11457   5.701   2.414  11.310  1.0183  0.7965 -0.3043
  111OSM   H14B11458   5.551   2.467  11.238 -0.4009 -1.0397 -1.3274
  111OSM   H14C11459   5.707   2.504  11.165  1.6669  0.2766  2.3311
  111OSM    C1311460   5.575   2.335  11.001  0.7492  0.4494  0.2795
  111OSM   H13A11461   5.565   2.245  10.941 -1.8635  0.4122  0.6388
  111OSM   H13B11462   5.625   2.414  10.946 -0.2363 -0.0940 -1.5068
  111OSM   H13C11463   5.474   2.367  11.021  0.6992 -0.6648  1.9692
  111OSM    C1211464   5.562   2.199  11.206  0.7062  0.8174 -0.1598
  111OSM   H12A11465   5.466   2.242  11.229  1.2982  2.6885 -1.0144
  111OSM   H12B11466   5.604   2.182  11.304 -2.1644 -2.1799  0.7224
  111OSM    C1111467   5.531   2.061  11.136 -0.3312 -0.2303 -0.0397
  111OSM   H11A11468   5.487   1.990  11.210  1.2165  1.9626  3.2555
  111OSM   H11B11469   5.624   2.011  11.101 -1.6176 -2.1512 -0.9200
  111OSM      P11470   5.301   2.112  11.033  0.2939 -0.0632  0.2514
  111OSM    O1311471   5.233   2.006  11.112  0.2992  0.0030 -0.1072
  111OSM    O1411472   5.278   2.246  11.092  0.0599 -0.2400 -0.5102
  111OSM    O1111473   5.258   2.113  10.883  0.3717  0.1630  0.1318
  111OSM    O1211474   5.451   2.074  11.023 -0.2113  0.0287 -0.0249
  111OSM    C1S11475   5.260   2.227  10.792 -0.2201  0.5792  0.3803
  111OSM    H1S11476   5.366   2.250  10.770  0.2592 -0.6626  1.2778
  111OSM    H1T11477   5.216   2.315  10.844 -0.2623  1.6984 -1.4892
  111OSM     NF11478   5.194   2.301  10.567  1.0879 -0.0253  0.1177
  111OSM    HNF11479   5.124   2.372  10.558  1.3608  0.2159 -0.1135
  111OSM    C2S11480   5.177   2.195  10.661 -0.8783 -0.1741  0.5438
  111OSM    H2S11481   5.221   2.100  10.622 -2.7281 -0.1371 -1.8176
  111OSM    C3S11482   5.027   2.167  10.685 -0.0526  0.1022 -0.3899
  111OSM    H3S11483   4.972   2.254  10.728  0.4825 -0.3604  1.3022
  111OSM     O311484   5.007   2.068  10.787  0.2331  0.4830  0.7535
  111OSM    HO311485   5.096   2.057  10.822  1.1514 -0.4988 -1.6328
  111OSM    C4S11486   4.946   2.113  10.574  0.6018 -0.0516  0.8770
  111OSM    H4S11487   4.968   2.012  10.536 -0.9583 -0.9438  2.1835
  111OSM    C5S11488   4.846   2.179  10.518  0.3998 -0.3360  0.4464
  111OSM    H5S11489   4.817   2.278  10.557 -0.8713 -0.9013  0.9735
  111OSM    C6S11490   4.772   2.130  10.398 -0.5036 -0.0306  0.6459
  111OSM    H6S11491   4.693   2.060  10.433  0.0410 -0.2294  1.5074
  111OSM    H6T11492   4.849   2.079  10.335  1.3749  0.5499  2.3789
  111OSM    C7S11493   4.721   2.241  10.302 -0.1645 -0.2525  0.2223
  111OSM    H7S11494   4.806   2.307  10.274 -1.3769  1.3168  0.0793
  111OSM    H7T11495   4.667   2.309  10.371 -0.8359  1.5582 -1.9632
  111OSM    C8S11496   4.635   2.195  10.189 -0.4523  0.3715  0.1100
  111OSM    H8S11497   4.621   2.274  10.112  1.8730 -0.6359 -1.4363
  111OSM    H8T11498   4.535   2.162  10.226  0.4163 -1.2024  1.1696
  111OSM    C9S11499   4.687   2.063  10.113 -0.4252  0.9843  0.2996
  111OSM    H9S11500   4.665   1.985  10.189 -0.4860  1.5080  0.8263
  111OSM    H9T11501   4.798   2.064  10.106 -0.2820  1.2434  2.1384
  111OSM   C10S11502   4.611   2.036   9.979  0.3544 -0.7185  0.3984
  111OSM   H10S11503   4.502   2.028   9.998  0.2902  1.4446  1.1419
  111OSM   H10T11504   4.642   1.935   9.944  1.2011 -0.6661  0.9494
  111OSM   C11S11505   4.652   2.140   9.875  1.0468  0.6127  0.3101
  111OSM   H11S11506   4.763   2.139   9.867  1.2370 -0.4860  2.2094
  111OSM   H11T11507   4.618   2.244   9.896  1.1305  0.4138  1.5254
  111OSM   C12S11508   4.586   2.103   9.740  0.8895  0.5091  0.1652
  111OSM   H12S11509   4.477   2.122   9.750  0.4046 -1.9844  0.3282
  111OSM   H12T11510   4.598   1.996   9.713  0.1057  0.2071  0.9682
  111OSM   C13S11511   4.633   2.181   9.616  0.2185  0.2251 -0.3444
  111OSM   H13S11512   4.737   2.146   9.600 -0.2581 -0.6779 -1.6485
  111OSM   H13T11513   4.627   2.290   9.640  0.1128 -0.2297  1.8943
  111OSM   C14S11514   4.542   2.159   9.491  0.2504  0.6857 -0.9775
  111OSM   H14S11515   4.439   2.139   9.527  1.1039 -0.7021  0.8502
  111OSM   H14T11516   4.574   2.067   9.438  0.9315  1.1807 -1.4468
  111OSM   C15S11517   4.545   2.273   9.393 -0.1312 -0.7089  0.4543
  111OSM   H15S11518   4.496   2.354   9.451 -3.6266 -2.7991  0.7021
  111OSM   H15T11519   4.490   2.256   9.298  3.9220 -2.6743 -1.8222
  111OSM   C16S11520   4.685   2.304   9.348  0.2028 -0.3991  0.1040
  111OSM   H16S11521   4.739   2.209   9.328  0.7305 -0.7777  2.9252
  111OSM   H16T11522   4.729   2.362   9.432 -2.2728  1.3323  0.3114
  111OSM   C17S11523   4.677   2.405   9.226 -0.5657  0.7344 -0.6697
  111OSM   H17S11524   4.661   2.508   9.263 -0.7772 -0.3309  2.5010
  111OSM   H17T11525   4.604   2.373   9.149 -0.0744  2.5040 -1.9185
  111OSM   C18S11526   4.808   2.417   9.143  0.9785  0.2145 -0.0758
  111OSM   H18S11527   4.788   2.486   9.058 -2.1916 -0.7281 -0.2527
  111OSM   H18T11528   4.836   2.325   9.088 -2.6962 -0.6227 -0.8461
  111OSM   H18U11529   4.886   2.456   9.212  0.0591  0.8869  0.6149
  111OSM    C1F11530   5.310   2.334  10.502 -0.1125 -1.0338  0.1763
  111OSM     OF11531   5.424   2.299  10.539 -0.5270 -0.7093  0.7974
  111OSM    C2F11532   5.294   2.428  10.387 -0.3148 -0.2390 -0.3275
  111OSM    H2F11533   5.286   2.534  10.419  0.3256 -0.3667  0.2748
  111OSM    H2G11534   5.196   2.399  10.343 -1.2656 -0.1914  1.6779
  111OSM    C3F11535   5.405   2.419  10.283 -0.5113  0.8487 -0.0045
  111OSM    H3F11536   5.417   2.319  10.237 -0.8620 -0.1636  1.9871
  111OSM    H3G11537   5.505   2.441  10.327 -1.1516 -0.4686  2.2706
  111OSM    C4F11538   5.372   2.515  10.170  0.4980  0.3632  0.0065
  111OSM    H4F11539   5.393   2.619  10.202  0.5151  1.1505 -2.3445
  111OSM    H4G11540   5.266   2.501  10.139  0.3883  0.3335  0.3824
  111OSM    C5F11541   5.456   2.500  10.043 -0.5253 -0.0754 -0.8200
  111OSM    H5F11542   5.455   2.393  10.011  0.4987 -0.0381 -0.9832
  111OSM    H5G11543   5.561   2.524  10.070 -0.6894 -0.3369  0.0943
  111OSM    C6F11544   5.405   2.594   9.933 -0.0193 -0.4032  0.0506
  111OSM    H6F11545   5.401   2.692   9.985  0.6965 -0.2707 -0.1377
  111OSM    H6G11546   5.306   2.556   9.899  1.2447 -2.3154 -1.7197
  111OSM    C7F11547   5.508   2.590   9.809 -0.4911 -0.0745 -0.4068
  111OSM    H7F11548   5.491   2.483   9.784 -1.3778 -0.1042  0.2543
  111OSM    H7G11549   5.608   2.610   9.853 -0.8470 -0.0154  0.3980
  111OSM    C8F11550   5.484   2.677   9.684  0.2116  0.2040 -0.5626
  111OSM    H8F11551   5.385   2.646   9.644 -1.4797  1.5586  2.2336
  111OSM    H8G11552   5.564   2.649   9.612  0.2415  0.9601 -0.8319
  111OSM    C9F11553   5.494   2.823   9.704  0.3860 -0.5445  0.1702
  111OSM    H9F11554   5.537   2.858   9.800 -1.9337  0.1063  1.0478
  111OSM   C10F11555   5.466   2.924   9.615  0.6728  0.3250  0.4981
  111OSM   H10F11556   5.485   3.030   9.634 -0.3417  0.7173 -0.5485
  111OSM   C11F11557   5.408   2.907   9.471 -0.0903 -0.3355 -0.6518
  111OSM   H11F11558   5.315   2.968   9.461  1.2299  1.6530 -1.4147
  111OSM   H11G11559   5.377   2.802   9.452 -0.8344 -0.1450 -0.5171
  111OSM   C12F11560   5.498   2.953   9.357 -0.4611  0.1705 -0.9397
  111OSM   H12F11561   5.598   2.907   9.366 -0.5900 -0.1627 -1.2171
  111OSM   H12G11562   5.519   3.062   9.359 -1.1667  0.3103  0.4020
  111OSM   C13F11563   5.436   2.916   9.226  0.3839  0.6374 -0.0542
  111OSM   H13F11564   5.350   2.985   9.207 -2.5038 -3.0074 -1.4569
  111OSM   H13G11565   5.406   2.809   9.223  0.8668  0.4571  1.0581
  111OSM   C14F11566   5.527   2.926   9.100  0.1417  0.2742 -0.0275
  111OSM   H14F11567   5.472   2.892   9.010 -0.3520  1.2246 -0.1025
  111OSM   H14G11568   5.615   2.859   9.105  0.3650  0.6055  0.7349
  111OSM   C15F11569   5.574   3.062   9.059 -0.1513  0.7290 -0.6078
  111OSM   H15F11570   5.642   3.106   9.135 -0.9588  3.2871 -1.2625
  111OSM   H15G11571   5.479   3.119   9.050  0.4549  1.7722 -0.4696
  111OSM   C16F11572   5.646   3.067   8.923 -0.2791  0.0735 -0.6145
  111OSM   H16F11573   5.583   3.022   8.842 -2.8724  1.4038  0.5411
  111OSM   H16G11574   5.734   2.999   8.928  0.3951  0.8139 -1.8992
  111OSM   C17F11575   5.702   3.209   8.893  0.1642 -0.7494 -0.3026
  111OSM   H17F11576   5.804   3.194   8.851  0.4031 -0.8273  0.2999
  111OSM   H17G11577   5.715   3.276   8.981  0.9855  2.6631 -2.8095
  111OSM   C18F11578   5.636   3.297   8.790  0.4300  0.1921 -0.3163
  111OSM   H18F11579   5.695   3.384   8.755 -1.3692  1.0400 -1.3638
  111OSM   H18G11580   5.542   3.346   8.824  0.5465  1.3039 -1.5366
  111OSM   H18H11581   5.613   3.225   8.708 -0.7848 -1.0445  1.0384
  112OSM      N11582   6.680   5.341  11.056  0.6211  0.1976  0.0976
  112OSM    C1511583   6.584   5.456  11.082  0.1625 -0.1356 -0.1313
  112OSM   H15A11584   6.604   5.509  11.174  0.0758  0.2369 -0.3249
  112OSM   H15B11585   6.484   5.416  11.081  0.2318 -0.4689  1.9963
  112OSM   H15C11586   6.592   5.528  11.001 -0.5056 -0.9145 -0.9124
  112OSM    C1411587   6.653   5.277  10.922 -0.0187 -0.1161 -0.3510
  112OSM   H14A11588   6.546   5.262  10.912 -0.2087 -0.6952  2.0100
  112OSM   H14B11589   6.708   5.185  10.907  0.1774  0.0510 -0.6818
  112OSM   H14C11590   6.685   5.335  10.836  1.1224 -0.6743 -0.3161
  112OSM    C1311591   6.815   5.395  11.036 -0.1321 -0.1102  0.0185
  112OSM   H13A11592   6.871   5.416  11.126  0.2305 -2.7207  0.4774
  112OSM   H13B11593   6.818   5.488  10.981  1.4411 -0.0398  0.1715
  112OSM   H13C11594   6.872   5.327  10.974  0.8524  0.3909  0.3418
  112OSM    C1211595   6.658   5.237  11.165 -0.9284  0.7377  0.4454
  112OSM   H12A11596   6.647   5.288  11.259 -0.9530 -1.6449  1.8211
  112OSM   H12B11597   6.752   5.182  11.162 -0.8188  0.8495 -3.2598
  112OSM    C1111598   6.537   5.149  11.168  0.2562 -0.2705 -0.4796
  112OSM   H11A11599   6.554   5.087  11.259 -0.7320  0.3602  0.1561
  112OSM   H11B11600   6.536   5.096  11.070  1.1538  0.1269 -0.7135
  112OSM      P11601   6.298   5.229  11.080 -0.0579 -0.5023 -0.1895
  112OSM    O1311602   6.168   5.244  11.145  0.6581  0.1364  0.1069
  112OSM    O1411603   6.339   5.327  10.975  0.9030 -0.4237  0.3641
  112OSM    O1111604   6.300   5.091  11.000 -0.6789  0.2263 -0.2136
  112OSM    O1211605   6.415   5.222  11.182  0.1775 -0.0753 -0.0173
  112OSM    C1S11606   6.182   5.015  10.965 -0.1170 -0.3575 -0.6447
  112OSM    H1S11607   6.094   5.046  11.026  0.8590 -1.2332  1.2710
  112OSM    H1T11608   6.197   4.907  10.986  0.4388 -0.3305 -0.8939
  112OSM     NF11609   6.033   4.957  10.778 -0.3605 -0.2296  0.3698
  112OSM    HNF11610   6.048   4.874  10.725 -0.5559 -1.8515  2.6948
  112OSM    C2S11611   6.153   5.032  10.811 -0.0725 -0.4442  0.2140
  112OSM    H2S11612   6.130   5.138  10.786  2.5700  0.5182  1.4483
  112OSM    C3S11613   6.278   4.990  10.721 -0.2062  0.8190  0.4203
  112OSM    H3S11614   6.317   4.897  10.769  0.4008 -0.1292 -1.7881
  112OSM     O311615   6.393   5.070  10.743 -0.3962  0.2297  0.6179
  112OSM    HO311616   6.392   5.098  10.835  1.9596  0.6068  0.5834
  112OSM    C4S11617   6.252   4.977  10.574 -0.3711 -0.2898 -0.6150
  112OSM    H4S11618   6.255   4.872  10.541  2.9762 -0.8405  1.0678
  112OSM    C5S11619   6.249   5.078  10.483  0.6497  0.1230  0.2269
  112OSM    H5S11620   6.280   5.175  10.524  0.8971 -0.1917  0.8099
  112OSM    C6S11621   6.199   5.050  10.342  0.0319 -0.5659  0.7960
  112OSM    H6S11622   6.192   4.943  10.313 -1.1870 -0.2912  0.0067
  112OSM    H6T11623   6.274   5.097  10.274 -0.7498 -3.3746 -2.3039
  112OSM    C7S11624   6.061   5.107  10.303  0.6014  0.5189  0.1064
  112OSM    H7S11625   6.055   5.218  10.310  0.0476  0.4734  0.4257
  112OSM    H7T11626   5.986   5.066  10.373  0.1022  2.5450  0.8475
  112OSM    C8S11627   6.029   5.063  10.160 -0.0615 -0.5435 -0.2519
  112OSM    H8S11628   6.012   4.953  10.170  2.7365 -0.9149  1.3507
  112OSM    H8T11629   6.119   5.092  10.103 -1.1923  3.1867 -0.4270
  112OSM    C9S11630   5.915   5.121  10.082 -0.0721 -0.7708 -0.4348
  112OSM    H9S11631   5.915   5.229  10.105 -2.9079 -1.0979  1.6348
  112OSM    H9T11632   5.823   5.068  10.116 -1.4588  0.4021 -2.1955
  112OSM   C10S11633   5.937   5.110   9.930 -0.4460  0.8241 -0.1307
  112OSM   H10S11634   5.959   5.008   9.893 -1.4807  0.3070  0.6035
  112OSM   H10T11635   6.023   5.174   9.903  0.5432 -0.7786 -0.9235
  112OSM   C11S11636   5.818   5.164   9.848 -0.3911  0.4099  0.0347
  112OSM   H11S11637   5.771   5.235   9.918  0.4875  0.9348  0.1025
  112OSM   H11T11638   5.739   5.087   9.828 -0.3774  0.3770  0.1062
  112OSM   C12S11639   5.854   5.246   9.719  0.2957  0.4945  0.1581
  112OSM   H12S11640   5.931   5.325   9.736  2.5530 -1.3752 -0.8822
  112OSM   H12T11641   5.754   5.278   9.683  0.3837  0.2103 -0.3482
  112OSM   C13S11642   5.914   5.152   9.615  0.0772 -0.1752 -0.5304
  112OSM   H13S11643   5.857   5.057   9.617 -0.0675 -0.1425 -2.0202
  112OSM   H13T11644   6.017   5.121   9.644 -0.4104 -2.5057 -1.0513
  112OSM   C14S11645   5.923   5.217   9.474 -0.3160 -0.0280  0.2110
  112OSM   H14S11646   5.981   5.311   9.485  0.2843 -0.0984 -1.9226
  112OSM   H14T11647   5.820   5.244   9.440 -0.9098 -2.5334 -0.1924
  112OSM   C15S11648   5.974   5.117   9.373  0.5417  0.6127 -0.1640
  112OSM   H15S11649   5.912   5.025   9.370  2.4743 -0.7311 -1.6572
  112OSM   H15T11650   6.070   5.069   9.401  1.0667  0.3405 -2.2716
  112OSM   C16S11651   5.976   5.183   9.237  0.1174 -0.1167  0.1842
  112OSM   H16S11652   6.037   5.275   9.225  0.6162 -0.5103 -0.4438
  112OSM   H16T11653   5.877   5.216   9.200  0.4586  0.2124 -0.4384
  112OSM   C17S11654   6.029   5.076   9.134 -0.6799 -0.2913  0.3413
  112OSM   H17S11655   5.965   4.986   9.145  0.4056 -1.0089  0.9944
  112OSM   H17T11656   6.135   5.047   9.152 -0.8753 -0.2078  1.7650
  112OSM   C18S11657   6.025   5.128   8.994 -0.8599  0.0789  0.7842
  112OSM   H18S11658   6.092   5.215   8.979  0.9871 -1.5863 -1.3500
  112OSM   H18T11659   5.923   5.158   8.962 -1.1958 -1.2634  0.5260
  112OSM   H18U11660   6.066   5.053   8.923 -1.6526  0.3716  0.0053
  112OSM    C1F11661   5.917   5.003  10.822  0.5135 -0.6605 -0.1626
  112OSM     OF11662   5.899   5.121  10.846  0.5414 -0.5493 -0.0317
  112OSM    C2F11663   5.800   4.907  10.838  0.3320 -0.2654 -0.2716
  112OSM    H2F11664   5.762   4.903  10.942  1.2823 -2.3677  0.0396
  112OSM    H2G11665   5.843   4.809  10.810 -1.8006 -1.1276 -0.7360
  112OSM    C3F11666   5.678   4.939  10.739  0.8266  0.6778 -0.1559
  112OSM    H3F11667   5.633   5.039  10.758 -2.0365 -0.6189  0.4398
  112OSM    H3G11668   5.599   4.862  10.754  1.4559 -0.0685 -0.5823
  112OSM    C4F11669   5.715   4.924  10.592 -0.3350 -0.4147  0.0087
  112OSM    H4F11670   5.768   4.827  10.576  0.0950 -0.1408 -0.2397
  112OSM    H4G11671   5.782   5.003  10.555 -1.6848  0.4497 -0.6728
  112OSM    C5F11672   5.593   4.916  10.505 -0.1834 -0.5780  0.2766
  112OSM    H5F11673   5.518   4.991  10.539 -1.5339 -1.0182 -1.5902
  112OSM    H5G11674   5.549   4.814  10.504  0.5863 -0.9190 -1.4362
  112OSM    C6F11675   5.621   4.942  10.351  0.7780  1.4167 -0.1856
  112OSM    H6F11676   5.678   5.036  10.336  1.4312  0.7580 -2.0733
  112OSM    H6G11677   5.523   4.931  10.302  1.5040  0.1649 -1.4235
  112OSM    C7F11678   5.705   4.824  10.282  0.2399  0.8164  0.5481
  112OSM    H7F11679   5.664   4.732  10.330 -0.5212  0.3530 -0.9503
  112OSM    H7G11680   5.812   4.837  10.311  0.3687  1.8604 -0.3499
  112OSM    C8F11681   5.691   4.815  10.133 -0.1870  0.6452  0.1108
  112OSM    H8F11682   5.782   4.766  10.092 -1.0750 -1.7930  0.8885
  112OSM    H8G11683   5.670   4.916  10.093 -1.9887  1.0353  1.8828
  112OSM    C9F11684   5.583   4.723  10.090  0.1551  0.1248 -0.0740
  112OSM    H9F11685   5.562   4.636  10.153 -1.1347 -0.2763 -1.0045
  112OSM   C10F11686   5.502   4.732   9.978  0.3198 -0.3983 -0.0999
  112OSM   H10F11687   5.436   4.650   9.949 -1.1320  0.4412  0.6649
  112OSM   C11F11688   5.503   4.835   9.873 -0.0540  0.4677 -0.4876
  112OSM   H11F11689   5.573   4.915   9.905  0.2270  0.2178 -0.4742
  112OSM   H11G11690   5.400   4.876   9.878  0.2280  1.0533  2.1643
  112OSM   C12F11691   5.551   4.790   9.742 -0.9984  0.5561  0.3186
  112OSM   H12F11692   5.488   4.712   9.694  2.3645 -0.6519 -2.5566
  112OSM   H12G11693   5.651   4.741   9.742 -0.7859  0.9319 -1.1479
  112OSM   C13F11694   5.555   4.906   9.641  0.4898 -0.0522  0.1325
  112OSM   H13F11695   5.624   4.984   9.680  1.3774 -0.1066 -1.2668
  112OSM   H13G11696   5.452   4.947   9.630  0.8620  0.4946 -1.6089
  112OSM   C14F11697   5.608   4.858   9.505 -0.1684 -0.9446 -0.0354
  112OSM   H14F11698   5.557   4.761   9.490  1.0627 -1.6249 -0.0237
  112OSM   H14G11699   5.716   4.837   9.524 -0.6658 -3.4309  0.3232
  112OSM   C15F11700   5.595   4.963   9.389  0.6727 -0.3746 -0.3389
  112OSM   H15F11701   5.644   5.052   9.433  1.4763 -1.3170  0.7233
  112OSM   H15G11702   5.490   4.992   9.368  1.0350  1.2764  0.0276
  112OSM   C16F11703   5.661   4.920   9.252  0.4599  0.5568  0.4629
  112OSM   H16F11704   5.772   4.928   9.256  0.5311 -0.0963 -0.0292
  112OSM   H16G11705   5.632   4.992   9.173 -1.9407 -0.2382  0.5436
  112OSM   C17F11706   5.617   4.785   9.204 -0.2167 -0.5231 -0.5709
  112OSM   H17F11707   5.513   4.781   9.243  0.7399  0.5198  2.3285
  112OSM   H17G11708   5.680   4.706   9.250  0.6601 -0.0937 -0.9996
  112OSM   C18F11709   5.628   4.771   9.052 -0.0787 -0.2620 -0.0443
  112OSM   H18F11710   5.562   4.686   9.023  1.2661 -1.0260 -0.9495
  112OSM   H18G11711   5.731   4.751   9.016 -0.3223 -0.9340 -0.3815
  112OSM   H18H11712   5.590   4.860   8.998 -0.4873 -0.4349 -0.0470
  113OSM      N11713   2.204   4.654  11.365 -0.4194  0.0892  0.0214
  113OSM    C1511714   2.166   4.523  11.423 -0.1972  0.0630 -0.7755
  113OSM   H15A11715   2.208   4.506  11.521 -3.7864  0.9562  1.0999
  113OSM   H15B11716   2.204   4.444  11.361 -3.0326  0.4843 -3.3165
  113OSM   H15C11717   2.061   4.497  11.421 -0.4054  0.7549  0.2314
  113OSM    C1411718   2.124   4.762  11.440 -0.3833 -0.5672  0.2231
  113OSM   H14A11719   2.020   4.731  11.444 -0.0858 -2.3213 -2.5848
  113OSM   H14B11720   2.138   4.856  11.389  4.0362 -1.4684 -0.6403
  113OSM   H14C11721   2.161   4.776  11.541 -1.4880  0.8296  0.4732
  113OSM    C1311722   2.347   4.680  11.398  0.5427 -0.0957  1.0420
  113OSM   H13A11723   2.371   4.666  11.502 -1.4222 -1.2473  1.3932
  113OSM   H13B11724   2.383   4.777  11.369 -0.8297 -0.0453 -0.6151
  113OSM   H13C11725   2.409   4.621  11.331  0.4011  0.4629  0.4072
  113OSM    C1211726   2.186   4.652  11.210  0.0711  0.0253  0.3199
  113OSM   H12A11727   2.191   4.753  11.173  1.5858  0.0997  0.6396
  113OSM   H12B11728   2.082   4.624  11.200  0.1295 -1.9937  3.7847
  113OSM    C1111729   2.269   4.566  11.124 -0.4667 -0.3378  0.3768
  113OSM   H11A11730   2.231   4.560  11.020  0.0027  1.5642  0.0564
  113OSM   H11B11731   2.266   4.463  11.167  0.2740  0.0219  1.3241
  113OSM      P11732   2.439   4.750  11.037  0.3896 -0.3410 -0.6076
  113OSM    O1311733   2.380   4.863  11.112  0.2756  0.2050  0.4030
  113OSM    O1411734   2.589   4.749  11.014  1.0265 -0.1088  0.0504
  113OSM    O1111735   2.364   4.717  10.903  0.9106 -0.0682 -0.1559
  113OSM    O1211736   2.398   4.624  11.123 -0.2717  0.1572 -0.3415
  113OSM    C1S11737   2.437   4.652  10.798  0.1878  0.2631  0.8757
  113OSM    H1S11738   2.481   4.556  10.833 -1.2099 -1.3306 -1.4913
  113OSM    H1T11739   2.522   4.719  10.773  1.8270 -1.8121  0.6926
  113OSM     NF11740   2.417   4.549  10.562 -0.2788 -0.3066 -0.3886
  113OSM    HNF11741   2.479   4.599  10.502 -1.5878 -0.1561 -1.6703
  113OSM    C2S11742   2.345   4.624  10.663  0.2119  0.1723  0.5685
  113OSM    H2S11743   2.253   4.570  10.694 -0.2264  0.4963 -0.1466
  113OSM    C3S11744   2.304   4.757  10.603 -0.8305 -0.2372 -0.1660
  113OSM    H3S11745   2.388   4.808  10.550 -1.9882 -1.5336 -3.5695
  113OSM     O311746   2.263   4.856  10.697  0.6814  0.2113  0.0451
  113OSM    HO311747   2.298   4.818  10.777  1.8568  2.2593  0.5633
  113OSM    C4S11748   2.219   4.731  10.479 -0.1037  0.0136  0.0842
  113OSM    H4S11749   2.282   4.718  10.389  1.6602 -0.7232  1.3694
  113OSM    C5S11750   2.083   4.721  10.478 -0.7594 -0.5967  0.6192
  113OSM    H5S11751   2.021   4.729  10.568  0.4253  1.4818  1.3087
  113OSM    C6S11752   2.003   4.680  10.353 -0.4112 -0.2105  0.1640
  113OSM    H6S11753   1.931   4.760  10.325 -0.7177 -0.7513 -0.6209
  113OSM    H6T11754   1.959   4.583  10.384 -0.2445 -0.3404 -0.0075
  113OSM    C7S11755   2.092   4.663  10.228 -0.2775 -0.5893 -0.3343
  113OSM    H7S11756   2.169   4.584  10.240  0.7613  0.1656 -1.7075
  113OSM    H7T11757   2.135   4.762  10.202  0.1040 -0.8970 -0.9161
  113OSM    C8S11758   2.006   4.633  10.104 -0.2811 -0.7275 -0.2572
  113OSM    H8S11759   1.929   4.713  10.099  0.9063  0.4412 -0.4343
  113OSM    H8T11760   1.959   4.535  10.126  0.5470 -0.7504  1.5733
  113OSM    C9S11761   2.087   4.601   9.974 -0.4136  0.5577 -0.3008
  113OSM    H9S11762   2.154   4.519  10.008 -0.2630  1.5544  1.9477
  113OSM    H9T11763   2.165   4.676   9.950 -0.5570  0.1321 -2.2573
  113OSM   C10S11764   2.004   4.571   9.848  0.2079  0.2553 -0.3015
  113OSM   H10S11765   1.925   4.649   9.837  0.1922  0.1358 -1.1778
  113OSM   H10T11766   1.941   4.480   9.857 -1.6401  1.6025  1.1304
  113OSM   C11S11767   2.099   4.570   9.728  0.1448 -0.4179  0.3542
  113OSM   H11S11768   2.167   4.482   9.730  3.6593  2.0368 -0.2282
  113OSM   H11T11769   2.155   4.666   9.718  1.6408 -1.2900  0.0093
  113OSM   C12S11770   2.022   4.537   9.603  0.3808 -0.5781  0.2378
  113OSM   H12S11771   1.946   4.618   9.593  1.5452  0.6023  0.7321
  113OSM   H12T11772   1.976   4.436   9.618  0.8381 -0.6240  1.4138
  113OSM   C13S11773   2.106   4.527   9.476 -0.4055 -0.0592  0.3634
  113OSM   H13S11774   2.168   4.435   9.482 -1.1405 -0.5876 -0.0280
  113OSM   H13T11775   2.169   4.618   9.467 -0.9794  0.3094 -0.0309
  113OSM   C14S11776   2.021   4.520   9.352 -0.5826 -0.3838  0.0469
  113OSM   H14S11777   1.944   4.601   9.355 -1.5699 -1.2619 -0.6981
  113OSM   H14T11778   1.964   4.425   9.341 -0.8187 -0.4595  1.7339
  113OSM   C15S11779   2.109   4.550   9.229 -0.4685  0.0308  0.2584
  113OSM   H15S11780   2.084   4.473   9.153  0.0152  1.2371 -1.1571
  113OSM   H15T11781   2.216   4.541   9.256 -0.1865  1.2215 -0.4049
  113OSM   C16S11782   2.089   4.690   9.176  0.2474  0.4507  0.1497
  113OSM   H16S11783   2.099   4.753   9.267  2.4314  1.1546 -0.5204
  113OSM   H16T11784   1.985   4.707   9.140  0.2394 -1.0745 -0.6531
  113OSM   C17S11785   2.184   4.737   9.067 -0.3349  0.4213 -0.3472
  113OSM   H17S11786   2.152   4.833   9.022  0.7358 -0.1130 -2.3431
  113OSM   H17T11787   2.182   4.675   8.975 -2.3517  2.4698 -1.8123
  113OSM   C18S11788   2.315   4.776   9.129 -0.8027  0.5088 -0.2496
  113OSM   H18S11789   2.318   4.847   9.215 -0.4891  0.5666 -0.3050
  113OSM   H18T11790   2.384   4.813   9.050  0.0082 -0.0123  0.1951
  113OSM   H18U11791   2.372   4.691   9.173  3.4319  3.0376 -0.2823
  113OSM    C1F11792   2.419   4.416  10.570  0.6303 -0.5542  0.1893
  113OSM     OF11793   2.337   4.356  10.647 -0.7300  0.2934  0.6061
  113OSM    C2F11794   2.511   4.335  10.482 -0.0874  0.7082 -0.4447
  113OSM    H2F11795   2.601   4.391  10.446  1.0910 -1.2424 -0.6824
  113OSM    H2G11796   2.452   4.290  10.399  0.6882  0.0221 -0.6390
  113OSM    C3F11797   2.569   4.226  10.581  0.1810  0.3055  0.1806
  113OSM    H3F11798   2.491   4.153  10.611  2.2477 -1.6048  1.2118
  113OSM    H3G11799   2.620   4.275  10.666  0.9238  2.1331 -1.2362
  113OSM    C4F11800   2.665   4.136  10.499 -0.3376  0.0263 -0.1297
  113OSM    H4F11801   2.744   4.198  10.451  0.4792 -1.0253 -0.1896
  113OSM    H4G11802   2.607   4.085  10.419 -0.3251  2.2976 -1.6815
  113OSM    C5F11803   2.728   4.032  10.589  0.8028 -0.1735  0.0121
  113OSM    H5F11804   2.654   3.988  10.658  2.8788 -0.2569  2.3256
  113OSM    H5G11805   2.793   4.088  10.659  1.5412  1.3798 -1.8406
  113OSM    C6F11806   2.800   3.932  10.512 -0.3538  0.3426 -0.3034
  113OSM    H6F11807   2.722   3.857  10.486 -1.1031  0.9187  0.2322
  113OSM    H6G11808   2.874   3.877  10.573 -1.7479 -0.2262  0.9556
  113OSM    C7F11809   2.871   3.973  10.376  0.3614 -0.3613  0.0303
  113OSM    H7F11810   2.922   4.070  10.395 -0.2887  0.1633 -0.8580
  113OSM    H7G11811   2.797   3.999  10.298  2.1752 -0.2830 -1.7613
  113OSM    C8F11812   2.963   3.863  10.328 -0.1418  0.7055  0.1835
  113OSM    H8F11813   3.027   3.814  10.404  2.2901 -0.4142 -2.4054
  113OSM    H8G11814   3.038   3.891  10.251  1.8823 -2.5707  0.7609
  113OSM    C9F11815   2.862   3.760  10.281 -0.0323 -0.6169  0.2335
  113OSM    H9F11816   2.796   3.714  10.357 -1.2607  0.2998 -0.2330
  113OSM   C10F11817   2.851   3.708  10.154 -0.0212  0.3853  0.0391
  113OSM   H10F11818   2.764   3.649  10.122 -0.8088  1.7145 -0.3207
  113OSM   C11F11819   2.936   3.757  10.039 -0.1852 -0.3005  0.4305
  113OSM   H11F11820   3.027   3.695  10.031 -0.2971 -0.3363 -0.6830
  113OSM   H11G11821   2.941   3.868  10.045 -3.2982  0.0311 -1.0943
  113OSM   C12F11822   2.866   3.721   9.903 -0.2771 -0.8000  0.0914
  113OSM   H12F11823   2.770   3.777   9.902  0.3743  0.4250 -2.6708
  113OSM   H12G11824   2.845   3.613   9.887 -2.6886 -0.4861  0.8104
  113OSM   C13F11825   2.944   3.766   9.774 -0.5164  0.2342 -0.4631
  113OSM   H13F11826   3.024   3.688   9.768  1.3629  2.1343 -1.5275
  113OSM   H13G11827   2.990   3.866   9.785 -0.3071  0.3249 -1.9003
  113OSM   C14F11828   2.856   3.769   9.655  0.9021  0.3287  0.2419
  113OSM   H14F11829   2.774   3.843   9.664  1.2924  0.5638  2.4439
  113OSM   H14G11830   2.811   3.668   9.647 -2.8305  1.8903 -0.0916
  113OSM   C15F11831   2.920   3.787   9.518 -0.5032  0.1339 -0.2650
  113OSM   H15F11832   3.018   3.734   9.512 -1.0770 -1.0480  0.3715
  113OSM   H15G11833   2.931   3.897   9.506  0.8653  0.4361  2.8160
  113OSM   C16F11834   2.826   3.742   9.414 -0.4397  0.1969  0.9317
  113OSM   H16F11835   2.719   3.757   9.442 -0.0550  2.3041  1.4538
  113OSM   H16G11836   2.833   3.631   9.410 -0.2835  0.2306 -0.2801
  113OSM   C17F11837   2.854   3.808   9.273  1.0297  0.1617  0.1682
  113OSM   H17F11838   2.818   3.912   9.288  1.3989  0.0217  2.3358
  113OSM   H17G11839   2.792   3.755   9.197  1.2784 -0.7812  0.6104
  113OSM   C18F11840   3.003   3.810   9.231  0.7685  0.6840 -0.2047
  113OSM   H18F11841   3.040   3.709   9.259 -0.5883  0.0204 -0.7179
  113OSM   H18G11842   3.062   3.878   9.297  0.6872  0.9884 -0.4472
  113OSM   H18H11843   3.023   3.839   9.125  1.0661  2.3509  0.2763
  114OSM      N11844   0.442   6.055  10.934  0.8031  0.0359 -0.4582
  114OSM    C1511845   0.301   6.107  10.919 -0.2792  0.8598 -0.0924
  114OSM   H15A11846   0.243   6.075  11.004  0.5352  2.7886  1.2556
  114OSM   H15B11847   0.257   6.055  10.835 -0.5916 -1.0483  1.1795
  114OSM   H15C11848   0.300   6.214  10.908 -0.1861  0.7933 -0.8021
  114OSM    C1411849   0.510   6.074  10.805  0.1457 -0.9789  0.1411
  114OSM   H14A11850   0.614   6.057  10.825  0.2559  0.3939  0.8720
  114OSM   H14B11851   0.499   6.178  10.775  2.3412 -0.5789  0.5400
  114OSM   H14C11852   0.489   6.006  10.723  1.0696  0.1390 -1.0765
  114OSM    C1311853   0.510   6.134  11.037  0.8713  0.3266  0.9787
  114OSM   H13A11854   0.474   6.105  11.134 -1.9307  2.3260  0.6691
  114OSM   H13B11855   0.485   6.239  11.027  1.2624  0.4893  1.6711
  114OSM   H13C11856   0.616   6.116  11.021  0.4013 -2.7021  0.7597
  114OSM    C1211857   0.442   5.906  10.970  0.1704 -0.4612  0.0018
  114OSM   H12A11858   0.421   5.899  11.075 -0.2053 -0.2513 -0.0579
  114OSM   H12B11859   0.543   5.873  10.948  0.4960  0.3522  0.2319
  114OSM    C1111860   0.365   5.807  10.884 -0.3096  0.3326  0.2630
  114OSM   H11A11861   0.389   5.710  10.932  1.2917  1.6873  2.4192
  114OSM   H11B11862   0.412   5.800  10.783  1.1268 -2.0767  1.0107
  114OSM      P11863   0.118   5.764  10.957 -0.0921 -0.3533 -0.4736
  114OSM    O1311864   0.184   5.713  11.080  0.9952 -1.1949 -0.3112
  114OSM    O1411865   0.009   5.865  10.978 -0.1581 -0.1736  0.1840
  114OSM    O1111866   0.069   5.637  10.882  0.1361  0.4565 -0.1347
  114OSM    O1211867   0.224   5.831  10.865 -0.4083  0.2142 -0.1527
  114OSM    C1S11868  -0.006   5.634  10.761  0.0879  0.1252 -0.4302
  114OSM    H1S11869  -0.090   5.707  10.759  0.5367  0.6416 -0.8351
  114OSM    H1T11870  -0.059   5.537  10.750  0.7379 -0.1586 -1.1977
  114OSM     NF11871   0.004   5.657  10.514 -0.0135 -0.2369  0.1764
  114OSM    HNF11872  -0.028   5.573  10.472 -1.4480 -1.9986  4.2902
  114OSM    C2S11873   0.082   5.643  10.635 -0.8231  0.7971 -0.4497
  114OSM    H2S11874   0.154   5.728  10.638 -0.0247  0.3661 -3.7695
  114OSM    C3S11875   0.172   5.513  10.632  0.0544 -0.4084 -0.4723
  114OSM    H3S11876   0.112   5.420  10.636  1.7888 -1.5325  1.7311
  114OSM     O311877   0.250   5.506  10.744  0.1132  0.4090  0.0118
  114OSM    HO311878   0.230   5.584  10.797 -1.1078 -0.7603  1.3645
  114OSM    C4S11879   0.256   5.507  10.510 -0.1308 -0.0102  0.5131
  114OSM    H4S11880   0.207   5.458  10.425 -0.9289 -1.2655  1.6436
  114OSM    C5S11881   0.381   5.561  10.490  0.6236  0.8598  0.2439
  114OSM    H5S11882   0.428   5.628  10.564  0.8547  1.8929 -0.8035
  114OSM    C6S11883   0.454   5.544  10.359  0.1362 -0.6013  0.5934
  114OSM    H6S11884   0.555   5.500  10.372  0.9200  1.3296  1.3855
  114OSM    H6T11885   0.475   5.647  10.324 -0.2809 -0.2036  1.4684
  114OSM    C7S11886   0.372   5.488  10.233 -0.2720 -0.4418  0.1148
  114OSM    H7S11887   0.272   5.536  10.225  0.0697  0.6819  2.0406
  114OSM    H7T11888   0.348   5.380  10.248 -1.5769 -0.0481  1.0760
  114OSM    C8S11889   0.449   5.509  10.101 -0.3617  0.6191  0.2688
  114OSM    H8S11890   0.559   5.490  10.100 -0.1493  1.7471 -1.1527
  114OSM    H8T11891   0.450   5.618  10.082  2.0561  0.9739  1.9482
  114OSM    C9S11892   0.374   5.449   9.985  0.1237 -0.5804 -0.2921
  114OSM    H9S11893   0.264   5.460   9.998  0.5191  0.4388  3.3240
  114OSM    H9T11894   0.404   5.343   9.994  1.2123 -0.1750  1.4922
  114OSM   C10S11895   0.416   5.510   9.849  0.3875  0.2922  0.2852
  114OSM   H10S11896   0.527   5.518   9.853  0.3549  0.7469  0.3648
  114OSM   H10T11897   0.375   5.611   9.826 -0.3134 -0.3683 -1.4748
  114OSM   C11S11898   0.380   5.412   9.738  0.1585 -0.3379  0.2410
  114OSM   H11S11899   0.269   5.411   9.728  0.2403  0.7933 -0.9285
  114OSM   H11T11900   0.419   5.310   9.761  1.4788  0.2218  0.5357
  114OSM   C12S11901   0.430   5.450   9.600  0.2272  0.5546  0.4788
  114OSM   H12S11902   0.467   5.358   9.550  0.0681  0.7967 -0.0913
  114OSM   H12T11903   0.513   5.521   9.615  0.7197 -0.3511  2.3049
  114OSM   C13S11904   0.324   5.515   9.514 -0.3750 -0.0613 -0.0522
  114OSM   H13S11905   0.265   5.584   9.579  0.3559 -1.0147  1.7003
  114OSM   H13T11906   0.245   5.441   9.486 -0.9753  0.1441  1.0311
  114OSM   C14S11907   0.397   5.588   9.397 -0.6333  0.8612  0.0163
  114OSM   H14S11908   0.442   5.681   9.439  1.4405  0.5080 -1.2794
  114OSM   H14T11909   0.321   5.620   9.322 -0.7781 -0.1019 -0.2591
  114OSM   C15S11910   0.513   5.510   9.323  0.2376  0.1641 -0.3895
  114OSM   H15S11911   0.486   5.404   9.303  1.4260 -0.3075  0.3843
  114OSM   H15T11912   0.592   5.501   9.401 -0.6585  1.6809  0.7520
  114OSM   C16S11913   0.574   5.578   9.195  0.4854 -0.5827  0.0977
  114OSM   H16S11914   0.665   5.524   9.160  1.4935  1.3305 -0.3514
  114OSM   H16T11915   0.597   5.683   9.219 -1.0460  0.2372 -1.7301
  114OSM   C17S11916   0.464   5.565   9.080 -0.5997  0.0662  0.8233
  114OSM   H17S11917   0.382   5.636   9.106  0.4855  1.5262  0.3850
  114OSM   H17T11918   0.419   5.464   9.074  1.0623 -0.6364 -1.5722
  114OSM   C18S11919   0.527   5.612   8.947  0.6926  0.6232  0.0469
  114OSM   H18S11920   0.448   5.617   8.869  1.7138 -2.3162 -1.3530
  114OSM   H18T11921   0.595   5.536   8.903 -3.0239 -1.5530 -2.5713
  114OSM   H18U11922   0.566   5.715   8.947 -0.7966  1.2320 -1.2801
  114OSM    C1F11923  -0.060   5.769  10.496 -0.0217 -0.1447  0.4881
  114OSM     OF11924  -0.031   5.875  10.552  0.2373  1.4480  0.6772
  114OSM    C2F11925  -0.175   5.753  10.404  0.0178 -0.4773  0.0193
  114OSM    H2F11926  -0.244   5.676  10.445 -0.5240 -0.7765 -1.4074
  114OSM    H2G11927  -0.126   5.718  10.311  1.6137 -0.6454  0.8839
  114OSM    C3F11928  -0.232   5.894  10.369  0.1579 -0.2993  0.0927
  114OSM    H3F11929  -0.159   5.957  10.313  0.1012 -0.1959  0.1355
  114OSM    H3G11930  -0.259   5.954  10.458  0.2845 -1.7909  1.1699
  114OSM    C4F11931  -0.362   5.876  10.276 -0.5565  0.2278  0.2443
  114OSM    H4F11932  -0.389   5.980  10.250  1.2779  0.8226  0.5964
  114OSM    H4G11933  -0.442   5.832  10.340 -0.2357 -0.2955  0.2971
  114OSM    C5F11934  -0.341   5.795  10.149 -0.0819 -0.0075  0.5562
  114OSM    H5F11935  -0.330   5.687  10.175 -1.9688  0.3150  3.0639
  114OSM    H5G11936  -0.239   5.832  10.127 -0.4445 -0.0138 -1.3259
  114OSM    C6F11937  -0.447   5.842  10.040 -0.0017  0.5725 -0.4866
  114OSM    H6F11938  -0.436   5.950  10.018  1.2936  0.3499 -1.0414
  114OSM    H6G11939  -0.552   5.822  10.070 -0.4411  0.7074 -1.8753
  114OSM    C7F11940  -0.432   5.774   9.901  0.1539  0.3079  0.2349
  114OSM    H7F11941  -0.437   5.665   9.925 -1.0989  0.8016  2.5614
  114OSM    H7G11942  -0.335   5.806   9.857  0.4694 -0.8360  0.0703
  114OSM    C8F11943  -0.544   5.820   9.802  0.2456  0.0414 -0.4026
  114OSM    H8F11944  -0.528   5.928   9.785  3.7725 -0.1365  1.0947
  114OSM    H8G11945  -0.640   5.798   9.853 -0.8718 -0.4747 -2.5740
  114OSM    C9F11946  -0.533   5.726   9.679 -0.6288 -0.1942 -0.1016
  114OSM    H9F11947  -0.534   5.617   9.697  0.8341 -0.3520 -0.7810
  114OSM   C10F11948  -0.528   5.765   9.549  0.0441 -0.0183  0.8761
  114OSM   H10F11949  -0.518   5.684   9.475  0.2557  1.3458 -0.6526
  114OSM   C11F11950  -0.533   5.903   9.483  0.4825 -0.1727 -0.9516
  114OSM   H11F11951  -0.518   5.984   9.558 -1.7241 -0.9457  0.4228
  114OSM   H11G11952  -0.636   5.924   9.447  0.4365 -1.8177 -1.8640
  114OSM   C12F11953  -0.448   5.931   9.365  0.5631  0.3009  0.1174
  114OSM   H12F11954  -0.342   5.909   9.389  0.9788  2.2519  0.2985
  114OSM   H12G11955  -0.453   6.038   9.333  0.1811  0.4147  0.5457
  114OSM   C13F11956  -0.502   5.862   9.230  0.1251 -0.0428 -0.4751
  114OSM   H13F11957  -0.609   5.888   9.215  0.1013  1.9391  2.3196
  114OSM   H13G11958  -0.480   5.754   9.241 -0.6016 -0.3260 -1.6084
  114OSM   C14F11959  -0.414   5.909   9.113  0.3460  0.5736 -0.4013
  114OSM   H14F11960  -0.306   5.900   9.135  0.1045  0.3714  0.7397
  114OSM   H14G11961  -0.422   6.017   9.085 -0.3186  0.1919 -1.7654
  114OSM   C15F11962  -0.438   5.818   8.989 -0.4125  0.0016 -0.3663
  114OSM   H15F11963  -0.537   5.844   8.945 -1.0104 -0.6368  0.5816
  114OSM   H15G11964  -0.433   5.713   9.022  2.0557 -0.0698 -0.7414
  114OSM   C16F11965  -0.335   5.835   8.872  0.3349  0.0553 -0.0699
  114OSM   H16F11966  -0.351   5.757   8.794 -0.3114  1.9090 -1.8902
  114OSM   H16G11967  -0.232   5.825   8.912  0.2998  2.3967  0.7597
  114OSM   C17F11968  -0.352   5.969   8.789 -0.5940  0.5815  0.2568
  114OSM   H17F11969  -0.307   6.047   8.854 -1.5797  0.1062  1.5701
  114OSM   H17G11970  -0.461   5.991   8.779 -1.1653 -1.3740  1.5507
  114OSM   C18F11971  -0.286   5.961   8.648 -0.4429  0.1276 -0.4406
  114OSM   H18F11972  -0.261   6.063   8.611  0.3171  0.8913  1.9890
  114OSM   H18G11973  -0.347   5.902   8.577 -1.9848  0.8641  0.2160
  114OSM   H18H11974  -0.185   5.917   8.664  0.4316  2.1990  0.1775
  115OSM      N11975   1.192   5.425  10.820  0.2906  0.4341  0.5291
  115OSM    C1511976   1.253   5.321  10.730  0.1637  0.5748  0.3810
  115OSM   H15A11977   1.172   5.261  10.689 -0.2885  2.5708 -1.8895
  115OSM   H15B11978   1.326   5.262  10.783 -1.2791 -0.1977  1.6101
  115OSM   H15C11979   1.283   5.362  10.634 -1.6952  0.1997 -0.4261
  115OSM    C1411980   1.051   5.443  10.768  0.6507 -0.5969  0.6383
  115OSM   H14A11981   0.991   5.355  10.781  0.8142 -1.0675 -1.5089
  115OSM   H14B11982   1.052   5.451  10.661 -2.3326 -2.6180  0.3375
  115OSM   H14C11983   0.996   5.524  10.813  1.5604  0.3296  0.1252
  115OSM    C1311984   1.188   5.365  10.956  0.0913  0.1588 -0.4057
  115OSM   H13A11985   1.286   5.360  11.002 -0.5132 -0.0314  0.9180
  115OSM   H13B11986   1.143   5.268  10.944 -2.0707  1.0041  0.3674
  115OSM   H13C11987   1.133   5.410  11.038  0.5633 -0.8667  0.4962
  115OSM    C1211988   1.268   5.548  10.820 -0.0888 -0.4270 -0.4735
  115OSM   H12A11989   1.254   5.599  10.725 -0.3425  0.8214  0.2045
  115OSM   H12B11990   1.372   5.528  10.838  0.2789 -0.5695 -2.4514
  115OSM    C1111991   1.227   5.657  10.927 -0.4715 -0.3070  0.6132
  115OSM   H11A11992   1.294   5.745  10.917  0.1578 -0.8432 -0.1029
  115OSM   H11B11993   1.239   5.618  11.030 -2.6369 -0.0423  1.0019
  115OSM      P11994   1.067   5.807  10.793  0.2240  0.4155  0.2109
  115OSM    O1311995   1.078   5.740  10.662  0.3158  0.5318  0.0771
  115OSM    O1411996   0.935   5.860  10.822  0.3932 -0.0158  0.0233
  115OSM    O1111997   1.170   5.925  10.819  1.0402 -0.2549 -0.4307
  115OSM    O1211998   1.096   5.706  10.908  0.3476 -0.0366 -0.0485
  115OSM    C1S11999   1.239   5.993  10.710 -0.5449  0.2343 -0.1484
  115OSM    H1S12000   1.220   5.936  10.616 -2.1062 -3.3333  2.0989
  115OSM    H1T12001   1.348   6.000  10.730 -0.3987 -1.7194 -0.1037
  115OSM     NF12002   1.227   6.192  10.574  0.2366  0.0072  0.0042
  115OSM    HNF12003   1.297   6.262  10.590 -0.2422  1.4140 -3.3148
  115OSM    C2S12004   1.171   6.133  10.695 -0.2349 -1.0549 -0.1302
  115OSM    H2S12005   1.060   6.124  10.687 -0.1262 -2.8895 -0.1878
  115OSM    C3S12006   1.190   6.216  10.827 -0.1601  0.4965 -0.6969
  115OSM    H3S12007   1.300   6.216  10.843  0.0192  0.8553 -1.8377
  115OSM     O312008   1.127   6.154  10.942  0.0709  0.2566  0.0767
  115OSM    HO312009   1.123   6.060  10.920  3.9289 -0.2008  0.6463
  115OSM    C4S12010   1.147   6.360  10.804  0.5827  0.3653 -0.0396
  115OSM    H4S12011   1.229   6.429  10.781  1.4202 -0.3055  0.8473
  115OSM    C5S12012   1.030   6.421  10.831 -0.9298  0.7759  0.0128
  115OSM    H5S12013   0.946   6.365  10.874 -1.5476  2.3747  0.9779
  115OSM    C6S12014   1.012   6.568  10.813  0.0201  0.1684 -0.7790
  115OSM    H6S12015   1.035   6.621  10.907  2.0923 -0.2755 -0.9824
  115OSM    H6T12016   0.903   6.582  10.803 -0.4269 -0.8124  2.0273
  115OSM    C7S12017   1.081   6.624  10.686  0.3414 -0.5407 -0.5451
  115OSM    H7S12018   1.191   6.623  10.700  0.5106 -1.4814 -1.7660
  115OSM    H7T12019   1.055   6.732  10.676 -0.6202 -0.6552  0.4948
  115OSM    C8S12020   1.037   6.551  10.553 -0.0550  0.4616  0.0026
  115OSM    H8S12021   0.928   6.572  10.545 -0.2890  0.3466  2.2058
  115OSM    H8T12022   1.063   6.444  10.557  0.2432  0.4596 -1.5783
  115OSM    C9S12023   1.110   6.613  10.435 -1.0249  0.2776  0.9379
  115OSM    H9S12024   1.217   6.584  10.442 -0.7949  0.9086  0.1325
  115OSM    H9T12025   1.096   6.723  10.430  2.6783  0.9398  1.9387
  115OSM   C10S12026   1.047   6.557  10.306  0.3430 -0.6681  0.3446
  115OSM   H10S12027   0.938   6.578  10.309  0.4894  0.4037 -0.9906
  115OSM   H10T12028   1.051   6.446  10.309 -1.6536 -0.7904 -0.1802
  115OSM   C11S12029   1.101   6.605  10.171  0.8266 -0.2123  0.2411
  115OSM   H11S12030   1.211   6.598  10.159  0.8819 -1.1508  1.1579
  115OSM   H11T12031   1.074   6.712  10.163  0.8401 -0.2904 -1.1884
  115OSM   C12S12032   1.027   6.542  10.048  0.1389  0.2177  0.4047
  115OSM   H12S12033   0.916   6.544  10.062 -0.7609 -4.4336 -3.3363
  115OSM   H12T12034   1.047   6.433  10.041  2.0916  0.6218 -1.4607
  115OSM   C13S12035   1.053   6.604   9.911 -0.5622 -0.2565  0.0567
  115OSM   H13S12036   1.162   6.595   9.890 -0.5053 -0.1716  0.3041
  115OSM   H13T12037   1.051   6.714   9.928 -0.2671 -0.3975  1.0852
  115OSM   C14S12038   0.966   6.544   9.806  1.0312 -0.3941  1.6153
  115OSM   H14S12039   0.863   6.575   9.833  1.0554  0.7534  0.4835
  115OSM   H14T12040   0.982   6.435   9.810  2.3034 -0.1742  4.2865
  115OSM   C15S12041   0.985   6.615   9.666  0.0821 -0.0328 -0.9545
  115OSM   H15S12042   1.091   6.602   9.635  0.8414 -2.7993  2.1873
  115OSM   H15T12043   0.968   6.725   9.664 -1.2467 -0.1198  1.6288
  115OSM   C16S12044   0.885   6.554   9.573  0.2020  0.1264  0.1380
  115OSM   H16S12045   0.780   6.571   9.607 -0.8093 -2.1627 -1.5513
  115OSM   H16T12046   0.906   6.446   9.559  2.2478  0.2015  2.0857
  115OSM   C17S12047   0.894   6.611   9.432  0.0154 -0.5282  0.1368
  115OSM   H17S12048   1.000   6.634   9.409 -0.6447  0.6133 -2.0459
  115OSM   H17T12049   0.858   6.716   9.444 -0.5266 -0.5974 -0.7929
  115OSM   C18S12050   0.822   6.541   9.314 -0.1834  0.5747 -0.4499
  115OSM   H18S12051   0.858   6.436   9.301  2.0631  0.9847  1.7253
  115OSM   H18T12052   0.859   6.597   9.226  2.4158  1.9225  1.3812
  115OSM   H18U12053   0.711   6.544   9.324  0.0458  3.0933  3.0760
  115OSM    C1F12054   1.198   6.156  10.451  1.0485  0.5629  0.1342
  115OSM     OF12055   1.113   6.067  10.429  0.0318  0.1053  0.3763
  115OSM    C2F12056   1.267   6.227  10.342  0.4012 -0.1907 -0.9078
  115OSM    H2F12057   1.326   6.311  10.385 -0.4577 -0.0363  0.0019
  115OSM    H2G12058   1.187   6.282  10.289 -2.1032 -3.8797 -1.3041
  115OSM    C3F12059   1.333   6.130  10.240  0.4459 -0.3859  0.2085
  115OSM    H3F12060   1.257   6.070  10.185 -0.6258  1.3731 -0.3229
  115OSM    H3G12061   1.400   6.066  10.301  1.4230  2.3205  2.1850
  115OSM    C4F12062   1.418   6.195  10.142 -0.0740 -0.3341  0.2171
  115OSM    H4F12063   1.476   6.128  10.076  0.5524 -0.3784  0.7986
  115OSM    H4G12064   1.494   6.251  10.200 -0.0568 -0.0439 -0.0844
  115OSM    C5F12065   1.351   6.302  10.047  0.7192 -0.1400 -0.2970
  115OSM    H5F12066   1.335   6.393  10.109 -1.6757  0.5844 -1.8461
  115OSM    H5G12067   1.254   6.267  10.007  0.7336 -0.7605  0.1997
  115OSM    C6F12068   1.439   6.353   9.933  0.5686  1.1785  1.5405
  115OSM    H6F12069   1.537   6.378   9.980  1.1306  0.7364  0.6337
  115OSM    H6G12070   1.384   6.444   9.904  1.4709  1.2757  0.0264
  115OSM    C7F12071   1.463   6.255   9.817  0.5513 -1.1222 -0.2581
  115OSM    H7F12072   1.503   6.161   9.861  1.6342 -0.7161 -0.3326
  115OSM    H7G12073   1.523   6.297   9.733  0.9553 -2.5701 -0.7342
  115OSM    C8F12074   1.338   6.204   9.731  0.3323 -0.2965  0.0443
  115OSM    H8F12075   1.280   6.161   9.815  0.9732  0.1236  0.7104
  115OSM    H8G12076   1.363   6.127   9.655 -0.2152 -0.5945  0.1598
  115OSM    C9F12077   1.248   6.306   9.668 -0.7896  0.3612  1.0366
  115OSM    H9F12078   1.224   6.404   9.711  1.3861  1.8384 -0.8331
  115OSM   C10F12079   1.197   6.284   9.545  0.1613  0.2385  0.4072
  115OSM   H10F12080   1.139   6.368   9.504  1.1849  0.6173 -0.2939
  115OSM   C11F12081   1.201   6.170   9.453 -0.1301 -0.0794  1.2761
  115OSM   H11F12082   1.135   6.098   9.506  0.0518  0.2664  1.9963
  115OSM   H11G12083   1.298   6.117   9.442 -0.5224 -0.8564  1.5140
  115OSM   C12F12084   1.134   6.196   9.316  0.5187 -0.4110 -0.1890
  115OSM   H12F12085   1.028   6.226   9.328  0.3802 -0.8896 -0.1877
  115OSM   H12G12086   1.127   6.098   9.264  1.8009 -0.4080 -0.3915
  115OSM   C13F12087   1.212   6.286   9.229  0.5587 -0.2288 -0.0791
  115OSM   H13F12088   1.221   6.388   9.271  0.6350  0.1160 -0.9143
  115OSM   H13G12089   1.163   6.289   9.129  0.9935 -0.4799 -0.3066
  115OSM   C14F12090   1.363   6.242   9.205  0.3543  0.3289 -0.2094
  115OSM   H14F12091   1.351   6.133   9.189 -2.1544  0.5630 -0.2921
  115OSM   H14G12092   1.423   6.266   9.295  0.9276 -1.2551 -0.1413
  115OSM   C15F12093   1.417   6.306   9.081 -0.2775 -0.1049 -0.1610
  115OSM   H15F12094   1.399   6.416   9.078  2.6277  0.4330 -2.1284
  115OSM   H15G12095   1.368   6.263   8.991 -0.3219  0.8940 -0.6277
  115OSM   C16F12096   1.563   6.276   9.050 -0.4110  0.1134  0.4377
  115OSM   H16F12097   1.577   6.170   9.023 -0.7290 -0.0969  1.0820
  115OSM   H16G12098   1.617   6.298   9.145 -1.7509  4.0089  0.5057
  115OSM   C17F12099   1.616   6.359   8.936  0.3823 -0.2627  0.0046
  115OSM   H17F12100   1.648   6.454   8.984  1.6550  0.1609 -1.6076
  115OSM   H17G12101   1.532   6.382   8.868  0.8461  0.2494 -0.4011
  115OSM   C18F12102   1.746   6.296   8.872  0.4120  0.5296  0.1347
  115OSM   H18F12103   1.773   6.352   8.780 -0.9293  1.3078  0.1912
  115OSM   H18G12104   1.720   6.196   8.830 -2.7255  1.3696 -0.1903
  115OSM   H18H12105   1.829   6.297   8.946  2.0335 -1.7728 -1.5183
  116OSM      N12106   2.796   3.099  11.168  0.0985 -0.0191 -0.3202
  116OSM    C1512107   2.895   3.187  11.236  0.0932 -0.5715  0.2688
  116OSM   H15A12108   2.890   3.180  11.343  0.0998 -0.5489  0.2703
  116OSM   H15B12109   2.874   3.289  11.206 -1.0656 -0.5159  1.2069
  116OSM   H15C12110   2.989   3.172  11.185 -0.8087  2.0849 -2.5413
  116OSM    C1412111   2.838   3.077  11.025  0.6501  0.4891  0.3538
  116OSM   H14A12112   2.940   3.042  11.020  0.3278 -0.3351 -1.1343
  116OSM   H14B12113   2.843   3.171  10.972  0.4079  0.2213 -0.1532
  116OSM   H14C12114   2.779   3.009  10.966  0.2420  1.0120  0.1447
  116OSM    C1312115   2.792   2.970  11.240 -0.3936 -0.3841  0.0649
  116OSM   H13A12116   2.770   2.978  11.345 -0.0351  0.1986  0.1024
  116OSM   H13B12117   2.882   2.915  11.215 -0.5639 -0.3317 -0.6807
  116OSM   H13C12118   2.712   2.906  11.207 -1.3364 -0.1344  1.8089
  116OSM    C1212119   2.660   3.162  11.183  0.3491  0.5706  0.0706
  116OSM   H12A12120   2.645   3.202  11.282 -1.8054 -0.8126  0.3841
  116OSM   H12B12121   2.580   3.090  11.175  0.4325  0.3944  0.7383
  116OSM    C1112122   2.612   3.276  11.091  0.7800 -0.1946 -0.2238
  116OSM   H11A12123   2.507   3.294  11.122  1.4493 -0.7318  2.7260
  116OSM   H11B12124   2.598   3.240  10.987 -2.2171  0.5844 -0.1757
  116OSM      P12125   2.670   3.532  11.057  0.2752 -0.3572  0.4628
  116OSM    O1312126   2.561   3.608  11.114  0.4807  0.0563 -0.5867
  116OSM    O1412127   2.797   3.606  11.071  0.2688 -0.1588 -0.4542
  116OSM    O1112128   2.634   3.505  10.902 -0.3153  0.4764 -0.1952
  116OSM    O1212129   2.692   3.390  11.120 -0.2987  0.0865 -0.0762
  116OSM    C1S12130   2.737   3.460  10.810 -1.0862  0.6912 -0.2544
  116OSM    H1S12131   2.782   3.366  10.848 -2.3764 -0.0203 -0.4302
  116OSM    H1T12132   2.824   3.529  10.809 -2.3176  2.3005 -1.0726
  116OSM     NF12133   2.780   3.374  10.576 -0.1055 -0.0295 -0.0041
  116OSM    HNF12134   2.831   3.421  10.504 -2.7224  0.0287 -1.9435
  116OSM    C2S12135   2.686   3.445  10.663  0.1399 -0.3303 -0.1907
  116OSM    H2S12136   2.591   3.389  10.668 -1.5561  2.4111  1.0654
  116OSM    C3S12137   2.633   3.588  10.607 -0.5217 -0.4056 -0.0128
  116OSM    H3S12138   2.716   3.657  10.576 -1.6754  0.3213 -1.6480
  116OSM     O312139   2.545   3.662  10.698  0.4827  0.5348 -0.3650
  116OSM    HO312140   2.547   3.597  10.769  1.1376  0.3012 -0.6003
  116OSM    C4S12141   2.568   3.566  10.474  0.0301 -0.3472 -0.7488
  116OSM    H4S12142   2.619   3.616  10.391  0.0678 -1.1649 -1.2264
  116OSM    C5S12143   2.446   3.510  10.456  0.1808 -0.0742 -0.0989
  116OSM    H5S12144   2.385   3.472  10.539 -1.8755  0.5630 -1.2561
  116OSM    C6S12145   2.367   3.496  10.332 -0.9746 -0.3176  0.0197
  116OSM    H6S12146   2.269   3.547  10.328 -0.0436  1.6123  0.4953
  116OSM    H6T12147   2.333   3.390  10.331  1.2874 -1.1091 -0.7350
  116OSM    C7S12148   2.442   3.505  10.198 -0.0037 -0.1385  0.1043
  116OSM    H7S12149   2.526   3.433  10.204  1.5647  1.7230  1.5616
  116OSM    H7T12150   2.495   3.602  10.189  2.0135 -1.1023  1.1041
  116OSM    C8S12151   2.355   3.483  10.075  0.4928  0.5869  0.9350
  116OSM    H8S12152   2.273   3.558  10.080 -1.1217 -1.1463  1.5721
  116OSM    H8T12153   2.308   3.383  10.080  0.3855  0.5683 -0.0650
  116OSM    C9S12154   2.425   3.502   9.934  0.2585  0.4052 -0.4729
  116OSM    H9S12155   2.483   3.407   9.930 -2.3368 -1.3318  0.6284
  116OSM    H9T12156   2.498   3.585   9.941  0.2306  0.7307 -3.1550
  116OSM   C10S12157   2.331   3.525   9.821  0.5399 -0.5531 -0.6921
  116OSM   H10S12158   2.280   3.623   9.829 -0.5001 -1.1895  1.0518
  116OSM   H10T12159   2.258   3.441   9.820  1.3508 -1.2796 -2.1983
  116OSM   C11S12160   2.404   3.525   9.684  0.7757 -0.2956  0.0347
  116OSM   H11S12161   2.470   3.436   9.672  0.8363 -0.3190  0.5101
  116OSM   H11T12162   2.477   3.609   9.685  2.2945 -1.5349 -1.2079
  116OSM   C12S12163   2.320   3.547   9.557  0.1361  0.7354 -0.1103
  116OSM   H12S12164   2.259   3.640   9.555 -0.2748  0.5184  1.2660
  116OSM   H12T12165   2.243   3.467   9.552 -0.3010  1.2022 -1.0028
  116OSM   C13S12166   2.397   3.541   9.427  0.1057 -0.3963  0.6375
  116OSM   H13S12167   2.474   3.461   9.421  0.5399  0.0708 -0.0979
  116OSM   H13T12168   2.445   3.640   9.418  0.2040 -0.3382  1.6193
  116OSM   C14S12169   2.295   3.511   9.306  0.1168 -0.2300  0.4106
  116OSM   H14S12170   2.222   3.594   9.311  1.1755  0.7796 -0.3762
  116OSM   H14T12171   2.251   3.411   9.325 -0.1202  0.0330  1.3208
  116OSM   C15S12172   2.364   3.518   9.166  0.4497 -0.0295 -0.3108
  116OSM   H15S12173   2.441   3.439   9.157  1.8958  1.0416  1.8743
  116OSM   H15T12174   2.420   3.613   9.175  1.0564 -0.4311  0.2462
  116OSM   C16S12175   2.261   3.537   9.053  0.3583  0.1489  0.3410
  116OSM   H16S12176   2.185   3.611   9.086 -1.1897 -0.8250 -0.9518
  116OSM   H16T12177   2.197   3.447   9.053  0.6902 -0.0948  0.8450
  116OSM   C17S12178   2.320   3.572   8.927  0.1500  0.1105  0.1350
  116OSM   H17S12179   2.355   3.471   8.897 -0.2994  0.2734 -0.9764
  116OSM   H17T12180   2.404   3.644   8.936 -0.3825  0.7310  0.1641
  116OSM   C18S12181   2.219   3.635   8.818  0.4213  0.0794 -0.8279
  116OSM   H18S12182   2.133   3.565   8.810 -0.7335  1.4506 -0.8199
  116OSM   H18T12183   2.275   3.621   8.722 -0.2495 -2.1136 -0.9401
  116OSM   H18U12184   2.183   3.738   8.839  1.1083  0.1294  0.1692
  116OSM    C1F12185   2.801   3.246  10.593  0.0278  0.3110  0.3409
  116OSM     OF12186   2.733   3.192  10.676 -0.0767 -0.4295 -0.2526
  116OSM    C2F12187   2.903   3.195  10.493 -0.0415 -0.0329  0.1645
  116OSM    H2F12188   2.965   3.123  10.550 -1.0905 -1.7470 -0.7775
  116OSM    H2G12189   2.965   3.279  10.455 -2.0873  0.7427 -1.7001
  116OSM    C3F12190   2.850   3.123  10.366 -0.0139 -0.4752  0.0138
  116OSM    H3F12191   2.779   3.044  10.399  3.0221 -2.5350  2.0921
  116OSM    H3G12192   2.939   3.078  10.317  0.4095  0.1495  0.1926
  116OSM    C4F12193   2.788   3.220  10.254  0.0452 -0.0692  0.1252
  116OSM    H4F12194   2.702   3.282  10.288 -2.2797 -3.4670  0.9044
  116OSM    H4G12195   2.756   3.148  10.176 -0.5675  1.2085 -0.8353
  116OSM    C5F12196   2.899   3.312  10.191  0.4393  0.3241  0.0492
  116OSM    H5F12197   2.988   3.250  10.169  0.1299  0.1003 -0.6024
  116OSM    H5G12198   2.928   3.399  10.254  2.0126 -0.2262  0.1153
  116OSM    C6F12199   2.858   3.376  10.047 -0.3239 -0.0150 -0.0348
  116OSM    H6F12200   2.941   3.437  10.005 -1.6446  1.1129 -1.0447
  116OSM    H6G12201   2.766   3.437  10.052 -0.5095 -0.3363  0.6201
  116OSM    C7F12202   2.836   3.279   9.943  0.2097 -0.4090  0.4838
  116OSM    H7F12203   2.765   3.201   9.976 -1.1077  0.2695 -0.6608
  116OSM    H7G12204   2.930   3.222   9.925  1.4722  1.8407 -0.5316
  116OSM    C8F12205   2.781   3.335   9.806  0.1827 -0.2087  0.4251
  116OSM    H8F12206   2.853   3.406   9.760 -1.2513  0.5024 -0.8159
  116OSM    H8G12207   2.693   3.390   9.847  0.7383 -0.4761  2.0738
  116OSM    C9F12208   2.735   3.216   9.727  0.4260  0.1294 -0.2278
  116OSM    H9F12209   2.722   3.119   9.775  2.1375  0.6796  1.4785
  116OSM   C10F12210   2.723   3.221   9.590  0.6245  0.3790  0.6771
  116OSM   H10F12211   2.708   3.128   9.535  2.2613  1.1152 -1.1370
  116OSM   C11F12212   2.745   3.340   9.497 -0.1886 -0.2070 -0.5023
  116OSM   H11F12213   2.840   3.397   9.510 -0.0635 -0.1487 -1.5452
  116OSM   H11G12214   2.662   3.412   9.512 -0.4651 -0.7688  0.7428
  116OSM   C12F12215   2.743   3.288   9.345 -0.2574 -0.5528  0.5972
  116OSM   H12F12216   2.646   3.245   9.314 -1.3706  1.0961  1.6163
  116OSM   H12G12217   2.827   3.217   9.327  0.6090  0.3798  0.8582
  116OSM   C13F12218   2.764   3.407   9.241  0.5335  0.0962  0.0234
  116OSM   H13F12219   2.866   3.440   9.271  0.4986  0.1633  0.0686
  116OSM   H13G12220   2.682   3.480   9.257  0.9522  0.4407  0.6735
  116OSM   C14F12221   2.754   3.382   9.096 -0.1314 -0.2877  0.7559
  116OSM   H14F12222   2.650   3.351   9.072 -0.5308  0.7594  1.1106
  116OSM   H14G12223   2.810   3.288   9.074 -3.0012 -2.3118  1.4869
  116OSM   C15F12224   2.792   3.497   9.003 -0.2003 -0.2197  0.4036
  116OSM   H15F12225   2.896   3.514   9.038  0.4991 -0.4803 -1.4331
  116OSM   H15G12226   2.737   3.591   9.026  1.0769  0.9381 -0.9792
  116OSM   C16F12227   2.773   3.483   8.848  0.3852 -0.3036  0.3201
  116OSM   H16F12228   2.859   3.417   8.824 -1.3156 -2.2621 -0.7186
  116OSM   H16G12229   2.780   3.578   8.793 -1.0673 -0.1302  0.4097
  116OSM   C17F12230   2.646   3.420   8.792  0.0045  0.1733 -0.1496
  116OSM   H17F12231   2.562   3.485   8.824  1.8826  2.0106  1.3150
  116OSM   H17G12232   2.634   3.327   8.852 -0.6917  0.1691 -0.2888
  116OSM   C18F12233   2.649   3.391   8.636  0.1435 -0.1467  0.2056
  116OSM   H18F12234   2.626   3.486   8.584 -3.7080 -1.4380 -0.8048
  116OSM   H18G12235   2.552   3.339   8.618  0.2447  0.0861 -1.0592
  116OSM   H18H12236   2.737   3.329   8.608  0.3690  0.7356 -1.0933
  117OSM      N12237   1.601   2.593  11.075  0.1825 -0.2979 -0.1285
  117OSM    C1512238   1.663   2.662  11.194  0.1551  0.0013 -0.1101
  117OSM   H15A12239   1.729   2.591  11.243  1.2553  1.2412  0.2452
  117OSM   H15B12240   1.591   2.687  11.271  0.5902 -1.9239  0.9997
  117OSM   H15C12241   1.721   2.749  11.171 -1.4334  1.6256  1.6772
  117OSM    C1412242   1.710   2.585  10.971  0.3097 -1.2288  0.0239
  117OSM   H14A12243   1.792   2.519  10.995 -0.7067 -2.8453 -0.7363
  117OSM   H14B12244   1.748   2.683  10.947 -2.3206 -0.0706  0.3020
  117OSM   H14C12245   1.668   2.544  10.880 -1.6816  1.9994 -0.6667
  117OSM    C1312246   1.561   2.457  11.119 -0.3822 -0.5425 -0.4175
  117OSM   H13A12247   1.527   2.396  11.037  0.4642 -2.7218  0.7782
  117OSM   H13B12248   1.492   2.464  11.202 -1.3538  2.3600 -1.3306
  117OSM   H13C12249   1.643   2.396  11.154 -0.8128 -0.1357  1.3980
  117OSM    C1212250   1.481   2.679  11.019 -0.8830  0.4184  0.0694
  117OSM   H12A12251   1.522   2.777  10.997 -0.7748  0.6306  1.1283
  117OSM   H12B12252   1.404   2.688  11.094  0.2310  2.6631  1.0535
  117OSM    C1112253   1.402   2.615  10.899  0.2816  0.2496  0.4944
  117OSM   H11A12254   1.481   2.601  10.822 -1.4617 -1.1669 -1.1540
  117OSM   H11B12255   1.320   2.687  10.874  0.6385  0.1880 -0.9566
  117OSM      P12256   1.205   2.446  10.900 -0.5485 -0.4176 -0.2696
  117OSM    O1312257   1.194   2.304  10.932 -0.4246 -0.0463  0.6110
  117OSM    O1412258   1.133   2.541  10.991  0.4456  0.0745 -0.4000
  117OSM    O1112259   1.168   2.485  10.752 -0.3833 -0.2136  0.1747
  117OSM    O1212260   1.355   2.479  10.919 -0.5512  0.0907  0.1211
  117OSM    C1S12261   1.234   2.429  10.632  0.1118  0.0963 -0.1263
  117OSM    H1S12262   1.250   2.319  10.636 -1.8811 -0.2070  0.5165
  117OSM    H1T12263   1.331   2.479  10.608  1.1756 -2.1961 -0.9041
  117OSM     NF12264   1.200   2.379  10.387  0.6040 -0.0403  0.2269
  117OSM    HNF12265   1.256   2.422  10.317  1.5489 -0.6735  0.5739
  117OSM    C2S12266   1.147   2.455  10.495 -0.1840  0.2072  0.1288
  117OSM    H2S12267   1.048   2.407  10.512  0.5245 -2.5666 -2.6238
  117OSM    C3S12268   1.138   2.606  10.466 -0.5856  0.1289 -1.0530
  117OSM    H3S12269   1.243   2.636  10.446 -0.1929 -0.1298  0.4899
  117OSM     O312270   1.095   2.678  10.584  0.3564  0.2048  0.2334
  117OSM    HO312271   1.092   2.610  10.651  0.2024 -0.3037 -0.2785
  117OSM    C4S12272   1.057   2.634  10.341  0.2097 -0.2546 -0.5091
  117OSM    H4S12273   1.114   2.630  10.248 -2.3685  2.4632 -2.3736
  117OSM    C5S12274   0.926   2.661  10.333 -0.2358 -0.1718 -0.5857
  117OSM    H5S12275   0.867   2.643  10.425 -0.0056 -0.1512 -0.4322
  117OSM    C6S12276   0.848   2.694  10.204 -0.1825  1.0954 -0.1784
  117OSM    H6S12277   0.807   2.798  10.210 -0.8654  1.0849 -3.1207
  117OSM    H6T12278   0.759   2.628  10.207  1.2071 -0.8827 -0.2600
  117OSM    C7S12279   0.925   2.666  10.081  0.2176  0.3031 -0.3103
  117OSM    H7S12280   0.934   2.555  10.081 -1.5600  0.0878  1.7728
  117OSM    H7T12281   1.024   2.716  10.073  1.5104 -2.2148 -1.0731
  117OSM    C8S12282   0.839   2.690   9.966 -0.1998  0.7556  0.6472
  117OSM    H8S12283   0.780   2.782   9.984  1.0201  1.5827  0.5698
  117OSM    H8T12284   0.776   2.602   9.942 -0.8947  1.5781 -0.6781
  117OSM    C9S12285   0.922   2.701   9.842 -0.3489 -0.2630 -0.3238
  117OSM    H9S12286   0.962   2.598   9.829 -3.1130 -1.3184 -1.2648
  117OSM    H9T12287   1.003   2.772   9.867 -0.6837  0.2492 -0.6842
  117OSM   C10S12288   0.836   2.744   9.718 -0.2741  0.0388  0.2113
  117OSM   H10S12289   0.790   2.842   9.743 -0.2022  0.2230 -0.3608
  117OSM   H10T12290   0.764   2.662   9.700  0.4880 -0.1840 -2.1351
  117OSM   C11S12291   0.915   2.758   9.584 -0.1089  0.0282 -0.3796
  117OSM   H11S12292   0.951   2.655   9.561  1.3106  0.2028  0.9059
  117OSM   H11T12293   0.998   2.828   9.607 -0.4297  1.1468 -2.3981
  117OSM   C12S12294   0.832   2.813   9.471  0.0374  0.1437 -0.0384
  117OSM   H12S12295   0.792   2.908   9.513  0.0580  0.5436 -0.9129
  117OSM   H12T12296   0.740   2.756   9.444  1.5059 -1.0451 -2.9116
  117OSM   C13S12297   0.910   2.856   9.345 -0.1813 -0.0239  0.2216
  117OSM   H13S12298   1.018   2.879   9.353 -0.1966  0.1559 -0.0669
  117OSM   H13T12299   0.862   2.943   9.295  1.2977  0.3785 -0.5293
  117OSM   C14S12300   0.892   2.748   9.235  0.0031  0.0334  0.2327
  117OSM   H14S12301   0.784   2.741   9.212 -0.0994  0.0011  0.7166
  117OSM   H14T12302   0.921   2.657   9.291 -1.5068  1.1942  3.1523
  117OSM   C15S12303   0.981   2.771   9.109 -0.3012 -0.4711 -0.0973
  117OSM   H15S12304   0.969   2.690   9.034  0.7219 -1.5089  0.8104
  117OSM   H15T12305   1.092   2.781   9.118  0.1478 -3.9183 -0.2924
  117OSM   C16S12306   0.932   2.904   9.032 -0.2850  0.6126  0.1217
  117OSM   H16S12307   0.947   2.988   9.103 -0.6485  1.9520 -1.3565
  117OSM   H16T12308   0.822   2.899   9.012 -0.2156 -2.3335 -0.0001
  117OSM   C17S12309   1.013   2.927   8.907 -0.2340  0.5016 -0.3215
  117OSM   H17S12310   0.941   2.956   8.827 -1.8844  1.9611  1.5635
  117OSM   H17T12311   1.057   2.832   8.869 -0.8374 -0.1954  0.6697
  117OSM   C18S12312   1.135   3.018   8.907  0.1805 -0.2096 -0.4362
  117OSM   H18S12313   1.181   3.002   8.807 -0.4104 -0.6861 -0.6399
  117OSM   H18T12314   1.200   2.980   8.989  1.1156  0.1101 -1.0215
  117OSM   H18U12315   1.109   3.122   8.934 -0.7356 -0.1716 -1.3967
  117OSM    C1F12316   1.215   2.241  10.378  0.2450  0.5198 -0.0948
  117OSM     OF12317   1.138   2.166  10.443 -0.3328 -0.2000 -0.2790
  117OSM    C2F12318   1.332   2.198  10.294  0.1268 -0.0087  0.5707
  117OSM    H2F12319   1.396   2.139  10.364 -0.7575  0.7420  2.0782
  117OSM    H2G12320   1.398   2.283  10.269 -1.8431  1.1557 -0.9235
  117OSM    C3F12321   1.286   2.108  10.169  0.0730 -0.6307  0.0033
  117OSM    H3F12322   1.210   2.164  10.112 -1.7319 -2.1417  0.8320
  117OSM    H3G12323   1.234   2.022  10.217 -0.9935  0.7782  1.4684
  117OSM    C4F12324   1.395   2.053  10.082 -0.6474 -0.1305  0.3942
  117OSM    H4F12325   1.460   1.987  10.143 -1.4343 -1.7566 -0.4737
  117OSM    H4G12326   1.452   2.131  10.027  0.3138 -1.7379 -1.0154
  117OSM    C5F12327   1.348   1.948   9.973  0.4971 -0.3250 -0.0567
  117OSM    H5F12328   1.261   1.887  10.007  0.8470 -0.6464  0.2753
  117OSM    H5G12329   1.431   1.884   9.938 -0.2838 -0.9375 -0.8344
  117OSM    C6F12330   1.291   2.027   9.838 -0.5564  0.2873 -0.3091
  117OSM    H6F12331   1.371   2.102   9.818  0.0174 -0.7611 -2.2252
  117OSM    H6G12332   1.201   2.080   9.876 -0.1733  1.0719 -0.4853
  117OSM    C7F12333   1.249   1.928   9.732 -0.6997 -0.1223 -0.6103
  117OSM    H7F12334   1.190   1.845   9.777  1.9321 -1.4751  0.5744
  117OSM    H7G12335   1.333   1.868   9.691 -0.2512 -0.0575  0.1913
  117OSM    C8F12336   1.172   1.974   9.608  0.0056  0.1250 -0.3753
  117OSM    H8F12337   1.072   2.001   9.648  0.0573 -1.1274  0.6693
  117OSM    H8G12338   1.151   1.893   9.535  2.1967 -1.0436  0.2190
  117OSM    C9F12339   1.243   2.092   9.552 -0.0752  0.6936 -0.8890
  117OSM    H9F12340   1.274   2.171   9.622 -1.0149  1.9041 -1.8053
  117OSM   C10F12341   1.277   2.117   9.424 -0.6816 -0.2656 -0.6903
  117OSM   H10F12342   1.342   2.204   9.408 -0.0622 -0.7992 -1.1241
  117OSM   C11F12343   1.247   2.025   9.305  0.3710 -0.2625  0.3806
  117OSM   H11F12344   1.158   1.963   9.329 -0.8495  1.9516  2.0398
  117OSM   H11G12345   1.340   1.967   9.288  1.1046  1.0750 -0.3226
  117OSM   C12F12346   1.209   2.104   9.173 -0.5501 -0.2946 -0.3886
  117OSM   H12F12347   1.129   2.181   9.173  0.6124  0.9527  0.6576
  117OSM   H12G12348   1.168   2.024   9.107 -1.5527  2.7032 -3.7187
  117OSM   C13F12349   1.338   2.167   9.119  0.2140 -0.4560 -0.1789
  117OSM   H13F12350   1.419   2.091   9.121  1.3573  0.7295  0.0310
  117OSM   H13G12351   1.365   2.246   9.192 -0.1189 -0.2308 -0.2971
  117OSM   C14F12352   1.327   2.215   8.976 -0.0611 -0.0655 -0.1527
  117OSM   H14F12353   1.295   2.128   8.915  1.9553 -1.8013  1.1262
  117OSM   H14G12354   1.424   2.243   8.929 -1.4254  1.4166 -2.2563
  117OSM   C15F12355   1.233   2.328   8.950 -0.3958  0.2171 -0.3505
  117OSM   H15F12356   1.264   2.415   9.012  0.4042 -0.8162  0.7387
  117OSM   H15G12357   1.133   2.300   8.987  0.9256 -1.7539  1.9850
  117OSM   C16F12358   1.236   2.374   8.803  0.2216  1.1127  0.3215
  117OSM   H16F12359   1.199   2.289   8.743  0.8351  0.9622  0.1521
  117OSM   H16G12360   1.344   2.392   8.786  0.2963 -0.3919 -0.9619
  117OSM   C17F12361   1.150   2.498   8.796 -0.0943 -0.4552  0.2622
  117OSM   H17F12362   1.171   2.572   8.876 -1.8829  2.4533 -1.7750
  117OSM   H17G12363   1.042   2.473   8.805  0.1383 -1.3001  0.9107
  117OSM   C18F12364   1.169   2.571   8.663 -0.2066 -0.0029 -0.2362
  117OSM   H18F12365   1.268   2.622   8.658  0.0658 -0.2321  1.8835
  117OSM   H18G12366   1.099   2.657   8.667  0.7804  0.8318 -0.5017
  117OSM   H18H12367   1.158   2.499   8.579  0.8884 -1.7516  1.0383
  118OSM      N12368   2.240   3.555  10.938 -0.4168 -0.8823 -0.4422
  118OSM    C1512369   2.236   3.634  10.808  0.3092 -0.5667  0.8649
  118OSM   H15A12370   2.338   3.638  10.771  0.0467 -0.9576  0.0766
  118OSM   H15B12371   2.225   3.740  10.823  1.3961  0.2737 -3.0680
  118OSM   H15C12372   2.165   3.611  10.731 -0.0403  1.2150  0.6083
  118OSM    C1412373   2.107   3.499  10.954 -0.3200 -0.3639 -0.3562
  118OSM   H14A12374   2.046   3.569  11.010 -0.3589 -0.9982  0.4038
  118OSM   H14B12375   2.108   3.408  11.011  0.6899 -0.4152 -0.4490
  118OSM   H14C12376   2.052   3.486  10.861 -0.5909  2.0411 -0.6047
  118OSM    C1312377   2.331   3.439  10.908 -0.6781  0.4552  0.7504
  118OSM   H13A12378   2.434   3.467  10.889 -0.3606 -1.2209 -0.2759
  118OSM   H13B12379   2.294   3.384  10.823  0.8531  0.0695  0.2985
  118OSM   H13C12380   2.333   3.368  10.990  0.3784 -0.8878 -0.3873
  118OSM    C1212381   2.273   3.626  11.067  0.0714 -0.6774 -0.2315
  118OSM   H12A12382   2.372   3.669  11.070 -0.2254 -0.0200  0.4491
  118OSM   H12B12383   2.266   3.552  11.146  1.8151 -1.3258 -0.6378
  118OSM    C1112384   2.182   3.748  11.112 -0.0239 -0.4034  0.4436
  118OSM   H11A12385   2.181   3.824  11.030  0.9409 -1.2483 -0.3720
  118OSM   H11B12386   2.240   3.793  11.195 -0.8849 -0.5344  1.1292
  118OSM      P12387   1.950   3.818  11.206  0.1793 -0.0737  0.3978
  118OSM    O1312388   1.901   3.755  11.330 -0.6227 -0.3531 -0.2524
  118OSM    O1412389   2.005   3.953  11.216 -0.5524  0.2327 -0.2487
  118OSM    O1112390   1.843   3.815  11.096  0.4810 -0.0480 -0.0996
  118OSM    O1212391   2.046   3.716  11.146 -0.4004  0.3138  0.2456
  118OSM    C1S12392   1.883   3.819  10.957 -0.2024  1.2083 -0.1616
  118OSM    H1S12393   1.895   3.716  10.918  2.4505  0.7649  1.5650
  118OSM    H1T12394   1.983   3.865  10.941 -1.2606  3.5723 -0.4367
  118OSM     NF12395   1.816   3.879  10.723 -0.2875 -0.2856 -0.2277
  118OSM    HNF12396   1.842   3.962  10.675 -0.9199 -0.2291 -0.4753
  118OSM    C2S12397   1.792   3.900  10.863 -0.0315 -0.1337 -0.1554
  118OSM    H2S12398   1.686   3.874  10.888  0.5719  0.2505  3.3637
  118OSM    C3S12399   1.800   4.054  10.904  0.0029  0.2601  0.6139
  118OSM    H3S12400   1.904   4.093  10.901  0.4874 -0.9460  0.9113
  118OSM     O312401   1.753   4.083  11.036 -0.0567  0.4429 -0.0565
  118OSM    HO312402   1.791   4.007  11.080 -1.3418 -0.2226 -0.0742
  118OSM    C4S12403   1.710   4.135  10.817 -0.1165  0.0042  0.2809
  118OSM    H4S12404   1.607   4.097  10.812  0.3850 -2.4316  4.5170
  118OSM    C5S12405   1.742   4.250  10.756  0.1817 -0.0195 -0.1774
  118OSM    H5S12406   1.840   4.291  10.784  1.0627 -1.9242 -0.3361
  118OSM    C6S12407   1.667   4.345  10.659 -0.6656  0.5062  0.4693
  118OSM    H6S12408   1.689   4.450  10.687  0.7053  1.0076 -2.2218
  118OSM    H6T12409   1.558   4.328  10.671 -0.9691  3.1062  2.2449
  118OSM    C7S12410   1.698   4.305  10.515  0.1556 -0.3488 -0.8725
  118OSM    H7S12411   1.681   4.197  10.494 -0.0256 -0.9508  1.9746
  118OSM    H7T12412   1.807   4.323  10.510  0.1615  0.7579  1.6526
  118OSM    C8S12413   1.633   4.401  10.407  0.1058  0.3952 -0.5560
  118OSM    H8S12414   1.645   4.500  10.455 -1.3289 -0.1991  1.1833
  118OSM    H8T12415   1.524   4.380  10.397 -0.4670  0.9533  3.0400
  118OSM    C9S12416   1.699   4.385  10.265 -0.3293 -0.5459 -0.1217
  118OSM    H9S12417   1.707   4.281  10.227 -0.4448 -0.2985 -0.8409
  118OSM    H9T12418   1.805   4.407  10.292 -0.2459 -0.9308 -0.1317
  118OSM   C10S12419   1.659   4.485  10.156  0.7238  0.1335 -0.1984
  118OSM   H10S12420   1.735   4.561  10.126  0.4263  1.9552  3.1661
  118OSM   H10T12421   1.567   4.532  10.197 -0.7276 -2.6710  0.0342
  118OSM   C11S12422   1.607   4.400  10.037 -0.6755  0.0935 -0.0651
  118OSM   H11S12423   1.556   4.466   9.964 -2.4459 -3.9225 -2.8485
  118OSM   H11T12424   1.521   4.341  10.076 -0.9026 -1.9709 -3.2678
  118OSM   C12S12425   1.713   4.327   9.956  0.0101  0.5697  0.4490
  118OSM   H12S12426   1.715   4.216   9.968  0.7316  0.1023 -3.0381
  118OSM   H12T12427   1.809   4.360  10.001  0.5581 -3.4483  2.7066
  118OSM   C13S12428   1.696   4.358   9.805  0.1112  0.8898 -1.0320
  118OSM   H13S12429   1.720   4.463   9.776  1.1146  0.7436 -0.7663
  118OSM   H13T12430   1.588   4.339   9.789 -0.7707  3.2864  1.2571
  118OSM   C14S12431   1.789   4.270   9.723  0.1153  0.5741  0.7398
  118OSM   H14S12432   1.781   4.163   9.753  1.2051  0.5334  0.9004
  118OSM   H14T12433   1.898   4.291   9.732 -0.2134  2.8625  0.0709
  118OSM   C15S12434   1.732   4.273   9.572  0.3238  0.3106  0.0513
  118OSM   H15S12435   1.814   4.246   9.502  2.0210  1.3118  1.5546
  118OSM   H15T12436   1.687   4.372   9.548 -0.6339 -0.1854 -0.2490
  118OSM   C16S12437   1.618   4.176   9.543  0.3447 -0.7098 -1.6785
  118OSM   H16S12438   1.530   4.191   9.609  1.4067  2.4393 -0.8115
  118OSM   H16T12439   1.657   4.073   9.558  2.4871  0.0716 -1.5166
  118OSM   C17S12440   1.556   4.205   9.407 -0.3401  0.2145 -0.4815
  118OSM   H17S12441   1.627   4.183   9.325  1.1976  1.1477  0.5293
  118OSM   H17T12442   1.527   4.311   9.393  0.7980  0.3717 -1.8320
  118OSM   C18S12443   1.428   4.142   9.386  0.2723  0.5800  0.5613
  118OSM   H18S12444   1.353   4.173   9.463 -1.6873 -1.4687 -0.4102
  118OSM   H18T12445   1.433   4.032   9.398 -0.7802  0.4745  0.0767
  118OSM   H18U12446   1.386   4.163   9.286 -1.6842 -2.9771  0.4609
  118OSM    C1F12447   1.791   3.756  10.667  0.4436 -0.0441  0.0495
  118OSM     OF12448   1.759   3.652  10.729  0.1147 -0.2116 -0.1308
  118OSM    C2F12449   1.809   3.750  10.520  0.3304  0.5341  0.2143
  118OSM    H2F12450   1.916   3.726  10.501  0.8802  0.5598  2.8905
  118OSM    H2G12451   1.792   3.853  10.481  0.9005  0.0860 -1.3200
  118OSM    C3F12452   1.729   3.646  10.445  1.0208 -0.5674 -0.1217
  118OSM    H3F12453   1.624   3.682  10.456  0.6997 -1.5590  0.1204
  118OSM    H3G12454   1.749   3.544  10.485  0.9585 -0.6121 -0.2063
  118OSM    C4F12455   1.777   3.636  10.301  0.3414  0.2715 -0.1744
  118OSM    H4F12456   1.718   3.550  10.262  0.5981  0.9564 -2.2408
  118OSM    H4G12457   1.881   3.599  10.310 -0.6039 -2.3727  0.7230
  118OSM    C5F12458   1.748   3.758  10.221  0.0967  0.2422  0.6686
  118OSM    H5F12459   1.816   3.844  10.239 -0.2279  0.6942 -0.1850
  118OSM    H5G12460   1.645   3.790  10.247 -0.5629 -1.5168  0.3466
  118OSM    C6F12461   1.763   3.713  10.076  0.4624 -1.0901 -1.2217
  118OSM    H6F12462   1.681   3.640  10.061 -0.1858 -0.6324 -0.0490
  118OSM    H6G12463   1.851   3.645  10.067  2.1135  0.1296  2.9200
  118OSM    C7F12464   1.759   3.822   9.970  0.3147 -0.0690  0.4877
  118OSM    H7F12465   1.853   3.881   9.976 -0.1619  0.9535 -1.3802
  118OSM    H7G12466   1.671   3.885   9.995  0.0598  1.4097 -3.4060
  118OSM    C8F12467   1.742   3.757   9.830 -0.0680  0.2714 -0.2506
  118OSM    H8F12468   1.637   3.721   9.827 -0.4510  0.8107  2.8403
  118OSM    H8G12469   1.802   3.664   9.819 -1.5593 -0.6196 -1.3161
  118OSM    C9F12470   1.774   3.857   9.716 -0.1869  0.2609 -0.4386
  118OSM    H9F12471   1.731   3.958   9.730  1.3714  0.5522  3.6048
  118OSM   C10F12472   1.835   3.826   9.601  0.0012 -0.4076 -0.1078
  118OSM   H10F12473   1.863   3.905   9.530 -1.1215 -0.3946 -0.5486
  118OSM   C11F12474   1.881   3.685   9.568  0.1173  0.3449  0.3702
  118OSM   H11F12475   1.798   3.611   9.558  0.1531  0.3877 -0.2671
  118OSM   H11G12476   1.956   3.646   9.640 -0.2296 -0.7225  0.1684
  118OSM   C12F12477   1.956   3.667   9.439  0.1102 -0.4594  0.1047
  118OSM   H12F12478   2.004   3.568   9.424 -2.1407 -1.3868 -1.6970
  118OSM   H12G12479   2.035   3.744   9.429 -2.0238  1.6445 -2.0841
  118OSM   C13F12480   1.862   3.681   9.316  0.0046  0.5010  0.2268
  118OSM   H13F12481   1.789   3.765   9.323  0.5094  1.2084 -2.0894
  118OSM   H13G12482   1.809   3.583   9.321  2.8580 -1.1582 -0.2077
  118OSM   C14F12483   1.928   3.688   9.169  0.1958  0.1390  0.0745
  118OSM   H14F12484   1.852   3.666   9.091  2.6582 -0.8424 -2.1622
  118OSM   H14G12485   2.005   3.610   9.155  1.4872  1.6150 -1.5003
  118OSM   C15F12486   1.991   3.825   9.146 -0.3250  0.3064  0.3543
  118OSM   H15F12487   2.044   3.828   9.049  2.1638  1.4762  1.6323
  118OSM   H15G12488   2.076   3.834   9.218  1.7256 -2.3616 -1.5441
  118OSM   C16F12489   1.884   3.937   9.152  0.8484  0.4448  0.1785
  118OSM   H16F12490   1.861   3.945   9.260 -2.8276 -0.6470 -0.4030
  118OSM   H16G12491   1.792   3.899   9.103  0.6100  1.5205 -0.2163
  118OSM   C17F12492   1.924   4.063   9.081  0.1565 -0.9875  0.3983
  118OSM   H17F12493   1.963   4.041   8.979  5.3634 -0.2779  1.9471
  118OSM   H17G12494   2.016   4.091   9.137 -0.5167  1.2061  0.4993
  118OSM   C18F12495   1.812   4.165   9.074 -0.1383  0.4207 -0.4787
  118OSM   H18F12496   1.843   4.242   8.999  0.2268 -0.5444 -1.3424
  118OSM   H18G12497   1.784   4.217   9.168 -1.4691 -1.8761  0.4707
  118OSM   H18H12498   1.724   4.114   9.030  0.4710 -1.5290  0.4517
  119OSM      N12499   1.824   3.338  11.276 -0.4616 -0.5106  0.1153
  119OSM    C1512500   1.717   3.410  11.354 -0.5500  0.2858 -0.2071
  119OSM   H15A12501   1.658   3.482  11.299 -1.6130  2.2118  3.1660
  119OSM   H15B12502   1.757   3.445  11.448 -0.4270  0.6817 -0.4061
  119OSM   H15C12503   1.648   3.334  11.389  0.9057  0.0739  2.4427
  119OSM    C1412504   1.936   3.439  11.245 -0.5397 -0.2436  0.2138
  119OSM   H14A12505   1.908   3.522  11.182  1.8915  1.4981  1.2737
  119OSM   H14B12506   2.022   3.382  11.211 -0.3722 -0.4113  0.9039
  119OSM   H14C12507   1.967   3.475  11.342  0.8318 -1.5567  0.3016
  119OSM    C1312508   1.876   3.233  11.369  0.4875 -0.4331  0.0259
  119OSM   H13A12509   1.946   3.174  11.313 -0.8698 -1.1999 -0.9369
  119OSM   H13B12510   1.796   3.168  11.402 -1.0541  0.5137 -1.6846
  119OSM   H13C12511   1.918   3.285  11.454  2.1518 -0.9212 -0.4801
  119OSM    C1212512   1.768   3.281  11.148 -0.0193  0.3703  0.4670
  119OSM   H12A12513   1.732   3.361  11.085  0.4681  1.1353  1.1452
  119OSM   H12B12514   1.685   3.220  11.181  0.3834 -0.4785 -0.0387
  119OSM    C1112515   1.862   3.193  11.065  0.5806  0.3118 -0.3696
  119OSM   H11A12516   1.964   3.238  11.058  0.5391  0.9712  2.1239
  119OSM   H11B12517   1.815   3.180  10.966  0.1416 -1.1386  0.0104
  119OSM      P12518   1.992   2.975  11.075  0.2248  0.0234 -0.1857
  119OSM    O1312519   2.122   3.033  11.124  0.0664 -0.6608 -0.4435
  119OSM    O1412520   1.961   2.839  11.103 -0.1355  0.4074 -1.1208
  119OSM    O1112521   1.979   2.992  10.922  0.1779 -0.1900  0.1713
  119OSM    O1212522   1.877   3.069  11.127 -0.0136 -0.1946 -0.1905
  119OSM    C1S12523   1.868   2.931  10.849 -0.7624  0.3489 -0.3071
  119OSM    H1S12524   1.778   2.912  10.912 -0.3691  0.8907  0.4272
  119OSM    H1T12525   1.919   2.849  10.794  2.6906  2.0794  0.0703
  119OSM     NF12526   1.754   2.947  10.618  0.5908 -0.3272  0.3505
  119OSM    HNF12527   1.812   2.935  10.538 -0.2446 -1.1994 -0.1374
  119OSM    C2S12528   1.827   3.020  10.725  0.4173 -0.5567  0.1823
  119OSM    H2S12529   1.752   3.097  10.755  0.9967 -0.0762  0.4283
  119OSM    C3S12530   1.944   3.101  10.665 -0.0663  0.6138  0.0811
  119OSM    H3S12531   2.020   3.030  10.624  1.9906  0.3285  3.9638
  119OSM     O312532   2.018   3.184  10.748 -0.1442  0.1692  0.0739
  119OSM    HO312533   2.024   3.132  10.829  2.2803 -3.2344 -2.0513
  119OSM    C4S12534   1.899   3.197  10.556  0.1475 -0.2121  0.5437
  119OSM    H4S12535   1.823   3.269  10.589  2.5010  1.6855  2.2475
  119OSM    C5S12536   1.964   3.218  10.442 -0.0786  0.2817 -0.6703
  119OSM    H5S12537   2.063   3.170  10.437 -0.1061 -0.3875  2.6467
  119OSM    C6S12538   1.933   3.313  10.327  0.9013  0.2718 -0.6275
  119OSM    H6S12539   2.025   3.374  10.332  2.2098 -1.6800  0.8640
  119OSM    H6T12540   1.841   3.375  10.332  0.5056 -0.3750  2.5839
  119OSM    C7S12541   1.924   3.215  10.206 -0.0283  0.2780 -0.1843
  119OSM    H7S12542   1.821   3.176  10.189  0.1678 -0.3738  0.1058
  119OSM    H7T12543   1.989   3.126  10.196 -0.0915  0.1071  0.7907
  119OSM    C8S12544   1.966   3.300  10.084  0.0040 -0.0663  0.3829
  119OSM    H8S12545   2.074   3.325  10.079  0.7026 -2.0741  3.2500
  119OSM    H8T12546   1.913   3.398  10.086 -2.7770 -1.4427 -0.7069
  119OSM    C9S12547   1.935   3.224   9.949 -0.3395  0.0245 -0.1796
  119OSM    H9S12548   1.826   3.204   9.953 -0.6270  1.3330 -0.8532
  119OSM    H9T12549   1.990   3.128   9.945 -0.0996  0.1440  0.1786
  119OSM   C10S12550   1.961   3.298   9.815 -0.7314  0.2437  0.5186
  119OSM   H10S12551   2.069   3.318   9.800 -0.6447  0.4840  1.4413
  119OSM   H10T12552   1.916   3.400   9.818  0.8277  0.9546  0.6446
  119OSM   C11S12553   1.894   3.230   9.694 -0.1027 -0.2743 -0.5721
  119OSM   H11S12554   1.786   3.250   9.704 -0.3719 -1.8078  0.0014
  119OSM   H11T12555   1.913   3.121   9.705 -0.6253 -0.4395 -1.2966
  119OSM   C12S12556   1.933   3.286   9.564 -0.3878  0.1175 -0.0579
  119OSM   H12S12557   2.028   3.345   9.561 -0.5861  0.4030 -1.3496
  119OSM   H12T12558   1.865   3.361   9.517  1.7155  2.6546  0.6834
  119OSM   C13S12559   1.943   3.177   9.453 -0.2281  0.2582 -1.2219
  119OSM   H13S12560   1.852   3.115   9.465 -0.1826  0.3162 -0.5419
  119OSM   H13T12561   2.032   3.116   9.482 -0.0361  0.6467 -0.9867
  119OSM   C14S12562   1.961   3.241   9.314 -0.2786  1.0380 -0.5273
  119OSM   H14S12563   2.071   3.254   9.301 -0.3393  0.8034 -1.3361
  119OSM   H14T12564   1.919   3.342   9.296  1.1704  1.6506 -0.6220
  119OSM   C15S12565   1.916   3.137   9.201 -0.5612  0.1763 -0.2947
  119OSM   H15S12566   1.806   3.139   9.218 -0.2684  1.2266  1.7457
  119OSM   H15T12567   1.941   3.034   9.236 -0.5564  0.3910  0.3323
  119OSM   C16S12568   1.954   3.176   9.064 -0.1908  0.5517 -0.5391
  119OSM   H16S12569   1.940   3.082   9.006  1.0930  0.3397 -0.5342
  119OSM   H16T12570   2.063   3.195   9.066  0.4410 -1.8417 -3.7350
  119OSM   C17S12571   1.861   3.285   9.023  0.3162  0.1396 -0.3229
  119OSM   H17S12572   1.875   3.383   9.072 -2.3806  0.0022  0.9213
  119OSM   H17T12573   1.760   3.240   9.033  1.2922 -1.8741  1.1194
  119OSM   C18S12574   1.885   3.301   8.873 -0.1273 -0.0691  0.4893
  119OSM   H18S12575   1.823   3.382   8.829  0.4462  0.7601  1.1625
  119OSM   H18T12576   1.884   3.211   8.808  1.7452  0.1225  0.1188
  119OSM   H18U12577   1.990   3.337   8.866 -0.2939  0.6078  1.3157
  119OSM    C1F12578   1.655   2.862  10.643  0.4176 -0.0827  0.2401
  119OSM     OF12579   1.587   2.870  10.746  0.4100 -0.9654 -0.0403
  119OSM    C2F12580   1.625   2.752  10.552  0.2688  0.0573  0.5812
  119OSM    H2F12581   1.590   2.665  10.613 -0.6400  0.7335  1.0487
  119OSM    H2G12582   1.714   2.714  10.498  0.5070  0.4059  0.7206
  119OSM    C3F12583   1.514   2.788  10.443 -0.3440 -0.0257  0.4624
  119OSM    H3F12584   1.426   2.834  10.493  0.5073 -0.3030  2.2513
  119OSM    H3G12585   1.497   2.688  10.396  1.5253 -1.0676  1.8998
  119OSM    C4F12586   1.561   2.881  10.334  0.7953  0.7482  0.4334
  119OSM    H4F12587   1.578   2.976  10.388 -2.2920  1.6263  0.0216
  119OSM    H4G12588   1.488   2.904  10.254  0.6612 -1.9400 -0.3343
  119OSM    C5F12589   1.683   2.841  10.256 -0.3515  0.2373  0.4815
  119OSM    H5F12590   1.668   2.735  10.224  0.6675 -0.2996  1.7202
  119OSM    H5G12591   1.772   2.857  10.321  0.0995 -0.0572 -0.0575
  119OSM    C6F12592   1.709   2.932  10.127 -0.3316  0.2645 -0.0863
  119OSM    H6F12593   1.817   2.921  10.104 -0.4613 -0.9164 -0.2099
  119OSM    H6G12594   1.688   3.038  10.155 -0.9843 -0.4426  2.3945
  119OSM    C7F12595   1.627   2.905  10.003  0.1425  0.6130 -0.6699
  119OSM    H7F12596   1.598   2.996   9.947 -0.8773  0.3353 -0.6075
  119OSM    H7G12597   1.540   2.844  10.036  1.7630 -2.3344 -1.4560
  119OSM    C8F12598   1.698   2.800   9.910 -0.8460 -0.8369 -0.9732
  119OSM    H8F12599   1.623   2.754   9.843  0.0741 -1.4730 -1.5860
  119OSM    H8G12600   1.729   2.718   9.979  2.1583  1.1823  0.2945
  119OSM    C9F12601   1.824   2.849   9.845  0.3295 -0.0612  0.2391
  119OSM    H9F12602   1.895   2.898   9.914 -0.3719  0.4490  0.6123
  119OSM   C10F12603   1.861   2.833   9.716 -0.2305  0.3146 -0.4696
  119OSM   H10F12604   1.964   2.864   9.690  0.7839  0.1270  2.8437
  119OSM   C11F12605   1.786   2.758   9.609 -0.3356  0.1146 -0.7024
  119OSM   H11F12606   1.705   2.818   9.562 -0.4010  1.9824  1.6092
  119OSM   H11G12607   1.734   2.677   9.664  0.3667  1.1780  1.6184
  119OSM   C12F12608   1.865   2.694   9.493  0.1861  1.1011 -0.7321
  119OSM   H12F12609   1.801   2.615   9.447  1.3098 -0.9012  1.0295
  119OSM   H12G12610   1.947   2.638   9.542  0.6208  2.5577  0.2814
  119OSM   C13F12611   1.921   2.786   9.388 -0.3054 -0.4518  0.4102
  119OSM   H13F12612   2.011   2.833   9.433  0.2211  0.1047 -1.1474
  119OSM   H13G12613   1.847   2.865   9.362  2.1049  0.8208 -3.3569
  119OSM   C14F12614   1.980   2.723   9.256  0.4589 -0.0958 -0.3192
  119OSM   H14F12615   1.982   2.614   9.280  1.2238  0.0684  0.3845
  119OSM   H14G12616   2.087   2.747   9.238  0.1811  0.7932 -0.8267
  119OSM   C15F12617   1.890   2.737   9.129  0.0630  0.1674 -0.2764
  119OSM   H15F12618   1.892   2.845   9.105  2.4183  0.2659  0.1287
  119OSM   H15G12619   1.787   2.711   9.159  0.8253 -1.1548  1.4040
  119OSM   C16F12620   1.920   2.643   9.007 -0.0550  0.0082 -0.0492
  119OSM   H16F12621   1.893   2.539   9.035 -1.9064  0.8065  1.3703
  119OSM   H16G12622   2.030   2.636   8.999  0.0575 -2.6959  2.4183
  119OSM   C17F12623   1.857   2.700   8.881 -0.6099 -0.0903 -0.2536
  119OSM   H17F12624   1.747   2.687   8.885 -0.3871 -2.1434  0.1402
  119OSM   H17G12625   1.882   2.652   8.784 -2.9349  2.1285 -2.0806
  119OSM   C18F12626   1.883   2.849   8.855  0.2747  0.2049 -0.1565
  119OSM   H18F12627   1.864   2.881   8.750 -0.6454  0.2095  0.0043
  119OSM   H18G12628   1.986   2.879   8.880  1.3283 -2.1865 -1.2556
  119OSM   H18H12629   1.805   2.904   8.912  1.4746  0.0347  1.7146
  120OSM      N12630   3.074   0.393  10.690  0.1674 -0.2402  1.1677
  120OSM    C1512631   3.196   0.421  10.764  0.7641 -0.3391  0.6503
  120OSM   H15A12632   3.270   0.343  10.759 -0.4444 -1.5654  1.4533
  120OSM   H15B12633   3.180   0.440  10.869 -0.0816  1.1523  0.2916
  120OSM   H15C12634   3.248   0.509  10.728  2.2182 -0.2950  2.6796
  120OSM    C1412635   3.004   0.526  10.672 -0.1401 -0.6662 -0.0218
  120OSM   H14A12636   2.951   0.553  10.762  0.1236  1.1693 -0.3772
  120OSM   H14B12637   2.953   0.540  10.578  1.9998 -1.1667 -1.3143
  120OSM   H14C12638   3.069   0.612  10.670 -2.8172  1.4949 -0.5966
  120OSM    C1312639   3.115   0.351  10.554  0.4672  0.4529  0.6861
  120OSM   H13A12640   3.023   0.337  10.497  1.0070 -0.4656  0.0096
  120OSM   H13B12641   3.178   0.263  10.558 -2.2589 -1.8324 -1.5365
  120OSM   H13C12642   3.156   0.440  10.508 -0.6758  1.0483  0.7847
  120OSM    C1212643   2.989   0.288  10.760 -0.1060 -0.8499  1.0945
  120OSM   H12A12644   2.951   0.339  10.847  0.7270  0.0326  0.9574
  120OSM   H12B12645   3.052   0.214  10.807  0.6838 -0.7444  0.2294
  120OSM    C1112646   2.872   0.211  10.693 -0.5447 -0.3062 -0.1872
  120OSM   H11A12647   2.836   0.121  10.748  2.5281 -0.4031  1.8833
  120OSM   H11B12648   2.913   0.184  10.593 -1.8391 -0.8480 -0.5984
  120OSM      P12649   2.652   0.328  10.764 -0.2044  0.0988 -0.1169
  120OSM    O1312650   2.701   0.299  10.901 -0.4474  0.2435  0.9799
  120OSM    O1412651   2.605   0.470  10.742  0.3671  0.4991 -0.2124
  120OSM    O1112652   2.540   0.225  10.720  0.2911  0.1080  0.0165
  120OSM    O1212653   2.757   0.297  10.665 -0.1925  0.2566  0.0644
  120OSM    C1S12654   2.483   0.238  10.593  0.0740  0.6329 -0.0007
  120OSM    H1S12655   2.502   0.332  10.538  0.1198 -0.1403 -1.3668
  120OSM    H1T12656   2.372   0.234  10.603  0.1886 -2.2949  0.9921
  120OSM     NF12657   2.470   0.141  10.361  0.1919  0.2040 -0.5576
  120OSM    HNF12658   2.399   0.075  10.340 -0.7677  0.7873  0.7183
  120OSM    C2S12659   2.524   0.120  10.490 -0.2302 -0.8090  0.4552
  120OSM    H2S12660   2.634   0.123  10.477  0.0331 -0.6234  2.3413
  120OSM    C3S12661   2.489  -0.019  10.543 -0.3075  0.3548  0.9905
  120OSM    H3S12662   2.379  -0.034  10.549 -0.3001 -0.3369 -0.2184
  120OSM     O312663   2.536  -0.037  10.677 -0.1890 -0.2979  0.4174
  120OSM    HO312664   2.559   0.052  10.705 -1.7876 -0.3936  2.2434
  120OSM    C4S12665   2.565  -0.130  10.468 -0.6393 -0.6516  0.2529
  120OSM    H4S12666   2.671  -0.110  10.449 -0.6102 -0.3145  0.7463
  120OSM    C5S12667   2.514  -0.239  10.411  0.5069  1.0818 -0.5117
  120OSM    H5S12668   2.406  -0.256  10.421  0.8059 -0.6044  0.1963
  120OSM    C6S12669   2.584  -0.349  10.331 -0.3478  0.1283 -0.1963
  120OSM    H6S12670   2.542  -0.448  10.356 -0.1834 -0.1589 -1.0221
  120OSM    H6T12671   2.693  -0.350  10.354 -0.5171  0.5359  0.6454
  120OSM    C7S12672   2.575  -0.334  10.176  0.0240  0.1942  0.2713
  120OSM    H7S12673   2.471  -0.342  10.136  0.8968  1.0254 -2.4284
  120OSM    H7T12674   2.636  -0.415  10.131 -0.7504 -0.1375 -0.1936
  120OSM    C8S12675   2.646  -0.205  10.106  1.0247 -0.0583  0.2873
  120OSM    H8S12676   2.746  -0.197  10.155  1.0085 -0.5236  0.3961
  120OSM    H8T12677   2.591  -0.112  10.131 -1.2912 -1.9173  2.5497
  120OSM    C9S12678   2.654  -0.224   9.951  0.1439 -0.1394 -0.0054
  120OSM    H9S12679   2.721  -0.307   9.922  0.6285  0.2980 -0.1444
  120OSM    H9T12680   2.711  -0.138   9.909 -1.1369 -0.0318 -1.6220
  120OSM   C10S12681   2.512  -0.227   9.889 -0.4930  0.7490  0.4926
  120OSM   H10S12682   2.464  -0.133   9.924  0.1620  1.7298 -1.1150
  120OSM   H10T12683   2.454  -0.313   9.931  1.6506 -1.2554 -0.4277
  120OSM   C11S12684   2.512  -0.223   9.739 -0.3453 -0.2281  0.5834
  120OSM   H11S12685   2.575  -0.147   9.689  1.4000 -0.7748  1.8451
  120OSM   H11T12686   2.408  -0.213   9.702  0.3131 -1.2910 -1.7502
  120OSM   C12S12687   2.551  -0.352   9.670 -0.3493 -0.3135  0.0583
  120OSM   H12S12688   2.497  -0.436   9.721  0.2040 -0.8395 -0.2105
  120OSM   H12T12689   2.659  -0.360   9.692 -0.7455 -2.9631  1.4779
  120OSM   C13S12690   2.529  -0.349   9.516  0.1693 -0.4277 -0.7141
  120OSM   H13S12691   2.612  -0.296   9.465  0.7099 -1.0840 -0.5223
  120OSM   H13T12692   2.425  -0.313   9.498 -0.6221 -1.8108  0.7667
  120OSM   C14S12693   2.535  -0.496   9.468  0.2262 -0.2270 -0.1211
  120OSM   H14S12694   2.440  -0.551   9.486 -0.0592  1.0511  2.8544
  120OSM   H14T12695   2.618  -0.534   9.531 -1.5848 -1.0272  1.9207
  120OSM   C15S12696   2.578  -0.515   9.320  0.6321 -0.7352  0.0161
  120OSM   H15S12697   2.676  -0.467   9.298  0.1666 -0.0964 -0.7460
  120OSM   H15T12698   2.497  -0.468   9.260  0.2317 -1.9858 -0.4378
  120OSM   C16S12699   2.598  -0.663   9.286 -0.2934  0.7302  0.2885
  120OSM   H16S12700   2.494  -0.697   9.303  0.6225 -1.6949  1.5152
  120OSM   H16T12701   2.662  -0.718   9.358  1.2225  2.5430  0.3933
  120OSM   C17S12702   2.640  -0.698   9.140 -0.0082 -0.0845 -0.6238
  120OSM   H17S12703   2.673  -0.805   9.140 -3.8840 -1.4920  1.9375
  120OSM   H17T12704   2.733  -0.638   9.128 -0.7385  0.7437 -2.3842
  120OSM   C18S12705   2.532  -0.687   9.041  0.4962 -0.5549  0.9290
  120OSM   H18S12706   2.551  -0.746   8.949  1.5764 -0.4654  1.0917
  120OSM   H18T12707   2.515  -0.581   9.013  2.0031 -0.6432 -0.4511
  120OSM   H18U12708   2.434  -0.710   9.088 -0.3660  1.5389  0.2677
  120OSM    C1F12709   2.490   0.242  10.276 -0.1506  0.6837  0.4374
  120OSM     OF12710   2.573   0.328  10.306 -0.0994  0.0668 -0.5665
  120OSM    C2F12711   2.413   0.238  10.137  0.5655 -0.2407 -0.3611
  120OSM    H2F12712   2.350   0.329  10.123 -0.9028 -1.0242  0.8967
  120OSM    H2G12713   2.347   0.150  10.125 -0.9750  0.5832  1.6286
  120OSM    C3F12714   2.524   0.252  10.032  0.3094  0.1350 -0.3125
  120OSM    H3F12715   2.592   0.165  10.020  3.1847  2.3131 -0.7208
  120OSM    H3G12716   2.582   0.344  10.052 -0.5661  0.4987  0.6357
  120OSM    C4F12717   2.466   0.273   9.887  0.1489 -0.0150 -0.1738
  120OSM    H4F12718   2.551   0.301   9.821 -1.0913 -0.0373 -1.8762
  120OSM    H4G12719   2.398   0.360   9.900  0.5451  0.0873  1.3440
  120OSM    C5F12720   2.391   0.146   9.831 -0.3967 -0.1391  0.3309
  120OSM    H5F12721   2.332   0.100   9.914  3.0525  0.8510  3.6384
  120OSM    H5G12722   2.475   0.080   9.801 -0.2900  0.1853 -0.0810
  120OSM    C6F12723   2.303   0.177   9.717 -0.0816  0.2709 -0.2676
  120OSM    H6F12724   2.213   0.231   9.751 -0.8151 -1.4137  0.6045
  120OSM    H6G12725   2.268   0.076   9.687 -1.8503 -0.0539  2.5656
  120OSM    C7F12726   2.367   0.259   9.600 -0.1884 -0.1021 -0.0275
  120OSM    H7F12727   2.390   0.363   9.632  0.7085 -0.0196 -0.8701
  120OSM    H7G12728   2.290   0.266   9.520 -0.5915  3.0889  0.5129
  120OSM    C8F12729   2.512   0.220   9.548  0.4521  0.2847 -0.1815
  120OSM    H8F12730   2.582   0.207   9.633 -0.3813 -0.0612  0.4711
  120OSM    H8G12731   2.548   0.298   9.478 -0.6897  2.9660  1.9933
  120OSM    C9F12732   2.498   0.086   9.480 -0.6370  0.2110 -0.3846
  120OSM    H9F12733   2.522  -0.001   9.543  0.4041  0.9883  0.3271
  120OSM   C10F12734   2.466   0.062   9.351  0.7543 -0.1960 -0.2742
  120OSM   H10F12735   2.476  -0.042   9.316 -1.4985 -0.5126 -0.1131
  120OSM   C11F12736   2.437   0.162   9.248  0.3255 -0.0751  0.3884
  120OSM   H11F12737   2.486   0.258   9.276 -0.1667  0.3350 -0.1140
  120OSM   H11G12738   2.328   0.183   9.237  0.0716 -2.1220 -2.0042
  120OSM   C12F12739   2.478   0.116   9.098  0.2679 -0.4394 -0.1921
  120OSM   H12F12740   2.437   0.018   9.067 -1.8828 -0.2534  1.8029
  120OSM   H12G12741   2.589   0.108   9.088  0.2519 -0.1578 -0.6346
  120OSM   C13F12742   2.436   0.222   9.004 -0.0554 -0.6549  0.5072
  120OSM   H13F12743   2.468   0.323   9.037  4.1726 -1.7308  0.1815
  120OSM   H13G12744   2.326   0.235   8.992  0.2980  0.4163 -2.4518
  120OSM   C14F12745   2.491   0.203   8.864 -0.5604  0.2210  0.5111
  120OSM   H14F12746   2.455   0.112   8.813  0.0264  1.0687 -1.4865
  120OSM   H14G12747   2.600   0.188   8.880 -0.5006 -1.5271 -1.2158
  120OSM   C15F12748   2.471   0.323   8.769 -0.0153 -0.5361 -0.3858
  120OSM   H15F12749   2.511   0.420   8.807 -5.2845  2.0142 -0.4789
  120OSM   H15G12750   2.363   0.342   8.752  0.2267  1.1082 -0.2434
  120OSM   C16F12751   2.542   0.295   8.633  0.1938 -0.4285  0.6924
  120OSM   H16F12752   2.650   0.294   8.661  0.2495 -1.9993  0.4948
  120OSM   H16G12753   2.506   0.379   8.569 -2.1232 -1.2593  0.8267
  120OSM   C17F12754   2.528   0.158   8.560  0.5069  0.2069 -0.9975
  120OSM   H17F12755   2.421   0.129   8.553  0.4908  0.0822 -0.2673
  120OSM   H17G12756   2.576   0.072   8.611  0.2799 -0.7046 -2.2577
  120OSM   C18F12757   2.594   0.142   8.420 -0.4382  0.4635  0.2767
  120OSM   H18F12758   2.566   0.041   8.384  0.5372  0.4731 -0.5294
  120OSM   H18G12759   2.704   0.153   8.432 -0.6741  0.7557  2.8733
  120OSM   H18H12760   2.557   0.224   8.355 -1.1125 -0.6050 -0.7308
  121OSM      N12761   1.593   3.949  11.393  0.2860  0.2732 -0.1998
  121OSM    C1512762   1.462   3.974  11.467 -0.1086  0.3594 -0.3065
  121OSM   H15A12763   1.387   4.031  11.415 -1.0727  1.0777  1.7461
  121OSM   H15B12764   1.484   4.027  11.559  5.3475 -0.2923 -0.9346
  121OSM   H15C12765   1.414   3.879  11.489  0.4828 -0.5455 -2.6106
  121OSM    C1412766   1.670   4.082  11.384  0.0959  0.2963  0.0048
  121OSM   H14A12767   1.606   4.160  11.347  1.4101  0.8059 -1.2643
  121OSM   H14B12768   1.751   4.070  11.314 -2.1623  2.3937 -3.1934
  121OSM   H14C12769   1.708   4.121  11.478 -1.5885  1.0385  0.4169
  121OSM    C1312770   1.673   3.853  11.480 -0.0495 -0.4461  0.5209
  121OSM   H13A12771   1.669   3.873  11.586 -1.6087  0.9591  0.2324
  121OSM   H13B12772   1.776   3.845  11.448  0.1508  4.0257 -0.5834
  121OSM   H13C12773   1.621   3.759  11.466  1.5480 -1.2703 -0.1817
  121OSM    C1212774   1.565   3.882  11.259 -0.1998  0.0331 -0.0618
  121OSM   H12A12775   1.505   3.794  11.275 -0.8654  0.4754 -0.0714
  121OSM   H12B12776   1.657   3.841  11.220 -1.1790 -0.8318 -1.5271
  121OSM    C1112777   1.490   3.964  11.143  0.0510  0.0848  0.6006
  121OSM   H11A12778   1.509   3.917  11.044 -1.0482 -0.8491  0.8024
  121OSM   H11B12779   1.533   4.066  11.138 -0.6848  0.3676 -0.3426
  121OSM      P12780   1.254   3.854  11.159  0.4757  0.0214  0.2334
  121OSM    O1312781   1.307   3.762  11.260 -0.3744  0.4292 -0.4776
  121OSM    O1412782   1.114   3.898  11.167  0.2663  0.4563 -0.2566
  121OSM    O1112783   1.278   3.782  11.018 -0.5144  0.4122  0.4596
  121OSM    O1212784   1.346   3.978  11.165 -0.2372 -0.3185 -0.3936
  121OSM    C1S12785   1.241   3.850  10.891  0.4105 -0.2081  0.1305
  121OSM    H1S12786   1.271   3.956  10.898 -0.4972 -0.0205  1.4643
  121OSM    H1T12787   1.135   3.842  10.858 -0.8843  2.8092  3.0059
  121OSM     NF12788   1.297   3.863  10.649 -0.1983 -0.9141 -0.2674
  121OSM    HNF12789   1.242   3.825  10.576 -1.6044  2.3092 -1.0756
  121OSM    C2S12790   1.321   3.790  10.775  0.1084 -0.6080  0.6690
  121OSM    H2S12791   1.429   3.801  10.800 -0.0766 -0.0839  1.2493
  121OSM    C3S12792   1.295   3.634  10.761 -0.3775  0.0125  0.4403
  121OSM    H3S12793   1.188   3.617  10.738 -0.3576  0.3624  0.0831
  121OSM     O312794   1.319   3.561  10.881 -0.2164  0.6816  0.1572
  121OSM    HO312795   1.302   3.619  10.956  0.4580  1.0127  0.0677
  121OSM    C4S12796   1.380   3.554  10.653  0.1833 -0.4861 -0.1269
  121OSM    H4S12797   1.480   3.532  10.693  0.4155  0.6691 -0.0518
  121OSM    C5S12798   1.346   3.493  10.538 -0.1969  0.3700 -0.0487
  121OSM    H5S12799   1.239   3.508  10.517 -0.8560 -0.7766  2.1973
  121OSM    C6S12800   1.433   3.404  10.454  0.0638 -0.0214 -0.2766
  121OSM    H6S12801   1.389   3.302  10.456  0.7371 -0.3000  1.0646
  121OSM    H6T12802   1.531   3.383  10.501 -0.4365 -1.0073  0.3466
  121OSM    C7S12803   1.447   3.442  10.302  0.3500 -0.4685 -0.4366
  121OSM    H7S12804   1.501   3.538  10.288 -2.6693  1.0026 -3.3044
  121OSM    H7T12805   1.348   3.460  10.256  1.4824  0.0864 -2.8105
  121OSM    C8S12806   1.526   3.334  10.226  1.2714 -0.2181 -0.9001
  121OSM    H8S12807   1.469   3.239  10.221 -0.0436  0.3972  1.2123
  121OSM    H8T12808   1.629   3.310  10.261  0.2550 -2.9613  0.5080
  121OSM    C9S12809   1.538   3.369  10.073 -0.6584 -0.1183 -0.2711
  121OSM    H9S12810   1.587   3.285  10.021  1.3333  0.0148  1.2470
  121OSM    H9T12811   1.620   3.444  10.061  0.7003 -1.2299  1.5591
  121OSM   C10S12812   1.413   3.429   9.999 -0.6373 -0.0048  0.3477
  121OSM   H10S12813   1.401   3.528  10.049  2.1041  0.0886  0.9878
  121OSM   H10T12814   1.320   3.369  10.009  0.6559 -2.1044  0.3147
  121OSM   C11S12815   1.445   3.467   9.851  0.2896  0.6680 -0.0201
  121OSM   H11S12816   1.522   3.547   9.846 -0.5370  1.4260 -1.0509
  121OSM   H11T12817   1.351   3.502   9.803  1.7506  0.7546 -3.0845
  121OSM   C12S12818   1.481   3.341   9.768  0.1709 -0.5835 -0.9803
  121OSM   H12S12819   1.408   3.259   9.785  1.3193 -1.4338  0.0510
  121OSM   H12T12820   1.581   3.308   9.801  0.4104  0.2863 -0.8131
  121OSM   C13S12821   1.486   3.361   9.618 -0.6040 -0.3775 -0.1361
  121OSM   H13S12822   1.548   3.453   9.611  0.6067 -1.1463  0.2104
  121OSM   H13T12823   1.380   3.380   9.591 -0.6277 -0.4232 -0.0753
  121OSM   C14S12824   1.550   3.245   9.538  0.0798 -0.1822  0.0206
  121OSM   H14S12825   1.493   3.151   9.552 -1.1325  0.7155  1.4754
  121OSM   H14T12826   1.654   3.232   9.573 -0.1847  0.3157  1.0470
  121OSM   C15S12827   1.580   3.284   9.390 -0.1145 -0.4471  0.1075
  121OSM   H15S12828   1.645   3.202   9.353  2.4821  0.3563  2.5631
  121OSM   H15T12829   1.628   3.384   9.388 -1.5472  0.2532 -1.0025
  121OSM   C16S12830   1.452   3.300   9.295 -0.0080  0.7016 -0.2474
  121OSM   H16S12831   1.381   3.376   9.333 -1.4733  1.6836 -4.4123
  121OSM   H16T12832   1.402   3.202   9.282  1.3337  0.0252 -0.4498
  121OSM   C17S12833   1.484   3.345   9.152  0.9124 -0.1651  0.6270
  121OSM   H17S12834   1.589   3.383   9.156  0.5144  0.9659  0.6574
  121OSM   H17T12835   1.412   3.426   9.129 -0.4714 -1.5517 -0.0757
  121OSM   C18S12836   1.483   3.243   9.039  0.2431  0.1469 -0.2425
  121OSM   H18S12837   1.511   3.296   8.946 -1.5509  0.2320 -0.7601
  121OSM   H18T12838   1.380   3.203   9.037  1.1429 -2.4828  0.9962
  121OSM   H18U12839   1.553   3.162   9.070 -1.0385  0.0129  2.6280
  121OSM    C1F12840   1.361   3.977  10.632 -0.7910 -0.0448  0.0692
  121OSM     OF12841   1.422   4.028  10.726  0.1010  0.3345  0.1531
  121OSM    C2F12842   1.358   4.038  10.490 -0.2239  0.5828 -0.4929
  121OSM    H2F12843   1.378   4.146  10.505  1.4678  0.4877 -1.7783
  121OSM    H2G12844   1.261   4.019  10.438  0.1215 -1.6144 -0.4402
  121OSM    C3F12845   1.480   3.988  10.404 -0.4401  0.3450  0.2859
  121OSM    H3F12846   1.476   3.877  10.403 -0.7542  0.3549 -0.2589
  121OSM    H3G12847   1.579   4.009  10.449  0.6140 -2.4190 -0.5029
  121OSM    C4F12848   1.472   4.044  10.261 -0.1045 -0.2651  0.1383
  121OSM    H4F12849   1.569   4.061  10.209  0.0563 -0.4868  0.3623
  121OSM    H4G12850   1.418   4.140  10.272  2.1857  0.8414  3.3844
  121OSM    C5F12851   1.391   3.950  10.169 -0.1290  0.2183  0.5171
  121OSM    H5F12852   1.284   3.941  10.198 -0.2557 -1.0547 -0.2845
  121OSM    H5G12853   1.432   3.849  10.192 -0.7889 -0.0252  0.6582
  121OSM    C6F12854   1.405   3.981  10.017  0.5446 -0.4309 -1.0670
  121OSM    H6F12855   1.508   4.015   9.989  1.5203 -0.9466  1.5483
  121OSM    H6G12856   1.335   4.067  10.011  1.3827  0.6333  2.2162
  121OSM    C7F12857   1.358   3.870   9.924  0.1883  0.2125 -0.2818
  121OSM    H7F12858   1.258   3.828   9.945 -0.1475  1.5327  0.8482
  121OSM    H7G12859   1.430   3.790   9.949  1.5122  2.0508  2.2470
  121OSM    C8F12860   1.398   3.891   9.771 -0.3377  0.3715 -0.0436
  121OSM    H8F12861   1.402   3.790   9.725 -1.3341  0.0852  0.4548
  121OSM    H8G12862   1.498   3.937   9.767 -0.9475  1.7080 -0.4922
  121OSM    C9F12863   1.297   3.968   9.691  0.3729 -0.3188 -0.5301
  121OSM    H9F12864   1.299   4.077   9.709  0.1006 -0.0479 -2.0070
  121OSM   C10F12865   1.209   3.920   9.602 -0.4588  0.7914  0.5351
  121OSM   H10F12866   1.157   3.990   9.535  1.7992 -1.4125 -3.9293
  121OSM   C11F12867   1.196   3.776   9.556  0.3954 -0.0545  0.5659
  121OSM   H11F12868   1.091   3.748   9.534  0.6148 -0.2079 -0.3351
  121OSM   H11G12869   1.229   3.714   9.642  0.4661 -1.4653 -0.4502
  121OSM   C12F12870   1.261   3.751   9.419  0.3151  0.0706 -0.0100
  121OSM   H12F12871   1.225   3.829   9.347 -0.8068 -1.1838 -0.8613
  121OSM   H12G12872   1.229   3.655   9.373 -1.8450  1.0003 -0.5679
  121OSM   C13F12873   1.407   3.742   9.422  0.1271  0.4407  0.3346
  121OSM   H13F12874   1.441   3.658   9.486 -0.6517  0.3471  0.6298
  121OSM   H13G12875   1.457   3.830   9.468 -0.9651  0.7784  0.9018
  121OSM   C14F12876   1.458   3.698   9.276 -0.4863 -0.2856  0.5854
  121OSM   H14F12877   1.389   3.626   9.228 -0.0880  1.3001 -2.6382
  121OSM   H14G12878   1.561   3.658   9.293 -0.2582  0.2208  0.4117
  121OSM   C15F12879   1.467   3.818   9.183  0.0857  0.8577 -0.6669
  121OSM   H15F12880   1.550   3.882   9.218  3.5139 -1.6429 -3.4282
  121OSM   H15G12881   1.373   3.877   9.186  0.2301  1.1214 -1.2492
  121OSM   C16F12882   1.489   3.775   9.040 -0.0533 -0.5148  0.2437
  121OSM   H16F12883   1.406   3.713   9.002  0.4991 -2.2520  1.7386
  121OSM   H16G12884   1.580   3.711   9.035  1.1380  1.1114  0.2321
  121OSM   C17F12885   1.510   3.907   8.957  0.2878  0.2555  0.8480
  121OSM   H17F12886   1.612   3.951   8.961  0.6075 -0.3250 -0.3101
  121OSM   H17G12887   1.445   3.988   8.997  1.5999  1.5593  0.4659
  121OSM   C18F12888   1.494   3.875   8.808 -0.0499  0.1040  0.0932
  121OSM   H18F12889   1.408   3.806   8.796 -0.2331  0.2863  0.3444
  121OSM   H18G12890   1.588   3.828   8.773  0.7196  0.8619  1.0773
  121OSM   H18H12891   1.473   3.965   8.745  0.1600 -1.5184 -2.4294
  122OSM      N12892   3.620   2.124  11.068 -0.7700  0.0916  0.0694
  122OSM    C1512893   3.675   2.241  11.004  0.1332 -1.2592  0.8066
  122OSM   H15A12894   3.770   2.282  11.036  1.0360 -0.0955 -2.8443
  122OSM   H15B12895   3.606   2.324  11.000  0.0622 -1.3462 -0.9378
  122OSM   H15C12896   3.705   2.221  10.902  0.7912  3.4544 -0.1897
  122OSM    C1412897   3.703   2.001  11.033  0.3125 -0.4490  0.2314
  122OSM   H14A12898   3.810   2.004  11.029  0.3466  1.6052  1.3331
  122OSM   H14B12899   3.673   1.967  10.935 -0.6834 -1.0968  0.7394
  122OSM   H14C12900   3.672   1.915  11.091 -0.6594 -1.3675 -1.5515
  122OSM    C1312901   3.621   2.141  11.218  0.0161 -0.4732  0.5693
  122OSM   H13A12902   3.718   2.141  11.265  1.4289  0.4171 -2.1024
  122OSM   H13B12903   3.566   2.063  11.268  0.4806  0.0622  1.9712
  122OSM   H13C12904   3.572   2.236  11.236  1.0523 -0.0405  1.1846
  122OSM    C1212905   3.480   2.102  11.023 -0.7644 -0.2463  0.5765
  122OSM   H12A12906   3.438   2.008  11.056 -1.9333 -0.3090 -0.9705
  122OSM   H12B12907   3.474   2.105  10.915 -0.6704  2.2687  0.5748
  122OSM    C1112908   3.372   2.213  11.049 -0.0130 -0.0884  0.6878
  122OSM   H11A12909   3.394   2.298  10.980 -0.3321  0.0207  0.7173
  122OSM   H11B12910   3.386   2.244  11.155 -1.2256 -0.5860  1.0096
  122OSM      P12911   3.122   2.266  10.953 -0.1398 -0.0611 -0.5164
  122OSM    O1312912   3.011   2.179  10.908 -0.0752 -0.2532 -0.0244
  122OSM    O1412913   3.083   2.381  11.042  0.0049  0.0983 -0.1789
  122OSM    O1112914   3.201   2.320  10.830  0.0644  0.5855 -0.2440
  122OSM    O1212915   3.235   2.167  11.028 -0.0949 -0.6473 -0.1083
  122OSM    C1S12916   3.230   2.239  10.716 -0.3531 -0.4507  0.3410
  122OSM    H1S12917   3.206   2.131  10.731 -0.7891 -0.0976  2.7106
  122OSM    H1T12918   3.340   2.241  10.699 -0.5661 -0.1284 -1.0834
  122OSM     NF12919   3.195   2.189  10.473  0.3619 -0.0916 -0.1596
  122OSM    HNF12920   3.270   2.213  10.411 -0.3988  3.9751  0.2416
  122OSM    C2S12921   3.176   2.287  10.576  0.4907 -0.0292  0.2288
  122OSM    H2S12922   3.067   2.299  10.594  0.4712  1.3970 -0.7007
  122OSM    C3S12923   3.229   2.428  10.536  0.1352 -0.4217 -0.4475
  122OSM    H3S12924   3.336   2.425  10.505  0.2834  0.1489 -0.0310
  122OSM     O312925   3.224   2.531  10.641  0.4077  0.2268  0.0648
  122OSM    HO312926   3.221   2.484  10.725 -1.8006 -0.3413 -0.2714
  122OSM    C4S12927   3.148   2.474  10.415 -0.0566  0.2837 -0.3545
  122OSM    H4S12928   3.049   2.519  10.434 -0.9944 -2.2637  1.3448
  122OSM    C5S12929   3.196   2.463  10.292 -0.1661 -0.7626 -0.5078
  122OSM    H5S12930   3.297   2.419  10.285 -0.4324 -1.9875  2.3083
  122OSM    C6S12931   3.127   2.503  10.166 -0.6022 -0.5249  0.7248
  122OSM    H6S12932   3.156   2.605  10.135  1.0673 -0.3809  2.5706
  122OSM    H6T12933   3.016   2.501  10.168 -0.6825  1.3341 -0.0449
  122OSM    C7S12934   3.164   2.408  10.050  0.3569 -0.0567 -0.5585
  122OSM    H7S12935   3.113   2.310  10.064 -0.8647  0.6125 -0.0747
  122OSM    H7T12936   3.272   2.385  10.043  0.3881 -1.2747  2.4470
  122OSM    C8S12937   3.107   2.441   9.914 -0.3025  0.2405  0.3201
  122OSM    H8S12938   2.998   2.461   9.919 -0.6594 -1.3377 -0.5544
  122OSM    H8T12939   3.108   2.339   9.869  1.1408 -1.1394  3.2047
  122OSM    C9S12940   3.189   2.542   9.840 -0.6766  0.6472  0.6034
  122OSM    H9S12941   3.297   2.518   9.849 -0.7439  0.6058  1.3809
  122OSM    H9T12942   3.172   2.644   9.881  2.0951  3.0283 -3.4459
  122OSM   C10S12943   3.138   2.547   9.694  0.5755 -0.2507 -0.6615
  122OSM   H10S12944   3.034   2.584   9.703  0.2684 -0.8595 -1.5512
  122OSM   H10T12945   3.129   2.439   9.669 -2.6521 -0.2696  0.1837
  122OSM   C11S12946   3.230   2.634   9.610 -0.0328  0.5727 -0.3026
  122OSM   H11S12947   3.336   2.603   9.603  0.3836  2.0657 -1.0121
  122OSM   H11T12948   3.222   2.729   9.666 -1.6871 -0.5488  1.4906
  122OSM   C12S12949   3.167   2.655   9.465 -0.3923 -1.1394 -0.4737
  122OSM   H12S12950   3.063   2.694   9.473 -0.1001 -0.3749 -0.2593
  122OSM   H12T12951   3.161   2.553   9.422 -1.1920 -0.8336 -1.1096
  122OSM   C13S12952   3.255   2.725   9.374 -0.1605  0.4442  0.8489
  122OSM   H13S12953   3.359   2.687   9.366  0.0350  0.8774  1.2760
  122OSM   H13T12954   3.268   2.834   9.389  2.0945  0.6336 -1.5913
  122OSM   C14S12955   3.205   2.714   9.231  0.1564  0.7324 -0.1526
  122OSM   H14S12956   3.096   2.731   9.222  0.2779  0.5227 -2.6450
  122OSM   H14T12957   3.211   2.611   9.190  0.5672 -0.1658  2.0159
  122OSM   C15S12958   3.287   2.803   9.142 -0.5513 -0.6151  0.3600
  122OSM   H15S12959   3.398   2.801   9.153 -0.4771  1.7577  0.5247
  122OSM   H15T12960   3.264   2.910   9.161 -0.7594 -0.3893 -1.0524
  122OSM   C16S12961   3.244   2.786   8.998 -0.1843 -0.0311  0.3861
  122OSM   H16S12962   3.134   2.800   8.983 -0.7280 -1.4485  2.6147
  122OSM   H16T12963   3.260   2.682   8.961  0.0117 -0.2085  0.9686
  122OSM   C17S12964   3.312   2.884   8.903  0.5217 -0.0784 -0.1372
  122OSM   H17S12965   3.421   2.860   8.909  0.8145  1.3702  0.7637
  122OSM   H17T12966   3.299   2.985   8.948 -1.3011  0.4158 -1.6427
  122OSM   C18S12967   3.263   2.869   8.756 -0.7749 -0.2894 -0.6744
  122OSM   H18S12968   3.284   2.771   8.709 -2.4972 -0.4592 -1.1724
  122OSM   H18T12969   3.319   2.940   8.691 -0.1110 -0.3652 -0.2000
  122OSM   H18U12970   3.154   2.888   8.751 -0.8807  0.3767  2.0732
  122OSM    C1F12971   3.129   2.075  10.463  0.2550  0.7723 -0.6810
  122OSM     OF12972   3.032   2.054  10.541 -0.1750 -0.1278  1.6736
  122OSM    C2F12973   3.173   1.986  10.347  0.1077  0.1529  0.4182
  122OSM    H2F12974   3.238   1.906  10.391 -0.7143 -0.6195  0.2629
  122OSM    H2G12975   3.246   2.041  10.284  1.2882 -1.6615  0.1173
  122OSM    C3F12976   3.051   1.931  10.261  0.8223 -0.2718 -0.1705
  122OSM    H3F12977   3.004   2.014  10.205  0.2298  0.0253  0.7421
  122OSM    H3G12978   2.984   1.879  10.332  0.1278  1.4472  0.4936
  122OSM    C4F12979   3.113   1.828  10.161  0.3477  0.0891  0.0069
  122OSM    H4F12980   3.037   1.779  10.097  2.8227  0.5638 -3.6416
  122OSM    H4G12981   3.166   1.743  10.211 -1.6019 -1.6565 -0.7571
  122OSM    C5F12982   3.215   1.896  10.065  0.2056 -0.0983 -0.7720
  122OSM    H5F12983   3.313   1.918  10.111 -0.1301  0.4085 -0.2941
  122OSM    H5G12984   3.175   1.997  10.039  1.3218  1.1510  1.9869
  122OSM    C6F12985   3.242   1.805   9.937 -0.2549 -0.5156  0.7245
  122OSM    H6F12986   3.156   1.739   9.916  0.9240 -1.7615 -0.3856
  122OSM    H6G12987   3.327   1.740   9.968 -0.9896 -0.8441  2.1159
  122OSM    C7F12988   3.275   1.902   9.820 -0.1738  0.6441 -0.1214
  122OSM    H7F12989   3.332   1.989   9.859  3.2799 -1.9772  1.3012
  122OSM    H7G12990   3.181   1.942   9.778 -0.8392 -2.0911 -1.4935
  122OSM    C8F12991   3.356   1.845   9.706  0.0747  0.0820  0.5445
  122OSM    H8F12992   3.457   1.809   9.735  1.0023  1.7182 -0.4973
  122OSM    H8G12993   3.379   1.925   9.633 -2.5057  0.3136 -0.1020
  122OSM    C9F12994   3.283   1.731   9.646 -0.8798 -0.2601 -0.4054
  122OSM    H9F12995   3.261   1.648   9.715  0.0813  0.6523  1.0509
  122OSM   C10F12996   3.231   1.711   9.524 -0.1532 -0.1656 -0.3847
  122OSM   H10F12997   3.160   1.627   9.516 -1.4963  0.5902  2.1943
  122OSM   C11F12998   3.239   1.801   9.408 -0.5211  0.1229  0.1874
  122OSM   H11F12999   3.342   1.840   9.402  0.1303 -1.5795 -0.3122
  122OSM   H11G13000   3.168   1.886   9.416 -1.9711 -0.9657 -0.5490
  122OSM   C12F13001   3.211   1.731   9.279 -0.1104 -0.3050  0.6626
  122OSM   H12F13002   3.222   1.809   9.200  1.0411 -0.8170  0.2917
  122OSM   H12G13003   3.111   1.685   9.269 -0.2399  0.0267  0.4286
  122OSM   C13F13004   3.323   1.635   9.228  0.4514 -0.6478  0.1660
  122OSM   H13F13005   3.306   1.544   9.290 -1.3261 -0.9462 -0.6760
  122OSM   H13G13006   3.427   1.668   9.246 -0.2277  1.3343  0.6993
  122OSM   C14F13007   3.304   1.589   9.077  0.3074  0.3354 -0.0188
  122OSM   H14F13008   3.380   1.512   9.054 -0.9911 -0.6856 -1.0838
  122OSM   H14G13009   3.325   1.676   9.011  1.2929  0.6731  0.7166
  122OSM   C15F13010   3.167   1.521   9.047 -0.8831  0.1434  0.2475
  122OSM   H15F13011   3.089   1.594   9.015  2.2789  3.4009 -0.7911
  122OSM   H15G13012   3.134   1.494   9.149 -0.3798  0.3756  0.4758
  122OSM   C16F13013   3.168   1.406   8.944  0.1007  0.3547 -1.0085
  122OSM   H16F13014   3.073   1.353   8.963 -1.1462  2.8113  0.0697
  122OSM   H16G13015   3.248   1.331   8.959 -0.5461 -0.2334 -0.4774
  122OSM   C17F13016   3.167   1.452   8.799  0.2328  0.5028  0.0380
  122OSM   H17F13017   3.259   1.507   8.771  0.8665 -0.8801 -0.6932
  122OSM   H17G13018   3.088   1.528   8.780 -0.9819 -1.0786 -1.4438
  122OSM   C18F13019   3.156   1.337   8.698  0.7942 -0.0519 -0.4780
  122OSM   H18F13020   3.181   1.372   8.596  2.7736  0.0412 -0.0070
  122OSM   H18G13021   3.051   1.305   8.686  0.4427  1.6078 -2.4115
  122OSM   H18H13022   3.226   1.258   8.734  1.7530  0.7828 -0.4645
  123OSM      N13023   3.850   0.961   6.133 -0.5466  0.0701  0.3432
  123OSM    C1513024   3.898   0.823   6.185 -0.4975 -0.0635  0.5557
  123OSM   H15A13025   3.820   0.750   6.164 -0.9049  1.1560 -2.8526
  123OSM   H15B13026   3.925   0.830   6.289 -0.8855 -1.9892  0.8186
  123OSM   H15C13027   3.989   0.795   6.135  1.0415  3.1948  1.2647
  123OSM    C1413028   3.962   1.049   6.085 -0.3560 -0.2553  0.5215
  123OSM   H14A13029   4.026   1.081   6.167  1.8798  0.6120 -1.4529
  123OSM   H14B13030   3.922   1.135   6.033 -0.2063 -0.8240 -0.5434
  123OSM   H14C13031   4.017   0.985   6.018  1.8802 -0.2333  2.2336
  123OSM    C1313032   3.770   0.938   6.006  0.4592  0.3580  0.3974
  123OSM   H13A13033   3.735   1.033   5.970  1.0240  0.7000  0.7458
  123OSM   H13B13034   3.686   0.875   6.032  1.1393 -0.1891  1.3230
  123OSM   H13C13035   3.826   0.890   5.927 -1.8637  1.6252 -2.2262
  123OSM    C1213036   3.765   1.019   6.239 -0.0891 -0.3261 -0.2500
  123OSM   H12A13037   3.826   1.056   6.320  0.2934  1.8143 -1.4577
  123OSM   H12B13038   3.701   0.946   6.287  0.1631 -0.7574 -0.5628
  123OSM    C1113039   3.674   1.136   6.194 -0.2068  0.4168  0.1030
  123OSM   H11A13040   3.608   1.178   6.273  2.4239  2.0379  1.5767
  123OSM   H11B13041   3.600   1.094   6.123 -0.1252 -0.5311  0.5635
  123OSM      P13042   3.823   1.348   6.198  0.2960 -0.1648 -0.1860
  123OSM    O1313043   3.937   1.382   6.117 -0.6144 -0.5266  0.3914
  123OSM    O1413044   3.728   1.457   6.229 -0.1411 -0.1595 -0.2120
  123OSM    O1113045   3.887   1.283   6.331 -0.3041 -0.0049  0.4494
  123OSM    O1213046   3.735   1.240   6.122 -0.4685  0.2625  0.3292
  123OSM    C1S13047   3.912   1.370   6.441  0.5216  0.0985  0.3306
  123OSM    H1S13048   3.841   1.456   6.441  0.5179  0.1732 -2.0178
  123OSM    H1T13049   4.018   1.401   6.427  0.6487  0.1959  1.4287
  123OSM     NF13050   3.878   1.392   6.678 -0.1919 -0.3845  0.1664
  123OSM    HNF13051   3.959   1.407   6.734 -0.3744 -0.9856  0.6063
  123OSM    C2S13052   3.886   1.296   6.572  0.2383  0.7069  0.4344
  123OSM    H2S13053   3.792   1.239   6.560  2.1208 -2.2019 -1.9173
  123OSM    C3S13054   3.993   1.188   6.590 -0.2142  0.0136 -0.1829
  123OSM    H3S13055   4.095   1.228   6.609 -1.0035  1.9945  0.1493
  123OSM     O313056   4.012   1.098   6.477 -0.4491 -0.4268 -0.6730
  123OSM    HO313057   3.982   1.153   6.404 -0.5688  0.8862  0.3310
  123OSM    C4S13058   3.967   1.113   6.712  0.0706 -0.7656  0.2466
  123OSM    H4S13059   3.990   1.169   6.804 -0.9470  1.3469 -0.7114
  123OSM    C5S13060   3.908   0.993   6.730  0.4917 -0.7818  0.6505
  123OSM    H5S13061   3.867   0.949   6.638  1.8905  0.3083 -0.5607
  123OSM    C6S13062   3.890   0.921   6.863 -0.5433 -0.5349  0.3989
  123OSM    H6S13063   3.899   0.815   6.828  1.8369 -0.4685  0.5973
  123OSM    H6T13064   3.791   0.957   6.897 -0.0974  1.1303 -0.0073
  123OSM    C7S13065   3.991   0.950   6.969 -0.1157  0.2523  0.3337
  123OSM    H7S13066   3.979   1.054   7.004 -2.2357  0.8201 -1.7759
  123OSM    H7T13067   4.093   0.934   6.929  0.0688  1.1192  0.4454
  123OSM    C8S13068   3.956   0.854   7.085  1.0444  0.2508 -0.5638
  123OSM    H8S13069   3.954   0.746   7.061  0.4560 -0.7859  3.3809
  123OSM    H8T13070   3.856   0.885   7.122  0.4432 -1.4460 -0.6872
  123OSM    C9S13071   4.049   0.878   7.204 -0.4306  0.0976 -1.2063
  123OSM    H9S13072   4.058   0.987   7.220  0.5931 -0.3124  1.4271
  123OSM    H9T13073   4.149   0.838   7.178  0.3450  1.1699  0.0237
  123OSM   C10S13074   3.995   0.815   7.330  0.0590 -0.2034  0.9530
  123OSM   H10S13075   3.967   0.708   7.316 -1.0308  0.3852 -2.1027
  123OSM   H10T13076   3.902   0.867   7.363  0.1306  2.0506 -2.0126
  123OSM   C11S13077   4.097   0.844   7.443 -0.7816 -0.2164  0.2744
  123OSM   H11S13078   4.110   0.954   7.450  1.6867 -0.5505  2.1741
  123OSM   H11T13079   4.195   0.800   7.411  0.0750  1.3475  0.6672
  123OSM   C12S13080   4.059   0.797   7.582 -0.0523  0.4551  0.1723
  123OSM   H12S13081   4.032   0.692   7.559 -1.6891  1.4005 -2.8551
  123OSM   H12T13082   3.978   0.860   7.627  0.2787 -0.1125  1.5989
  123OSM   C13S13083   4.172   0.811   7.685 -0.6556  0.3821  0.5414
  123OSM   H13S13084   4.199   0.919   7.696  1.2833 -0.0994  0.8373
  123OSM   H13T13085   4.261   0.759   7.644 -0.0713  0.6651  1.4107
  123OSM   C14S13086   4.133   0.739   7.810  0.3164 -0.1386 -0.0642
  123OSM   H14S13087   4.229   0.720   7.863 -1.0991  0.5972  3.0243
  123OSM   H14T13088   4.074   0.648   7.786 -0.4237 -0.2085  1.8445
  123OSM   C15S13089   4.055   0.821   7.914 -0.3779  0.1883  1.4252
  123OSM   H15S13090   3.954   0.833   7.868 -0.1483 -1.5661  0.3833
  123OSM   H15T13091   4.106   0.919   7.928  0.7285 -0.2243  0.4116
  123OSM   C16S13092   4.034   0.742   8.044  0.0638  0.3215 -0.2807
  123OSM   H16S13093   4.127   0.724   8.102  0.1988  4.3774  1.1191
  123OSM   H16T13094   3.990   0.647   8.007 -0.8877  1.2076 -1.4990
  123OSM   C17S13095   3.921   0.798   8.136 -0.7461 -0.3922  1.1382
  123OSM   H17S13096   3.828   0.804   8.076 -0.0188  1.6358  0.1397
  123OSM   H17T13097   3.935   0.900   8.177  1.3102 -0.5167  0.8383
  123OSM   C18S13098   3.893   0.697   8.247  0.4396  0.0690 -0.6174
  123OSM   H18S13099   3.980   0.701   8.316  1.5063 -1.8251 -1.7567
  123OSM   H18T13100   3.890   0.591   8.213  1.6284 -0.2116  0.0695
  123OSM   H18U13101   3.800   0.733   8.296  0.7293 -0.2360  0.1769
  123OSM    C1F13102   3.774   1.473   6.694  0.2253  0.5467 -0.2067
  123OSM     OF13103   3.679   1.461   6.618  0.3389  0.3630  0.0733
  123OSM    C2F13104   3.780   1.581   6.799 -0.5644  0.0946 -0.5680
  123OSM    H2F13105   3.839   1.660   6.749 -1.0678  0.3485 -0.7682
  123OSM    H2G13106   3.844   1.534   6.877  1.0192  1.7116 -0.8440
  123OSM    C3F13107   3.646   1.637   6.848  0.3805 -0.5907  0.3137
  123OSM    H3F13108   3.578   1.552   6.872 -1.2478  1.3030  2.8127
  123OSM    H3G13109   3.601   1.681   6.756 -0.8941 -3.1579 -0.3858
  123OSM    C4F13110   3.652   1.723   6.976 -0.6904 -0.1459  0.2588
  123OSM    H4F13111   3.560   1.783   6.990 -2.3047 -1.5634 -3.1493
  123OSM    H4G13112   3.731   1.799   6.959 -1.3102  0.6579  0.9150
  123OSM    C5F13113   3.660   1.641   7.104 -0.2474 -0.1112 -0.1837
  123OSM    H5F13114   3.658   1.535   7.069  0.4593 -0.7885  1.7013
  123OSM    H5G13115   3.570   1.654   7.168 -0.5659 -2.0017 -0.1917
  123OSM    C6F13116   3.790   1.657   7.180 -0.2966  0.3839  0.4765
  123OSM    H6F13117   3.874   1.676   7.110 -1.5893 -0.8068 -1.5356
  123OSM    H6G13118   3.812   1.560   7.229 -0.0339 -0.3774 -1.0950
  123OSM    C7F13119   3.787   1.779   7.272 -0.0138 -0.2021  0.3713
  123OSM    H7F13120   3.716   1.754   7.353  0.7449 -0.6821  0.9046
  123OSM    H7G13121   3.746   1.871   7.225  0.1208  0.0650  0.7725
  123OSM    C8F13122   3.931   1.817   7.318 -0.8945  0.4349 -0.3426
  123OSM    H8F13123   3.987   1.858   7.231  1.2735 -2.3622 -0.3923
  123OSM    H8G13124   3.983   1.724   7.348 -0.7997  0.5503 -0.1466
  123OSM    C9F13125   3.929   1.910   7.433  0.1624  0.0435  0.4669
  123OSM    H9F13126   3.940   2.016   7.409 -1.4322 -0.0543 -0.8323
  123OSM   C10F13127   3.920   1.873   7.564  0.3487  0.0176 -0.7373
  123OSM   H10F13128   3.917   1.944   7.648 -0.5524 -1.0066  0.1410
  123OSM   C11F13129   3.916   1.724   7.617  0.3240 -0.7701  0.5947
  123OSM   H11F13130   4.019   1.682   7.625 -0.1512 -2.3361 -1.0185
  123OSM   H11G13131   3.857   1.655   7.554 -0.2218  0.7927 -0.6824
  123OSM   C12F13132   3.856   1.715   7.756  0.4337  0.1413  0.4072
  123OSM   H12F13133   3.859   1.608   7.784 -2.0403  0.0358  0.4758
  123OSM   H12G13134   3.749   1.744   7.745  0.7024  0.7869 -0.6607
  123OSM   C13F13135   3.928   1.789   7.874  0.0830 -0.1676  0.1855
  123OSM   H13F13136   3.922   1.899   7.860  0.7663 -0.3233 -1.5880
  123OSM   H13G13137   4.035   1.758   7.867 -0.7697 -3.3161 -0.3004
  123OSM   C14F13138   3.869   1.754   8.013 -0.0049  0.4761 -0.7375
  123OSM   H14F13139   3.867   1.643   8.022 -0.8792  0.3670 -1.9729
  123OSM   H14G13140   3.769   1.801   8.022  0.0949  0.4323  0.9199
  123OSM   C15F13141   3.953   1.802   8.134  0.0709 -0.1649  0.4126
  123OSM   H15F13142   3.982   1.907   8.116 -0.2668 -0.3784 -1.6608
  123OSM   H15G13143   4.043   1.737   8.135  1.3810  1.5788  1.1730
  123OSM   C16F13144   3.873   1.791   8.264 -0.6672  0.1756  0.3875
  123OSM   H16F13145   3.828   1.689   8.256 -1.9286  0.6804  0.8229
  123OSM   H16G13146   3.794   1.868   8.253  0.8588  1.6708 -0.5512
  123OSM   C17F13147   3.942   1.811   8.397  0.0915 -0.9149 -0.3844
  123OSM   H17F13148   4.026   1.739   8.409  0.3538 -0.3398  1.6493
  123OSM   H17G13149   3.880   1.771   8.480  1.6824 -0.5920  1.0231
  123OSM   C18F13150   3.977   1.956   8.435  0.1870  0.7056  0.3421
  123OSM   H18F13151   4.032   1.967   8.530 -0.0837  3.7612  0.2205
  123OSM   H18G13152   3.883   2.015   8.439  0.4321  1.2610 -1.3862
  123OSM   H18H13153   4.045   2.004   8.361 -1.2347  1.2468 -0.6578
  124OSM      N13154   0.086   4.196   6.004  0.3111  0.2093 -0.3106
  124OSM    C1513155   0.016   4.175   5.873 -0.3758  0.3392  0.7474
  124OSM   H15A13156  -0.009   4.070   5.869  0.9250  0.0104  0.8048
  124OSM   H15B13157   0.073   4.213   5.790 -0.7390  1.9728  1.2020
  124OSM   H15C13158  -0.076   4.231   5.868  0.6042  2.0513  1.0849
  124OSM    C1413159  -0.011   4.165   6.113  0.1291 -0.0957  0.2931
  124OSM   H14A13160   0.044   4.190   6.202  0.7270  2.5797 -0.7211
  124OSM   H14B13161  -0.036   4.060   6.113  0.3083 -0.1600  1.6576
  124OSM   H14C13162  -0.105   4.219   6.110 -0.7002 -1.5437 -0.6591
  124OSM    C1313163   0.206   4.107   6.009  0.4463 -0.2956 -0.2999
  124OSM   H13A13164   0.264   4.126   6.098  0.5512 -3.8030  0.5414
  124OSM   H13B13165   0.274   4.125   5.927  0.1685  1.0714 -0.2580
  124OSM   H13C13166   0.173   4.004   6.007  1.8411 -0.7964  1.1300
  124OSM    C1213167   0.140   4.343   6.021 -0.2943 -0.5893  0.1254
  124OSM   H12A13168   0.200   4.357   5.933  3.0049  0.1973  2.2946
  124OSM   H12B13169   0.201   4.337   6.111 -0.2731 -0.0346  0.1478
  124OSM    C1113170   0.025   4.448   6.030 -0.4490  0.0396 -0.0264
  124OSM   H11A13171  -0.026   4.453   5.932 -0.2168  1.8413 -0.0769
  124OSM   H11B13172   0.074   4.544   6.056 -0.4486 -0.6662  3.0508
  124OSM      P13173  -0.215   4.479   6.122  0.2309 -0.3423  0.1738
  124OSM    O1313174  -0.220   4.616   6.063 -0.2441 -0.1845  0.6874
  124OSM    O1413175  -0.294   4.382   6.044 -0.4348 -0.6706 -0.4473
  124OSM    O1113176  -0.257   4.483   6.276 -0.4178  0.3583  0.3155
  124OSM    O1213177  -0.064   4.430   6.136  0.8492 -0.3465  0.1218
  124OSM    C1S13178  -0.276   4.364   6.355  0.0002 -0.3624 -0.3523
  124OSM    H1S13179  -0.246   4.274   6.297 -0.0096  0.0024 -0.9229
  124OSM    H1T13180  -0.384   4.347   6.374  0.1253 -0.2862  0.4788
  124OSM     NF13181  -0.192   4.248   6.538  0.0692  0.1393 -0.5401
  124OSM    HNF13182  -0.259   4.226   6.609 -0.8569 -0.0594 -1.4438
  124OSM    C2S13183  -0.199   4.380   6.483 -0.3204  0.4275  0.4297
  124OSM    H2S13184  -0.099   4.427   6.469 -0.1504 -0.4855 -1.6573
  124OSM    C3S13185  -0.279   4.483   6.573 -0.2877  0.2943 -0.4289
  124OSM    H3S13186  -0.376   4.436   6.601 -0.0709 -0.7487 -1.3283
  124OSM     O313187  -0.306   4.601   6.499  0.2593  0.2057 -0.3285
  124OSM    HO313188  -0.268   4.575   6.415  1.0855 -2.6896  0.8390
  124OSM    C4S13189  -0.196   4.507   6.697  1.3822 -0.4901 -0.3103
  124OSM    H4S13190  -0.157   4.610   6.702  2.5446 -0.7940 -2.0555
  124OSM    C5S13191  -0.189   4.420   6.797  0.4837 -0.2351 -0.1033
  124OSM    H5S13192  -0.253   4.330   6.791  0.1698 -0.0375  0.2461
  124OSM    C6S13193  -0.126   4.448   6.929  0.8328  0.2627 -0.8648
  124OSM    H6S13194  -0.018   4.442   6.906  1.7876  1.0544  2.8055
  124OSM    H6T13195  -0.150   4.357   6.988  2.9617  1.2836  1.7918
  124OSM    C7S13196  -0.175   4.562   7.012 -0.0206 -0.6881 -0.2414
  124OSM    H7S13197  -0.283   4.551   7.033  0.2130  0.6777  1.9845
  124OSM    H7T13198  -0.159   4.652   6.948  0.0150 -0.0225  0.6782
  124OSM    C8S13199  -0.102   4.579   7.152 -0.0283  0.0281  0.3053
  124OSM    H8S13200  -0.140   4.666   7.208 -0.6300  0.3363 -0.5710
  124OSM    H8T13201   0.001   4.609   7.123 -0.6432  1.1740 -0.7581
  124OSM    C9S13202  -0.085   4.454   7.240  0.3693  0.0899  0.2783
  124OSM    H9S13203  -0.007   4.383   7.204  1.1868  1.0650  0.0918
  124OSM    H9T13204  -0.182   4.399   7.239  0.0130  0.6594  1.3875
  124OSM   C10S13205  -0.071   4.491   7.387 -0.9399 -0.1928  0.5056
  124OSM   H10S13206  -0.157   4.547   7.430  0.1593  2.8036 -0.9535
  124OSM   H10T13207   0.014   4.561   7.384 -0.5655 -0.4930  2.4376
  124OSM   C11S13208  -0.034   4.372   7.476 -0.1839 -0.2606  0.4084
  124OSM   H11S13209   0.056   4.325   7.429 -0.1651 -1.7871  1.8733
  124OSM   H11T13210  -0.115   4.296   7.480 -3.3460  2.8259 -0.1885
  124OSM   C12S13211   0.007   4.425   7.611 -0.1411 -0.2858  0.0335
  124OSM   H12S13212  -0.074   4.487   7.655 -0.2114  0.1656 -0.7074
  124OSM   H12T13213   0.097   4.487   7.590 -0.5905 -0.3706 -2.4467
  124OSM   C13S13214   0.035   4.316   7.723  0.4112 -0.1905  0.2550
  124OSM   H13S13215   0.139   4.280   7.714  0.3155 -0.0638 -1.8430
  124OSM   H13T13216  -0.026   4.225   7.702  1.5532 -0.8685 -0.2016
  124OSM   C14S13217   0.028   4.372   7.867 -0.6921  0.2466  0.4344
  124OSM   H14S13218  -0.080   4.391   7.888 -1.1616 -0.1850 -1.4194
  124OSM   H14T13219   0.075   4.473   7.875  1.3510 -0.6997  0.9465
  124OSM   C15S13220   0.065   4.264   7.976  0.5795 -0.4182  0.3045
  124OSM   H15S13221   0.174   4.246   7.963  0.4558  0.3762 -2.5806
  124OSM   H15T13222   0.018   4.166   7.952 -1.3937  0.4876  0.2824
  124OSM   C16S13223   0.032   4.296   8.121  0.6103  1.0525  0.1482
  124OSM   H16S13224   0.082   4.386   8.162  1.3492 -0.3685  2.5780
  124OSM   H16T13225   0.068   4.203   8.170  0.9382 -0.5272 -2.8751
  124OSM   C17S13226  -0.120   4.305   8.151 -0.4543  0.9369  0.5906
  124OSM   H17S13227  -0.157   4.201   8.143 -0.4312  0.9842 -0.2010
  124OSM   H17T13228  -0.177   4.367   8.079 -1.3078 -1.4293 -0.8730
  124OSM   C18S13229  -0.145   4.354   8.302 -0.6494  0.2612  0.5994
  124OSM   H18S13230  -0.122   4.274   8.375  0.8972  0.5646  0.4662
  124OSM   H18T13231  -0.253   4.377   8.315 -1.0612 -0.8711 -0.5924
  124OSM   H18U13232  -0.077   4.440   8.319  1.1761 -0.9734 -0.2062
  124OSM    C1F13233  -0.104   4.150   6.506  0.1806 -0.5282  0.0207
  124OSM     OF13234  -0.002   4.180   6.443  0.2474 -0.2678  0.0315
  124OSM    C2F13235  -0.138   4.007   6.535  0.4208  0.4612 -0.4705
  124OSM    H2F13236  -0.131   3.934   6.451  0.2069  0.7784 -0.7714
  124OSM    H2G13237  -0.243   4.005   6.570 -0.4417 -0.4276 -2.8923
  124OSM    C3F13238  -0.047   3.956   6.651  0.5020 -0.1501  0.3352
  124OSM    H3F13239   0.059   3.960   6.620 -0.2890  2.7671 -2.5565
  124OSM    H3G13240  -0.066   3.848   6.673  0.1377 -0.0220  0.6675
  124OSM    C4F13241  -0.078   4.022   6.784 -0.1748  0.3037  0.0271
  124OSM    H4F13242  -0.185   4.005   6.808  0.0595 -0.9603  0.2800
  124OSM    H4G13243  -0.057   4.131   6.786 -1.8259  0.7960 -3.1902
  124OSM    C5F13244  -0.006   3.959   6.904 -0.1544 -0.5606 -0.0940
  124OSM    H5F13245   0.102   3.942   6.889 -0.1586 -1.3579  0.7313
  124OSM    H5G13246  -0.061   3.863   6.913  1.4927 -1.4109  1.2492
  124OSM    C6F13247  -0.019   4.042   7.034 -0.5844  0.1283  0.3854
  124OSM    H6F13248  -0.123   4.082   7.030  0.2530  2.4385  0.2042
  124OSM    H6G13249   0.042   4.135   7.037  0.3477 -0.4755  0.5398
  124OSM    C7F13250  -0.011   3.966   7.169 -0.4471 -0.0487  0.0512
  124OSM    H7F13251   0.055   3.877   7.157 -0.7391 -0.3602  0.6829
  124OSM    H7G13252  -0.109   3.933   7.210  0.3699 -4.1232 -0.8648
  124OSM    C8F13253   0.051   4.045   7.285 -0.0040 -0.0314 -0.0108
  124OSM    H8F13254   0.031   4.002   7.385 -2.1642  0.5065 -0.1459
  124OSM    H8G13255  -0.002   4.143   7.282 -1.2581 -0.6449  1.0121
  124OSM    C9F13256   0.199   4.067   7.255  0.0666  0.0602 -0.2397
  124OSM    H9F13257   0.238   4.068   7.153 -2.9716  0.0859 -1.5149
  124OSM   C10F13258   0.290   4.099   7.345 -0.4720  0.7793 -0.6135
  124OSM   H10F13259   0.391   4.125   7.312  0.6816  1.4634  2.9431
  124OSM   C11F13260   0.272   4.121   7.496  0.3763  0.5738 -0.3292
  124OSM   H11F13261   0.165   4.126   7.526  0.1634  1.0496 -1.1364
  124OSM   H11G13262   0.303   4.225   7.524  1.9227 -0.0897  0.5812
  124OSM   C12F13263   0.358   4.037   7.588  0.5805 -0.0219 -0.1848
  124OSM   H12F13264   0.464   4.068   7.597  0.0188  1.6613  1.0855
  124OSM   H12G13265   0.353   3.932   7.552  1.1164  0.4094 -1.5627
  124OSM   C13F13266   0.283   4.030   7.724  0.1231  0.1383 -0.2014
  124OSM   H13F13267   0.185   3.979   7.708 -0.1382  0.5719  0.0079
  124OSM   H13G13268   0.286   4.136   7.755  0.2966  0.6550 -1.9213
  124OSM   C14F13269   0.364   3.945   7.822  0.2126 -0.0523 -0.1231
  124OSM   H14F13270   0.473   3.968   7.825  0.2453  0.4627 -2.6343
  124OSM   H14G13271   0.346   3.837   7.805  2.1257 -0.2600 -1.0876
  124OSM   C15F13272   0.312   3.963   7.966  0.0696 -0.2071 -0.3184
  124OSM   H15F13273   0.218   3.905   7.968  0.7123 -1.2584 -0.0113
  124OSM   H15G13274   0.297   4.072   7.983  1.1194 -0.0271 -0.4742
  124OSM   C16F13275   0.404   3.908   8.075 -0.3048  1.2433  0.6933
  124OSM   H16F13276   0.497   3.968   8.069  0.2172  0.4261  0.4551
  124OSM   H16G13277   0.426   3.803   8.045 -3.7116  0.8896 -1.0071
  124OSM   C17F13278   0.354   3.922   8.217  0.0141 -0.2134 -0.6803
  124OSM   H17F13279   0.247   3.894   8.222  0.3148 -1.1269  1.8976
  124OSM   H17G13280   0.354   4.028   8.250 -0.0099 -0.1455 -0.8992
  124OSM   C18F13281   0.422   3.829   8.314 -0.1824  0.2992 -0.4200
  124OSM   H18F13282   0.365   3.819   8.409  1.3803 -1.6488  0.3615
  124OSM   H18G13283   0.525   3.860   8.343 -0.1539  0.6724 -0.9101
  124OSM   H18H13284   0.439   3.729   8.269 -0.5105  0.6361 -1.3146
  125OSM      N13285   6.021   6.414   6.167 -0.1945 -0.2554  0.2345
  125OSM    C1513286   5.918   6.340   6.081 -0.4850 -0.8659 -0.3139
  125OSM   H15A13287   5.881   6.409   6.007  0.5530  0.2561  0.1733
  125OSM   H15B13288   5.834   6.317   6.145 -0.8437 -0.1409 -0.5077
  125OSM   H15C13289   5.954   6.247   6.040  1.4008 -0.2177 -0.2367
  125OSM    C1413290   6.058   6.327   6.284 -0.1158  0.4179 -0.2626
  125OSM   H14A13291   6.143   6.368   6.337  1.0012 -1.0986 -0.8035
  125OSM   H14B13292   6.081   6.227   6.250  1.9417  1.3549 -1.8992
  125OSM   H14C13293   5.980   6.335   6.358  0.8266  0.7066  0.7220
  125OSM    C1313294   6.144   6.425   6.089 -0.8069 -0.4552  0.0368
  125OSM   H13A13295   6.179   6.325   6.066 -1.8214 -0.7991 -0.0737
  125OSM   H13B13296   6.216   6.483   6.145 -0.1453  0.1076 -1.3473
  125OSM   H13C13297   6.128   6.474   5.994  3.1579  0.5227 -0.2848
  125OSM    C1213298   5.968   6.553   6.207  0.5091 -0.3126  0.3661
  125OSM   H12A13299   5.875   6.532   6.259 -0.0810 -0.1409 -0.6020
  125OSM   H12B13300   5.941   6.607   6.118  2.3874 -0.1403 -0.1436
  125OSM    C1113301   6.066   6.646   6.285 -0.3424  0.7134 -0.0578
  125OSM   H11A13302   6.109   6.601   6.378  0.0833 -1.7534 -1.3657
  125OSM   H11B13303   6.007   6.736   6.312 -0.5038  1.1335 -1.7001
  125OSM      P13304   6.305   6.744   6.214  0.2920  0.0996  0.3186
  125OSM    O1313305   6.385   6.633   6.162 -0.8882 -0.2645 -0.8548
  125OSM    O1413306   6.342   6.881   6.172 -0.1661  0.6901  0.3826
  125OSM    O1113307   6.315   6.746   6.371  0.5721  0.1212 -0.4438
  125OSM    O1213308   6.153   6.703   6.190  0.1904 -0.7941  0.1194
  125OSM    C1S13309   6.259   6.850   6.449 -0.2019 -0.5234 -0.3459
  125OSM    H1S13310   6.149   6.861   6.440 -0.1282 -1.0794 -2.8530
  125OSM    H1T13311   6.290   6.950   6.410 -2.9090  0.3140 -0.5098
  125OSM     NF13312   6.251   6.956   6.671 -0.5465 -0.4340 -0.5706
  125OSM    HNF13313   6.310   7.037   6.671 -0.3555 -0.5725 -0.3951
  125OSM    C2S13314   6.300   6.840   6.593 -0.0523 -0.2450  0.5321
  125OSM    H2S13315   6.255   6.749   6.638 -0.9460 -0.9392 -1.6514
  125OSM    C3S13316   6.454   6.810   6.608  0.4115  0.5937  0.3175
  125OSM    H3S13317   6.504   6.873   6.531  3.4065 -0.6655  1.1043
  125OSM     O313318   6.500   6.678   6.560 -0.2173 -0.3035  0.1438
  125OSM    HO313319   6.428   6.638   6.511  1.1844 -3.1919  0.2286
  125OSM    C4S13320   6.512   6.827   6.743 -0.2849 -0.2827 -0.0139
  125OSM    H4S13321   6.442   6.783   6.817  1.1590 -5.4412 -1.3293
  125OSM    C5S13322   6.618   6.904   6.777  0.3117  0.5991 -0.0069
  125OSM    H5S13323   6.674   6.952   6.696 -0.6815  1.4654 -0.1970
  125OSM    C6S13324   6.670   6.941   6.910  0.1480 -0.2118 -0.3792
  125OSM    H6S13325   6.686   7.050   6.907 -0.8690 -0.0755 -2.3167
  125OSM    H6T13326   6.770   6.894   6.908  0.5213  0.5736 -0.4723
  125OSM    C7S13327   6.590   6.904   7.035 -0.3426 -0.4362  0.6704
  125OSM    H7S13328   6.604   6.793   7.030 -1.5768 -0.5821 -0.0724
  125OSM    H7T13329   6.482   6.931   7.030 -0.1452  0.4852  1.2807
  125OSM    C8S13330   6.661   6.956   7.159 -0.0533  0.1646  0.7033
  125OSM    H8S13331   6.652   7.067   7.160 -3.1399  0.0645  3.2314
  125OSM    H8T13332   6.764   6.917   7.167 -0.1876 -0.3582  0.0029
  125OSM    C9S13333   6.587   6.903   7.287  0.3490 -0.5057 -0.0835
  125OSM    H9S13334   6.592   6.792   7.283 -0.3934 -0.6933  2.4277
  125OSM    H9T13335   6.482   6.939   7.283 -0.6657 -3.3025 -0.7991
  125OSM   C10S13336   6.664   6.966   7.406 -0.4573 -0.0459 -0.6830
  125OSM   H10S13337   6.605   7.055   7.438 -1.3505  0.0998 -2.6058
  125OSM   H10T13338   6.768   7.002   7.388  1.1783 -3.0221  1.8551
  125OSM   C11S13339   6.679   6.876   7.534  0.0097  0.0792 -0.4983
  125OSM   H11S13340   6.756   6.796   7.527  0.3496 -0.0717  3.2616
  125OSM   H11T13341   6.575   6.838   7.535 -0.7375  1.9268  2.4644
  125OSM   C12S13342   6.719   6.955   7.662 -0.2141 -0.0350  0.4590
  125OSM   H12S13343   6.636   7.023   7.691 -1.9313 -0.8916 -2.0994
  125OSM   H12T13344   6.819   7.000   7.642  1.8701 -3.3873  2.4494
  125OSM   C13S13345   6.747   6.860   7.773  0.2136  0.0667 -0.0191
  125OSM   H13S13346   6.827   6.794   7.733  0.5007  1.6709 -2.2814
  125OSM   H13T13347   6.659   6.796   7.794  2.6957 -2.7098  3.0279
  125OSM   C14S13348   6.805   6.921   7.894 -1.3337  0.2026  0.3339
  125OSM   H14S13349   6.736   7.002   7.926  0.0796  0.2435  3.5992
  125OSM   H14T13350   6.898   6.973   7.863 -1.6593 -0.2985 -1.6223
  125OSM   C15S13351   6.830   6.826   8.009  0.3358 -0.1759 -0.2495
  125OSM   H15S13352   6.896   6.741   7.980 -2.5432 -3.2952  1.5139
  125OSM   H15T13353   6.736   6.769   8.027  0.7521 -0.5882  0.6927
  125OSM   C16S13354   6.892   6.896   8.126  0.0411  0.3694  0.6586
  125OSM   H16S13355   6.847   6.998   8.129 -0.9193  0.1025 -1.6802
  125OSM   H16T13356   7.001   6.917   8.124 -0.0507  0.9029  1.0513
  125OSM   C17S13357   6.854   6.840   8.257  0.0977 -0.1939  0.0580
  125OSM   H17S13358   6.870   6.730   8.258 -2.5506 -0.6588 -1.1174
  125OSM   H17T13359   6.746   6.856   8.279  0.4753  2.7000  0.1232
  125OSM   C18S13360   6.922   6.912   8.373  0.0345  0.1305 -0.2610
  125OSM   H18S13361   6.934   6.838   8.455 -2.6716  1.3170  1.3504
  125OSM   H18T13362   6.862   7.000   8.405 -3.0102 -1.7847 -0.3169
  125OSM   H18U13363   7.024   6.943   8.344  1.2569 -2.8438  0.5327
  125OSM    C1F13364   6.119   6.987   6.685 -0.1238  0.0333  0.5169
  125OSM     OF13365   6.032   6.908   6.644 -0.2090 -0.1372 -0.0755
  125OSM    C2F13366   6.090   7.122   6.730  0.8961 -0.3030  0.0834
  125OSM    H2F13367   6.084   7.197   6.649  3.0902 -0.4711 -0.3148
  125OSM    H2G13368   6.172   7.159   6.795  1.0232 -1.9444  0.9294
  125OSM    C3F13369   5.955   7.126   6.810 -0.1956  0.3264 -0.0384
  125OSM    H3F13370   5.882   7.070   6.748 -1.5021  1.9283  0.0006
  125OSM    H3G13371   5.919   7.231   6.820 -1.6488  0.2123 -3.1697
  125OSM    C4F13372   5.955   7.055   6.948 -0.2792 -0.0114 -0.3117
  125OSM    H4F13373   6.012   6.960   6.943  2.0391  1.1495  1.6669
  125OSM    H4G13374   5.853   7.022   6.978 -1.0429  2.2379 -0.2101
  125OSM    C5F13375   6.019   7.142   7.048  0.0890 -0.5469 -0.4255
  125OSM    H5F13376   5.958   7.233   7.069 -0.7497 -1.2909  0.4142
  125OSM    H5G13377   6.124   7.172   7.027 -0.3158  1.6940  0.4722
  125OSM    C6F13378   6.042   7.081   7.184 -0.0073 -0.6402  0.0762
  125OSM    H6F13379   6.121   7.002   7.185  0.8817  0.1562 -1.7520
  125OSM    H6G13380   5.943   7.041   7.213 -0.9020  0.8045 -0.9079
  125OSM    C7F13381   6.069   7.191   7.291 -0.4450 -0.0747  0.2264
  125OSM    H7F13382   5.995   7.273   7.277 -0.4447  0.1799  1.5801
  125OSM    H7G13383   6.170   7.234   7.274  0.7102 -3.2540 -1.7624
  125OSM    C8F13384   6.059   7.146   7.438  0.4663 -0.1084  0.2584
  125OSM    H8F13385   5.977   7.071   7.440 -0.0134  0.2736 -2.1017
  125OSM    H8G13386   6.031   7.239   7.493  0.2315 -0.9292  1.5676
  125OSM    C9F13387   6.177   7.087   7.515 -0.4184 -0.3146 -1.0345
  125OSM    H9F13388   6.240   7.018   7.457  0.5416 -0.5884  0.2781
  125OSM   C10F13389   6.222   7.125   7.637  1.2429 -0.0110  0.5756
  125OSM   H10F13390   6.307   7.069   7.681 -0.3891 -2.7229  0.5285
  125OSM   C11F13391   6.153   7.226   7.728 -0.1986  0.2431  0.2520
  125OSM   H11F13392   6.052   7.261   7.699  0.7433  2.3817 -0.7026
  125OSM   H11G13393   6.223   7.310   7.750  0.2474  0.3590 -1.4414
  125OSM   C12F13394   6.151   7.162   7.862  0.1129  0.2780 -0.5884
  125OSM   H12F13395   6.112   7.058   7.869 -0.6994  0.6727  1.8230
  125OSM   H12G13396   6.086   7.220   7.932 -2.1836  0.5664 -2.7972
  125OSM   C13F13397   6.284   7.178   7.933  0.0384  0.2905 -0.8135
  125OSM   H13F13398   6.311   7.285   7.943 -0.1481  0.3780 -1.2185
  125OSM   H13G13399   6.366   7.122   7.883  0.5000  0.4545 -0.2531
  125OSM   C14F13400   6.271   7.137   8.086 -0.2431 -0.5899  0.6808
  125OSM   H14F13401   6.238   7.031   8.085  0.2414 -0.7447  0.0980
  125OSM   H14G13402   6.186   7.188   8.135 -0.9426  0.4612 -1.4891
  125OSM   C15F13403   6.409   7.138   8.154 -0.1947  0.1503  0.1389
  125OSM   H15F13404   6.432   7.246   8.167 -1.3863  0.3849  0.3839
  125OSM   H15G13405   6.483   7.098   8.081 -2.2925  0.7650 -2.4792
  125OSM   C16F13406   6.410   7.071   8.293 -0.1722  0.5622  0.0407
  125OSM   H16F13407   6.387   6.962   8.285 -0.4836  0.4335  2.1688
  125OSM   H16G13408   6.329   7.114   8.356  0.7994 -1.2234  2.7078
  125OSM   C17F13409   6.540   7.085   8.374  0.1402 -0.0913  0.4394
  125OSM   H17F13410   6.561   7.193   8.389  0.6279  0.0533 -1.0813
  125OSM   H17G13411   6.626   7.032   8.326 -0.8272 -0.3917 -1.0274
  125OSM   C18F13412   6.543   7.026   8.514  0.5692  0.4689 -0.6054
  125OSM   H18F13413   6.458   7.069   8.573 -1.6916 -0.5719 -2.9234
  125OSM   H18G13414   6.642   7.057   8.554  0.6629  0.7439 -1.0428
  125OSM   H18H13415   6.542   6.915   8.523  3.0225  0.5093  1.2787
  126OSM      N13416   3.353   6.754   6.683  0.0199 -0.1821  0.1161
  126OSM    C1513417   3.217   6.808   6.706  0.1966  0.5001  0.2811
  126OSM   H15A13418   3.161   6.763   6.787 -1.3008 -0.1661 -1.0790
  126OSM   H15B13419   3.148   6.804   6.623 -0.7259  0.4877  1.0311
  126OSM   H15C13420   3.226   6.913   6.728 -0.3399  0.8637 -1.1303
  126OSM    C1413421   3.436   6.755   6.815 -0.5831  0.4399 -0.0597
  126OSM   H14A13422   3.451   6.853   6.857 -0.4640  0.4401 -0.1027
  126OSM   H14B13423   3.534   6.716   6.792 -0.5430  1.5723 -2.0335
  126OSM   H14C13424   3.388   6.686   6.883 -1.0430 -0.8394 -1.6064
  126OSM    C1313425   3.331   6.614   6.634 -0.2151 -0.1854 -0.3519
  126OSM   H13A13426   3.412   6.590   6.566  1.0364 -0.5477  1.2073
  126OSM   H13B13427   3.244   6.613   6.571 -0.9131 -3.8143  0.4326
  126OSM   H13C13428   3.313   6.539   6.710  1.1243  0.0224  0.2057
  126OSM    C1213429   3.416   6.844   6.575  0.0946  0.3973  0.3286
  126OSM   H12A13430   3.412   6.949   6.602 -1.4365  0.5109 -0.2446
  126OSM   H12B13431   3.357   6.825   6.487 -0.1114  0.9540  0.3446
  126OSM    C1113432   3.563   6.812   6.535  0.3448 -0.5354 -0.4004
  126OSM   H11A13433   3.631   6.833   6.620 -1.9433  1.1892  1.1342
  126OSM   H11B13434   3.575   6.889   6.456  0.3494 -0.6373 -0.4989
  126OSM      P13435   3.723   6.612   6.491 -0.0017 -0.5066  0.3553
  126OSM    O1313436   3.708   6.492   6.413 -0.3565  0.6993 -0.4938
  126OSM    O1413437   3.829   6.707   6.447  0.0566 -0.4257 -0.6375
  126OSM    O1113438   3.738   6.571   6.640 -0.6407  0.4978  0.4430
  126OSM    O1213439   3.583   6.688   6.476  0.6826 -0.0455 -0.5354
  126OSM    C1S13440   3.676   6.451   6.682 -0.8802 -0.2835 -0.4642
  126OSM    H1S13441   3.690   6.365   6.612  0.3031 -2.2411  1.9998
  126OSM    H1T13442   3.568   6.460   6.704 -0.5891  0.4643  0.7233
  126OSM     NF13443   3.686   6.265   6.843 -0.2960 -0.5984 -0.0023
  126OSM    HNF13444   3.629   6.245   6.923 -0.6268  0.3041  0.0055
  126OSM    C2S13445   3.730   6.406   6.817  0.0181  0.0222 -0.1657
  126OSM    H2S13446   3.841   6.413   6.816  0.3554 -2.2451  3.3430
  126OSM    C3S13447   3.684   6.509   6.923  0.5799  0.2717 -0.2085
  126OSM    H3S13448   3.573   6.499   6.926  0.6635 -0.5776  0.6599
  126OSM     O313449   3.705   6.643   6.893  0.4590  0.3704  0.4189
  126OSM    HO313450   3.725   6.635   6.800 -1.2962  1.2821 -0.0775
  126OSM    C4S13451   3.750   6.475   7.055 -0.1530 -0.7650  0.3163
  126OSM    H4S13452   3.851   6.515   7.066 -1.5190  2.9447  0.8326
  126OSM    C5S13453   3.695   6.410   7.164  0.7980  0.7039 -0.9067
  126OSM    H5S13454   3.594   6.368   7.154  1.5706 -0.7623 -3.5951
  126OSM    C6S13455   3.786   6.372   7.284 -0.0632 -0.2938 -0.3970
  126OSM    H6S13456   3.775   6.262   7.294  0.6467 -0.6638 -2.9070
  126OSM    H6T13457   3.737   6.415   7.374  1.0495  0.3579 -0.0882
  126OSM    C7S13458   3.938   6.401   7.286  0.2472  0.4115 -0.1087
  126OSM    H7S13459   3.956   6.508   7.261 -0.4759  0.0817 -2.3290
  126OSM    H7T13460   3.989   6.347   7.203  0.4969 -0.8610  0.8425
  126OSM    C8S13461   3.997   6.366   7.420 -0.3856 -0.8459 -0.4025
  126OSM    H8S13462   3.942   6.278   7.460 -0.1940 -0.9206 -0.3021
  126OSM    H8T13463   3.959   6.442   7.492  0.1044 -1.0297  0.0534
  126OSM    C9S13464   4.148   6.336   7.420  0.3859 -0.5352  0.4301
  126OSM    H9S13465   4.179   6.424   7.359  2.2463 -1.2919  0.2426
  126OSM    H9T13466   4.168   6.241   7.366  0.0335 -0.3555 -0.0238
  126OSM   C10S13467   4.224   6.363   7.553  1.0765 -0.9081  0.3839
  126OSM   H10S13468   4.191   6.282   7.621 -1.9952  1.0816  1.5093
  126OSM   H10T13469   4.187   6.456   7.602  1.6987 -1.0970  1.2302
  126OSM   C11S13470   4.376   6.371   7.543  0.7410 -0.2517 -0.2091
  126OSM   H11S13471   4.411   6.448   7.472 -1.0077  0.1683 -0.6744
  126OSM   H11T13472   4.418   6.279   7.497 -0.0522 -0.7147 -0.0210
  126OSM   C12S13473   4.443   6.376   7.681 -0.1074 -0.3933  0.5565
  126OSM   H12S13474   4.429   6.272   7.717  2.2322 -0.3197  1.9302
  126OSM   H12T13475   4.397   6.457   7.741  0.8643 -0.0067  0.8122
  126OSM   C13S13476   4.595   6.395   7.671 -0.2472 -0.0305  0.4127
  126OSM   H13S13477   4.602   6.489   7.611  0.5312 -0.9608 -0.9948
  126OSM   H13T13478   4.652   6.309   7.631  1.0835  0.8611  0.3380
  126OSM   C14S13479   4.660   6.414   7.809 -0.3673  0.4605  0.2046
  126OSM   H14S13480   4.668   6.319   7.866 -1.3750 -1.1505 -2.1654
  126OSM   H14T13481   4.587   6.473   7.868 -0.4855 -0.8939  1.4725
  126OSM   C15S13482   4.802   6.469   7.820 -0.2670 -0.1902  0.3556
  126OSM   H15S13483   4.802   6.573   7.780 -2.2231 -0.9677 -1.9558
  126OSM   H15T13484   4.881   6.401   7.783 -1.3890 -2.2680  1.5493
  126OSM   C16S13485   4.835   6.498   7.969 -0.4411 -0.1704 -0.6628
  126OSM   H16S13486   4.861   6.404   8.023 -3.2141 -0.2242  0.7795
  126OSM   H16T13487   4.740   6.530   8.017  0.4097  1.8796 -0.2313
  126OSM   C17S13488   4.948   6.602   7.984  0.4359 -0.7986 -0.1627
  126OSM   H17S13489   4.913   6.699   7.942  0.7654  0.6838  2.7257
  126OSM   H17T13490   5.035   6.573   7.921  0.0015 -2.6738  0.0295
  126OSM   C18S13491   4.980   6.626   8.134 -0.2822 -0.5372 -0.3109
  126OSM   H18S13492   5.025   6.727   8.139  1.6817 -1.3714 -0.5737
  126OSM   H18T13493   5.044   6.550   8.181 -0.5571  0.1378  1.1998
  126OSM   H18U13494   4.885   6.623   8.193 -1.0189  0.3633 -1.3839
  126OSM    C1F13495   3.738   6.158   6.783  0.3220  0.1687 -0.5077
  126OSM     OF13496   3.817   6.172   6.693 -0.3669  0.0860  0.6628
  126OSM    C2F13497   3.674   6.025   6.819 -0.1428  0.3751 -0.2414
  126OSM    H2F13498   3.662   5.957   6.732  0.4708 -0.7479  0.5215
  126OSM    H2G13499   3.571   6.035   6.859 -1.8183  0.1501 -4.0746
  126OSM    C3F13500   3.760   5.944   6.923  0.4382  0.2843  0.2923
  126OSM    H3F13501   3.868   5.931   6.901  0.9710  0.3880  2.5807
  126OSM    H3G13502   3.725   5.839   6.930  0.2016  0.3534  0.1436
  126OSM    C4F13503   3.754   6.016   7.062 -0.8680  0.2452 -0.2441
  126OSM    H4F13504   3.651   6.048   7.088 -1.0364 -0.3984 -0.0822
  126OSM    H4G13505   3.818   6.104   7.041  1.5572 -1.5839 -0.9514
  126OSM    C5F13506   3.820   5.920   7.161  0.4152  0.4911 -0.3073
  126OSM    H5F13507   3.925   5.899   7.131  0.6473  0.4361  0.5183
  126OSM    H5G13508   3.767   5.823   7.164  0.3355  0.4802 -1.6505
  126OSM    C6F13509   3.834   5.966   7.302  0.0811  0.1687 -0.8684
  126OSM    H6F13510   3.884   6.066   7.305  2.5941 -0.9628 -1.7945
  126OSM    H6G13511   3.904   5.893   7.348 -2.1799 -1.1570  0.6146
  126OSM    C7F13512   3.709   5.963   7.396  0.4120 -0.5216  0.0087
  126OSM    H7F13513   3.688   5.862   7.438 -1.1413  0.9107  2.9576
  126OSM    H7G13514   3.620   5.988   7.334 -0.0983  0.3012  1.0621
  126OSM    C8F13515   3.730   6.065   7.509  0.0027  0.0113 -0.6079
  126OSM    H8F13516   3.632   6.079   7.560  0.9186  2.7532  0.5929
  126OSM    H8G13517   3.745   6.168   7.471 -2.4778  1.0786  1.0470
  126OSM    C9F13518   3.841   6.022   7.597  0.1036 -0.0343  0.1922
  126OSM    H9F13519   3.938   6.058   7.562 -0.4002  0.8413 -0.3349
  126OSM   C10F13520   3.828   5.956   7.712 -1.1526 -0.8825  0.0100
  126OSM   H10F13521   3.922   5.919   7.755 -0.7636 -0.6332 -0.6078
  126OSM   C11F13522   3.708   5.905   7.784 -0.3149  0.6412  0.1912
  126OSM   H11F13523   3.704   5.794   7.786 -1.0677  0.6700  0.4723
  126OSM   H11G13524   3.616   5.942   7.732 -0.1970 -2.9151 -2.9730
  126OSM   C12F13525   3.703   5.949   7.933  0.2733 -0.0022  0.1278
  126OSM   H12F13526   3.693   6.060   7.928  0.7265  0.0214 -0.2633
  126OSM   H12G13527   3.799   5.922   7.981  0.0195 -0.9101  0.1381
  126OSM   C13F13528   3.587   5.887   8.016  0.5011 -0.5013 -0.0257
  126OSM   H13F13529   3.595   5.776   8.006  3.5375 -0.4519  0.6589
  126OSM   H13G13530   3.493   5.934   7.981  1.3681 -0.2356 -2.2065
  126OSM   C14F13531   3.602   5.928   8.164 -0.9948  1.1555  0.2591
  126OSM   H14F13532   3.513   5.891   8.221 -1.5168  1.5161 -0.3118
  126OSM   H14G13533   3.587   6.038   8.169 -0.1811  1.2908 -0.1629
  126OSM   C15F13534   3.729   5.890   8.248 -0.2503 -0.2198 -0.6466
  126OSM   H15F13535   3.702   5.929   8.348 -0.1221 -1.4755 -0.1040
  126OSM   H15G13536   3.812   5.949   8.205 -0.3646  0.2285 -0.2555
  126OSM   C16F13537   3.762   5.740   8.235 -0.1980  0.2448  0.6369
  126OSM   H16F13538   3.809   5.733   8.134  1.1409 -1.7312  1.3289
  126OSM   H16G13539   3.672   5.675   8.235  0.6219 -0.9540 -0.4357
  126OSM   C17F13540   3.867   5.687   8.336 -0.4008 -0.2767 -0.2533
  126OSM   H17F13541   3.938   5.771   8.355 -0.9162  0.2055 -0.4244
  126OSM   H17G13542   3.907   5.593   8.293 -1.4825 -0.2982 -1.2709
  126OSM   C18F13543   3.801   5.640   8.468  0.0365  0.0266 -0.1332
  126OSM   H18F13544   3.738   5.722   8.509 -0.6309 -0.3396 -0.3980
  126OSM   H18G13545   3.882   5.622   8.542  1.1665  1.0514 -1.0840
  126OSM   H18H13546   3.735   5.550   8.460 -1.5499  0.9568  1.7320
  127OSM      N13547   1.371   5.998   6.404 -1.1347 -0.2094 -0.3825
  127OSM    C1513548   1.264   6.098   6.418  0.2997 -0.6314  0.6784
  127OSM   H15A13549   1.285   6.188   6.361 -2.2309 -0.3181  0.0932
  127OSM   H15B13550   1.250   6.131   6.520 -0.5162  1.2308  0.0123
  127OSM   H15C13551   1.169   6.071   6.374 -0.3734 -0.7766  2.1473
  127OSM    C1413552   1.508   6.058   6.437 -0.6997 -0.7030 -1.1579
  127OSM   H14A13553   1.525   6.152   6.385  0.2942 -1.0976 -1.5596
  127OSM   H14B13554   1.578   5.981   6.410  0.6482 -0.4354  1.3201
  127OSM   H14C13555   1.511   6.080   6.543  0.9944  0.3569 -1.3838
  127OSM    C1313556   1.341   5.891   6.507  0.1401 -0.6990  0.5054
  127OSM   H13A13557   1.235   5.879   6.495  0.2176  0.2474 -1.5580
  127OSM   H13B13558   1.358   5.930   6.607  2.0414 -1.6173  0.5965
  127OSM   H13C13559   1.389   5.798   6.479  0.5326  0.5163 -3.3646
  127OSM    C1213560   1.382   5.938   6.263  0.8233 -0.1275 -0.8625
  127OSM   H12A13561   1.413   6.020   6.200 -0.5581  0.9038 -0.2492
  127OSM   H12B13562   1.285   5.905   6.229  0.2608 -1.8198  2.0450
  127OSM    C1113563   1.482   5.821   6.239  1.4045  0.7290 -0.0050
  127OSM   H11A13564   1.464   5.774   6.139  0.6262 -1.3588  1.0552
  127OSM   H11B13565   1.454   5.741   6.310 -0.1404  2.0886  0.9629
  127OSM      P13566   1.727   5.781   6.309  0.3880 -0.7508  0.3210
  127OSM    O1313567   1.731   5.653   6.232 -0.1638  0.1228 -0.7394
  127OSM    O1413568   1.855   5.850   6.307  0.0729 -0.1985 -0.2907
  127OSM    O1113569   1.679   5.748   6.455  0.4429 -0.5192  0.0101
  127OSM    O1213570   1.617   5.872   6.247 -0.3890  0.1147  0.0599
  127OSM    C1S13571   1.769   5.696   6.552  0.5143  0.2962  0.4595
  127OSM    H1S13572   1.840   5.774   6.585  1.0137  0.2121 -0.4012
  127OSM    H1T13573   1.834   5.622   6.501 -0.6870 -1.0262  0.7395
  127OSM     NF13574   1.800   5.605   6.778 -0.3647 -0.0516 -0.2340
  127OSM    HNF13575   1.836   5.512   6.774  1.1029  0.3977  1.3014
  127OSM    C2S13576   1.704   5.640   6.681  0.4498  0.5126 -0.0978
  127OSM    H2S13577   1.639   5.720   6.724 -1.2143 -0.8817  0.1112
  127OSM    C3S13578   1.611   5.522   6.650 -0.2492  0.1538  0.3739
  127OSM    H3S13579   1.665   5.434   6.608 -3.7351 -1.8507 -0.3994
  127OSM     O313580   1.515   5.551   6.548  0.9108 -0.0143  0.1495
  127OSM    HO313581   1.550   5.617   6.489 -0.9016  0.4469 -0.4952
  127OSM    C4S13582   1.540   5.464   6.773 -0.6512  0.5024 -0.1435
  127OSM    H4S13583   1.601   5.388   6.824 -2.0505  0.2010  1.1522
  127OSM    C5S13584   1.417   5.501   6.821 -0.2683 -0.4397  0.3844
  127OSM    H5S13585   1.368   5.587   6.773 -0.1350 -0.6235 -0.0854
  127OSM    C6S13586   1.340   5.452   6.942  0.3430  0.3957 -0.5512
  127OSM    H6S13587   1.259   5.385   6.905  1.6278 -1.5143 -0.0375
  127OSM    H6T13588   1.296   5.534   7.002 -1.1051 -1.1425  0.5777
  127OSM    C7S13589   1.417   5.382   7.054 -0.4382 -0.4740 -0.2840
  127OSM    H7S13590   1.508   5.436   7.087  0.7340 -2.7139  0.3333
  127OSM    H7T13591   1.462   5.287   7.017 -1.2211 -0.6989 -0.6793
  127OSM    C8S13592   1.330   5.354   7.174  0.3928  0.2490 -0.0632
  127OSM    H8S13593   1.241   5.298   7.137  0.7802  0.5529 -1.5190
  127OSM    H8T13594   1.297   5.451   7.217  2.4489  1.4175 -0.9980
  127OSM    C9S13595   1.409   5.275   7.284 -0.7967 -0.3279 -0.1838
  127OSM    H9S13596   1.509   5.308   7.318 -1.1138 -0.8638  1.3574
  127OSM    H9T13597   1.424   5.174   7.240 -0.9210 -0.5028  0.1726
  127OSM   C10S13598   1.322   5.267   7.415  0.1883  0.5399 -0.1013
  127OSM   H10S13599   1.228   5.222   7.379 -0.6633  0.5496  1.9506
  127OSM   H10T13600   1.299   5.371   7.447 -1.9826  0.6133 -1.6864
  127OSM   C11S13601   1.383   5.186   7.531  0.2388 -0.2557  0.2122
  127OSM   H11S13602   1.483   5.225   7.559 -0.7386  2.1938  0.6448
  127OSM   H11T13603   1.386   5.078   7.506  0.1629 -0.3119  0.4394
  127OSM   C12S13604   1.299   5.213   7.659 -0.3520 -0.6602 -0.5744
  127OSM   H12S13605   1.199   5.171   7.631 -0.6892  0.5593 -1.2743
  127OSM   H12T13606   1.286   5.321   7.683 -0.1275 -0.4464 -1.4053
  127OSM   C13S13607   1.347   5.121   7.776  0.4161  0.1215 -0.8561
  127OSM   H13S13608   1.445   5.155   7.817  0.1641  0.2100 -0.3190
  127OSM   H13T13609   1.361   5.016   7.742 -1.2379 -1.4862  2.8441
  127OSM   C14S13610   1.252   5.126   7.899  0.4144  0.1783 -0.0817
  127OSM   H14S13611   1.148   5.110   7.862  0.2718  1.2540 -0.1605
  127OSM   H14T13612   1.265   5.221   7.954 -0.5072  0.4464 -0.3193
  127OSM   C15S13613   1.273   5.017   8.003  0.0774 -0.0959  0.2772
  127OSM   H15S13614   1.372   5.046   8.045  0.0985 -0.2195  0.3112
  127OSM   H15T13615   1.291   4.915   7.964  1.4433 -1.6508  4.4961
  127OSM   C16S13616   1.170   5.005   8.112  0.6741 -0.7530 -0.2498
  127OSM   H16S13617   1.083   4.940   8.086 -0.4096 -0.1004  1.5624
  127OSM   H16T13618   1.121   5.102   8.137 -0.4346 -1.2136 -0.5665
  127OSM   C17S13619   1.211   4.947   8.250  0.4902  0.7980 -0.2149
  127OSM   H17S13620   1.263   4.850   8.234 -0.6560  0.0032  0.7419
  127OSM   H17T13621   1.117   4.927   8.306 -0.7139  0.7480 -2.1577
  127OSM   C18S13622   1.287   5.038   8.341 -0.7547 -0.1221 -0.2726
  127OSM   H18S13623   1.230   5.132   8.360  0.5230  0.5517  0.3959
  127OSM   H18T13624   1.376   5.070   8.282 -0.7721 -0.6666 -0.6013
  127OSM   H18U13625   1.305   4.999   8.443 -0.4320 -0.3559 -0.4156
  127OSM    C1F13626   1.866   5.697   6.864  0.1417  0.1234  0.0722
  127OSM     OF13627   1.843   5.815   6.853  1.3288  0.0970  0.6172
  127OSM    C2F13628   1.971   5.645   6.952  0.0726 -0.6414 -0.1899
  127OSM    H2F13629   2.060   5.711   6.938 -0.3655  0.7812  2.8363
  127OSM    H2G13630   1.991   5.538   6.929 -2.0032 -1.0746 -0.1341
  127OSM    C3F13631   1.918   5.658   7.097  0.2681 -0.5112 -0.9052
  127OSM    H3F13632   1.828   5.594   7.111  0.8175 -1.0917  0.0410
  127OSM    H3G13633   1.886   5.764   7.110  1.9502  0.0642 -1.1671
  127OSM    C4F13634   2.041   5.628   7.186 -0.2263 -0.2374  0.2300
  127OSM    H4F13635   2.114   5.711   7.175  0.9511 -0.7854  2.8803
  127OSM    H4G13636   2.094   5.538   7.147  1.5178  0.6150  0.5483
  127OSM    C5F13637   2.023   5.606   7.337 -0.1949  0.1239 -0.1999
  127OSM    H5F13638   1.960   5.687   7.380 -1.3008 -1.1907  0.7883
  127OSM    H5G13639   2.117   5.605   7.396 -1.1358  0.2854  1.3852
  127OSM    C6F13640   1.947   5.478   7.365  0.5479 -0.2294  0.7918
  127OSM    H6F13641   2.006   5.403   7.308  4.7304  2.1647  1.5440
  127OSM    H6G13642   1.849   5.491   7.313  1.6690  1.5924 -1.0359
  127OSM    C7F13643   1.924   5.431   7.511  0.0654 -0.3212 -0.6884
  127OSM    H7F13644   1.910   5.528   7.563 -0.2663 -0.9326  0.3874
  127OSM    H7G13645   2.022   5.389   7.539 -0.4580 -0.8743  0.3736
  127OSM    C8F13646   1.806   5.339   7.541  0.1271  0.7923  0.1573
  127OSM    H8F13647   1.717   5.383   7.491 -1.2978 -2.1323 -0.0695
  127OSM    H8G13648   1.792   5.341   7.651  0.6344 -0.0944  0.2500
  127OSM    C9F13649   1.829   5.196   7.497 -0.4807  1.0012 -0.4915
  127OSM    H9F13650   1.813   5.177   7.390 -0.4798 -1.5742 -0.0798
  127OSM   C10F13651   1.851   5.085   7.575  0.0709 -0.3495 -0.8116
  127OSM   H10F13652   1.872   4.986   7.532  1.2483  0.1021 -1.3102
  127OSM   C11F13653   1.851   5.081   7.729 -0.6028  0.4868  0.1560
  127OSM   H11F13654   1.865   5.184   7.770  0.9929 -0.1421  1.3114
  127OSM   H11G13655   1.926   5.006   7.763  1.0510  0.9766 -2.1574
  127OSM   C12F13656   1.721   5.037   7.786  0.3535  0.0883  0.5874
  127OSM   H12F13657   1.715   4.926   7.779 -2.6315  0.0665  1.8447
  127OSM   H12G13658   1.640   5.091   7.733 -2.3379 -2.5186  1.7692
  127OSM   C13F13659   1.711   5.068   7.938  0.2051  0.2834  1.2264
  127OSM   H13F13660   1.613   5.028   7.970  0.1478  0.9926  1.9766
  127OSM   H13G13661   1.701   5.178   7.948 -1.6478  0.2379  0.3419
  127OSM   C14F13662   1.818   5.014   8.033  0.2763  0.4076  0.1575
  127OSM   H14F13663   1.916   5.043   7.990  0.0231 -1.6706 -1.9961
  127OSM   H14G13664   1.807   4.904   8.036 -0.1528  0.4095 -0.9043
  127OSM   C15F13665   1.818   5.072   8.175  0.3242  0.0970  0.1429
  127OSM   H15F13666   1.816   5.182   8.157  3.0889 -0.0192 -1.6323
  127OSM   H15G13667   1.910   5.052   8.234  0.8961  1.0914 -0.3727
  127OSM   C16F13668   1.689   5.029   8.259  0.2080  0.6010  0.4580
  127OSM   H16F13669   1.592   5.037   8.206  0.2027 -1.9731 -0.0374
  127OSM   H16G13670   1.680   5.106   8.338  0.2179  1.2692 -0.1824
  127OSM   C17F13671   1.694   4.895   8.332  0.1601  0.5894 -0.2381
  127OSM   H17F13672   1.793   4.876   8.376 -0.8844 -1.9519  1.2287
  127OSM   H17G13673   1.700   4.809   8.262 -0.7007  0.0522  0.3297
  127OSM   C18F13674   1.579   4.857   8.422  0.2489  0.3297  0.5144
  127OSM   H18F13675   1.492   4.833   8.358  0.8270  0.8197 -0.4866
  127OSM   H18G13676   1.549   4.938   8.492 -1.3681  0.0906  0.1404
  127OSM   H18H13677   1.592   4.763   8.481 -1.0040  0.1092  0.4736
  128OSM      N13678   6.467   2.117   5.879 -0.1157 -0.7186  0.1585
  128OSM    C1513679   6.394   2.228   5.808 -0.0749  0.2553  0.1905
  128OSM   H15A13680   6.434   2.256   5.712 -0.8704  1.4474  0.1838
  128OSM   H15B13681   6.376   2.319   5.863  0.0333  1.2318 -1.3454
  128OSM   H15C13682   6.296   2.187   5.785  0.5096 -0.2791 -1.4308
  128OSM    C1413683   6.494   2.009   5.779  0.6435  0.0547 -0.3188
  128OSM   H14A13684   6.396   1.979   5.745  1.2414 -2.5299 -0.0095
  128OSM   H14B13685   6.534   1.917   5.819 -0.0544 -0.6748 -1.2308
  128OSM   H14C13686   6.556   2.046   5.699 -0.1533  0.9986 -0.5219
  128OSM    C1313687   6.598   2.170   5.913  0.2562 -0.3525 -0.1253
  128OSM   H13A13688   6.654   2.092   5.963  1.8701 -0.4259 -1.9176
  128OSM   H13B13689   6.601   2.248   5.987  0.1492 -0.1498 -0.3348
  128OSM   H13C13690   6.654   2.203   5.827  0.5210  0.5440  0.3861
  128OSM    C1213691   6.401   2.069   6.002  0.3623  0.2843  0.2374
  128OSM   H12A13692   6.415   2.150   6.073  1.2799  0.7937 -0.4925
  128OSM   H12B13693   6.458   1.991   6.051 -1.2639 -0.5803  0.8188
  128OSM    C1113694   6.256   2.023   6.001  0.2956  0.6584 -0.1273
  128OSM   H11A13695   6.195   2.085   5.932  0.4861 -0.1289 -1.0213
  128OSM   H11B13696   6.214   2.027   6.103  1.2034 -0.6798  0.3209
  128OSM      P13697   6.287   1.769   6.046  0.0699  0.0925  0.1645
  128OSM    O1313698   6.232   1.647   5.975  0.3451 -0.2734 -0.1573
  128OSM    O1413699   6.431   1.773   6.068 -0.2953 -0.5703 -0.0825
  128OSM    O1113700   6.208   1.778   6.183 -0.2483  0.3369 -0.1607
  128OSM    O1213701   6.248   1.892   5.958 -0.7992 -0.4068 -0.4114
  128OSM    C1S13702   6.280   1.810   6.307  0.0391  0.0859  0.0967
  128OSM    H1S13703   6.333   1.907   6.291  0.2976 -0.3410 -1.8019
  128OSM    H1T13704   6.350   1.727   6.327 -1.1566 -0.7892  0.8102
  128OSM     NF13705   6.253   1.911   6.521 -0.1851 -0.2777 -0.8127
  128OSM    HNF13706   6.265   1.863   6.608 -2.8626 -1.4746 -0.9874
  128OSM    C2S13707   6.189   1.836   6.421  0.1998  0.5947 -0.2195
  128OSM    H2S13708   6.099   1.889   6.382  0.0312  0.0156 -0.6293
  128OSM    C3S13709   6.133   1.696   6.472  0.7310 -0.7852  0.2675
  128OSM    H3S13710   6.216   1.645   6.525 -0.3815 -1.3200  1.5424
  128OSM     O313711   6.099   1.605   6.368  0.0344  0.2251 -0.0421
  128OSM    HO313712   6.127   1.646   6.286  1.2385  0.2349  0.3549
  128OSM    C4S13713   6.026   1.725   6.580 -0.3796  0.4675  0.2729
  128OSM    H4S13714   6.070   1.746   6.679  0.5628  1.5875 -0.3528
  128OSM    C5S13715   5.892   1.721   6.564  0.2372  0.8377  0.3594
  128OSM    H5S13716   5.849   1.694   6.467 -3.1071 -3.4465  2.6890
  128OSM    C6S13717   5.798   1.747   6.681  0.3676  0.2034 -0.2324
  128OSM    H6S13718   5.728   1.661   6.685  2.5856 -1.6813  0.3850
  128OSM    H6T13719   5.733   1.835   6.662  0.0949 -0.1423 -0.9180
  128OSM    C7S13720   5.853   1.741   6.825  0.5849 -0.6256  0.5027
  128OSM    H7S13721   5.771   1.784   6.887  0.0317  0.3704 -0.8663
  128OSM    H7T13722   5.940   1.809   6.839  0.4025 -0.3577  0.3608
  128OSM    C8S13723   5.887   1.596   6.857 -0.0965 -0.2137 -0.0775
  128OSM    H8S13724   5.912   1.537   6.767 -1.9334 -0.6473 -0.3376
  128OSM    H8T13725   5.789   1.562   6.897 -0.9255  1.8499 -0.2434
  128OSM    C9S13726   5.989   1.599   6.976 -0.0354  0.1162 -0.2611
  128OSM    H9S13727   6.064   1.675   6.947  1.5133 -1.3616 -0.2610
  128OSM    H9T13728   6.041   1.502   6.993 -1.7415 -0.6765  0.6765
  128OSM   C10S13729   5.933   1.647   7.108  0.3662 -1.0155  0.0298
  128OSM   H10S13730   5.834   1.599   7.122  0.0482 -0.5106 -0.4868
  128OSM   H10T13731   5.927   1.758   7.109 -1.3848 -1.0962  0.4330
  128OSM   C11S13732   6.028   1.593   7.226 -0.2743  0.1312 -0.5034
  128OSM   H11S13733   6.132   1.625   7.207 -0.5282  1.1069 -0.3176
  128OSM   H11T13734   6.023   1.482   7.228  1.2302  0.0253 -1.1400
  128OSM   C12S13735   5.994   1.652   7.366  0.6285  0.3526 -0.7056
  128OSM   H12S13736   5.888   1.633   7.395  1.1234  0.2976  1.2477
  128OSM   H12T13737   6.002   1.762   7.378 -3.0392  0.5726  1.3473
  128OSM   C13S13738   6.091   1.601   7.473 -0.4854 -0.5099  0.5435
  128OSM   H13S13739   6.190   1.603   7.423 -0.8306  0.1600 -0.1310
  128OSM   H13T13740   6.069   1.494   7.493 -1.1131 -0.5252 -0.1709
  128OSM   C14S13741   6.074   1.680   7.600 -0.5202 -0.6236 -0.7638
  128OSM   H14S13742   5.980   1.648   7.648 -1.2873  0.1935 -1.6764
  128OSM   H14T13743   6.069   1.789   7.578 -0.0594 -0.4243  0.0484
  128OSM   C15S13744   6.192   1.665   7.697 -0.3327  0.5221  0.3501
  128OSM   H15S13745   6.282   1.719   7.660  1.7512 -3.2804 -0.7204
  128OSM   H15T13746   6.235   1.563   7.700  0.0809  0.4264 -3.5539
  128OSM   C16S13747   6.153   1.716   7.835  0.0474 -0.0042 -0.4451
  128OSM   H16S13748   6.058   1.676   7.875  0.7404 -0.1102  1.1648
  128OSM   H16T13749   6.123   1.820   7.811  1.3784  0.0624 -2.0355
  128OSM   C17S13750   6.264   1.739   7.937  0.0356  0.6725  0.2380
  128OSM   H17S13751   6.335   1.820   7.911  0.2761  0.5095  0.3786
  128OSM   H17T13752   6.331   1.650   7.942 -0.0315  0.4670 -1.7894
  128OSM   C18S13753   6.202   1.762   8.077  0.5719 -0.2988 -0.9243
  128OSM   H18S13754   6.284   1.792   8.146  0.3715  1.6287 -1.4662
  128OSM   H18T13755   6.154   1.670   8.118 -1.8696  0.8866 -0.9687
  128OSM   H18U13756   6.124   1.841   8.078  2.2360  1.4799  1.6368
  128OSM    C1F13757   6.269   2.046   6.507 -0.0394 -0.2085 -0.5477
  128OSM     OF13758   6.232   2.109   6.406  0.0710  0.0227  0.1063
  128OSM    C2F13759   6.330   2.121   6.621  0.3303  0.6695  0.3711
  128OSM    H2F13760   6.296   2.062   6.710  1.3592 -0.7733 -0.1564
  128OSM    H2G13761   6.295   2.223   6.647  0.7509  1.2151 -1.1434
  128OSM    C3F13762   6.483   2.142   6.599 -0.2607 -0.1047  0.2945
  128OSM    H3F13763   6.529   2.196   6.685 -0.0861 -0.1234  0.2143
  128OSM    H3G13764   6.477   2.218   6.519  0.6476  0.7398  0.9938
  128OSM    C4F13765   6.558   2.013   6.562  0.4149  0.2874  0.3108
  128OSM    H4F13766   6.522   1.994   6.458 -0.9766  3.8756 -0.0041
  128OSM    H4G13767   6.543   1.924   6.627 -1.0533 -0.8629 -1.4898
  128OSM    C5F13768   6.711   2.034   6.560  0.1258  0.2657 -0.1910
  128OSM    H5F13769   6.730   2.143   6.551 -2.5410  0.8552  0.1915
  128OSM    H5G13770   6.764   1.983   6.477  3.0263 -0.1916  1.8163
  128OSM    C6F13771   6.773   1.994   6.692  0.1264  0.0907 -0.1772
  128OSM    H6F13772   6.763   1.884   6.701 -0.3926  0.3401  3.7826
  128OSM    H6G13773   6.713   2.028   6.779 -2.3729  1.0938 -2.1630
  128OSM    C7F13774   6.912   2.058   6.733  0.0391 -0.2782 -0.4419
  128OSM    H7F13775   6.897   2.162   6.695 -1.8960  0.1337  1.2683
  128OSM    H7G13776   6.990   2.001   6.678  0.5118 -0.6656  0.6072
  128OSM    C8F13777   6.955   2.043   6.880 -0.7948 -0.2132  0.0843
  128OSM    H8F13778   6.979   1.936   6.895  1.5531 -0.0429 -1.8218
  128OSM    H8G13779   6.874   2.076   6.948  0.3710  3.9182 -0.2207
  128OSM    C9F13780   7.082   2.121   6.900  0.7661  0.4554  0.8963
  128OSM    H9F13781   7.150   2.115   6.814 -1.0740 -1.4446 -0.5508
  128OSM   C10F13782   7.117   2.199   7.006 -0.4478  0.0121 -0.6513
  128OSM   H10F13783   7.212   2.253   7.006  0.0991 -0.9252 -0.5137
  128OSM   C11F13784   7.041   2.223   7.136 -0.8990  0.4681  0.0519
  128OSM   H11F13785   7.005   2.125   7.173  0.6647 -1.1072 -2.2717
  128OSM   H11G13786   6.952   2.289   7.127 -0.8400  0.8405  1.8729
  128OSM   C12F13787   7.130   2.285   7.246  0.4740 -0.1254 -0.0930
  128OSM   H12F13788   7.174   2.383   7.218 -0.7849  0.2007 -1.0249
  128OSM   H12G13789   7.199   2.203   7.273 -1.5412 -1.9369 -0.1938
  128OSM   C13F13790   7.044   2.307   7.374  0.5779 -0.5258 -0.2295
  128OSM   H13F13791   6.992   2.213   7.401 -2.7224  1.4589  0.9102
  128OSM   H13G13792   6.972   2.390   7.360 -0.8193 -1.7348 -0.4214
  128OSM   C14F13793   7.124   2.349   7.494 -0.0432 -0.0237 -0.0161
  128OSM   H14F13794   7.150   2.452   7.464 -2.4048  0.0970 -1.9300
  128OSM   H14G13795   7.218   2.295   7.519 -1.2610 -2.2907 -0.0322
  128OSM   C15F13796   7.035   2.355   7.611 -0.2769 -0.6083 -0.0208
  128OSM   H15F13797   7.037   2.255   7.660 -0.3376 -0.7339 -0.2736
  128OSM   H15G13798   6.929   2.374   7.585 -1.1406 -3.2582  1.1881
  128OSM   C16F13799   7.074   2.459   7.715 -0.2869 -0.4786 -0.1314
  128OSM   H16F13800   7.081   2.560   7.669 -4.6662  0.0096 -0.1890
  128OSM   H16G13801   7.170   2.429   7.762  0.1682  1.1925  0.0619
  128OSM   C17F13802   6.977   2.462   7.834  0.4991  0.4365 -0.4854
  128OSM   H17F13803   6.873   2.481   7.798 -0.4734 -1.4754  1.1026
  128OSM   H17G13804   7.005   2.550   7.894 -1.3965  1.0061 -0.3684
  128OSM   C18F13805   6.965   2.339   7.926  0.4375  0.4526  0.3336
  128OSM   H18F13806   6.893   2.353   8.008 -0.2736 -0.5982 -0.0892
  128OSM   H18G13807   7.060   2.304   7.973 -0.1877 -3.6257 -0.9985
  128OSM   H18H13808   6.936   2.246   7.871  2.1642 -0.7787  1.3951
  129OSM      N13809   1.490   4.465   6.393 -0.3370  0.2108 -0.0933
  129OSM    C1513810   1.605   4.534   6.339 -0.2747  0.3845 -0.2072
  129OSM   H15A13811   1.689   4.467   6.339  1.0250  1.9553  0.9923
  129OSM   H15B13812   1.641   4.603   6.414 -0.5375 -1.1134  1.3679
  129OSM   H15C13813   1.585   4.594   6.251 -0.8662  0.4857 -0.0110
  129OSM    C1413814   1.374   4.554   6.390 -1.0103  0.4563  0.1204
  129OSM   H14A13815   1.386   4.639   6.456  0.5759 -0.6366  1.3446
  129OSM   H14B13816   1.282   4.499   6.406 -0.3210 -0.3528  1.5449
  129OSM   H14C13817   1.367   4.601   6.294 -1.7657 -0.4586 -0.2941
  129OSM    C1313818   1.458   4.348   6.307 -0.2057 -0.3439  0.4029
  129OSM   H13A13819   1.417   4.379   6.212 -0.1728 -0.8025  0.2338
  129OSM   H13B13820   1.397   4.274   6.358  1.6452 -2.9162 -0.9121
  129OSM   H13C13821   1.548   4.290   6.289 -0.1134 -0.0098 -0.2552
  129OSM    C1213822   1.516   4.408   6.536  0.2798  0.1088 -0.3323
  129OSM   H12A13823   1.436   4.337   6.552 -1.5000  1.5346 -2.2352
  129OSM   H12B13824   1.510   4.488   6.609 -0.4869  0.0492 -0.3218
  129OSM    C1113825   1.652   4.341   6.558 -0.6028  0.2668 -0.1104
  129OSM   H11A13826   1.667   4.298   6.659 -3.4183  0.7808  0.6106
  129OSM   H11B13827   1.735   4.414   6.548 -0.1717 -0.2823 -0.5877
  129OSM      P13828   1.779   4.194   6.386  0.1566 -0.4129 -0.3323
  129OSM    O1313829   1.769   4.056   6.346 -0.5140  0.7898  0.6033
  129OSM    O1413830   1.799   4.298   6.283 -0.7909  0.0320 -0.4901
  129OSM    O1113831   1.904   4.202   6.474 -0.2099 -0.1230  0.0077
  129OSM    O1213832   1.662   4.231   6.471 -0.1530  0.2592  0.5936
  129OSM    C1S13833   1.910   4.116   6.592  0.0884 -0.0776  0.5126
  129OSM    H1S13834   1.913   4.011   6.556 -0.4427 -0.0028  0.2426
  129OSM    H1T13835   1.822   4.136   6.656  0.6587  2.7361  0.5540
  129OSM     NF13836   2.005   4.078   6.808 -0.0839  0.7794  0.2256
  129OSM    HNF13837   1.957   4.118   6.886 -0.5602 -0.6179  0.6814
  129OSM    C2S13838   2.026   4.159   6.690  0.2640  0.7209 -0.7675
  129OSM    H2S13839   2.125   4.130   6.649  1.4020  0.9100  1.6494
  129OSM    C3S13840   2.030   4.319   6.712  0.3095 -0.0771  0.4465
  129OSM    H3S13841   1.926   4.351   6.732 -0.3667 -1.4703 -0.7301
  129OSM     O313842   2.073   4.386   6.596  0.1493  0.1252  0.0460
  129OSM    HO313843   2.079   4.307   6.542 -0.9015 -2.6944  3.6386
  129OSM    C4S13844   2.118   4.358   6.829  0.8276  0.2218 -0.3440
  129OSM    H4S13845   2.060   4.359   6.923  3.5964 -0.4575  1.4716
  129OSM    C5S13846   2.251   4.373   6.831  0.1191  0.0550 -0.9418
  129OSM    H5S13847   2.318   4.362   6.745  2.0707 -0.5482  0.5617
  129OSM    C6S13848   2.329   4.407   6.956  0.3750  0.0439 -0.3452
  129OSM    H6S13849   2.379   4.503   6.929 -0.0740  0.0307 -1.2570
  129OSM    H6T13850   2.406   4.327   6.965 -2.0310 -2.3208  0.4388
  129OSM    C7S13851   2.260   4.432   7.093 -0.3530  0.4736  0.2555
  129OSM    H7S13852   2.223   4.330   7.117  1.5859 -0.5314 -0.7803
  129OSM    H7T13853   2.174   4.501   7.076  0.8257  2.5093  2.0425
  129OSM    C8S13854   2.353   4.479   7.206 -0.2170  0.1432 -0.7205
  129OSM    H8S13855   2.361   4.590   7.205  0.1170  0.1329 -0.0417
  129OSM    H8T13856   2.454   4.435   7.192  0.5196  2.3046 -3.0246
  129OSM    C9S13857   2.299   4.432   7.345 -0.3008  0.0270  0.6433
  129OSM    H9S13858   2.288   4.322   7.346 -0.0444  0.0014  0.6813
  129OSM    H9T13859   2.193   4.466   7.352 -0.6190 -0.8115  0.0180
  129OSM   C10S13860   2.380   4.497   7.459  0.4366 -0.5797 -0.9617
  129OSM   H10S13861   2.363   4.607   7.460 -1.3290 -0.8164  0.5003
  129OSM   H10T13862   2.484   4.460   7.448 -0.1728 -1.8925 -2.7191
  129OSM   C11S13863   2.331   4.456   7.602  0.3378  0.3487 -0.4505
  129OSM   H11S13864   2.316   4.346   7.596  0.9616  0.3107 -1.4406
  129OSM   H11T13865   2.237   4.510   7.624 -1.1781 -1.4902 -2.0798
  129OSM   C12S13866   2.444   4.468   7.712  0.2995 -0.2492  0.3673
  129OSM   H12S13867   2.493   4.566   7.693 -2.5014  1.1194 -0.3521
  129OSM   H12T13868   2.522   4.390   7.697 -0.4786 -0.5807 -2.6306
  129OSM   C13S13869   2.394   4.493   7.846 -0.1355  0.1982 -0.3627
  129OSM   H13S13870   2.335   4.405   7.881 -1.1046  0.7933 -0.4614
  129OSM   H13T13871   2.322   4.578   7.844 -1.5643 -0.9575 -1.3479
  129OSM   C14S13872   2.501   4.521   7.951  0.2880  0.0819  0.0754
  129OSM   H14S13873   2.572   4.601   7.921  1.5855 -0.8672  0.5286
  129OSM   H14T13874   2.564   4.430   7.965  0.4719  0.3407  0.9695
  129OSM   C15S13875   2.442   4.562   8.086  0.1944 -0.2649  0.3818
  129OSM   H15S13876   2.349   4.503   8.096  1.7934 -3.0753 -0.1799
  129OSM   H15T13877   2.408   4.668   8.087 -2.4193 -1.0373  1.2898
  129OSM   C16S13878   2.540   4.542   8.206 -0.1071  0.0480 -0.3387
  129OSM   H16S13879   2.610   4.628   8.216  0.7386 -0.6027 -0.6192
  129OSM   H16T13880   2.588   4.443   8.193 -2.6724 -1.4891  1.1541
  129OSM   C17S13881   2.467   4.555   8.348  0.6587 -0.7194  0.7837
  129OSM   H17S13882   2.531   4.522   8.432 -0.0972  0.1700  1.7371
  129OSM   H17T13883   2.377   4.491   8.359  1.0156 -1.1696  1.1244
  129OSM   C18S13884   2.422   4.700   8.374  0.5509  0.8562 -0.0254
  129OSM   H18S13885   2.358   4.728   8.288  1.4385 -0.2756 -1.0920
  129OSM   H18T13886   2.513   4.763   8.367  1.2492  0.2027  2.2542
  129OSM   H18U13887   2.373   4.724   8.471  0.1037  1.5803 -0.4208
  129OSM    C1F13888   2.010   3.942   6.804 -0.4871  0.2148  0.6010
  129OSM     OF13889   2.078   3.875   6.721 -0.2168 -0.5090  0.0562
  129OSM    C2F13890   1.921   3.861   6.897 -0.5408 -0.3720  0.1612
  129OSM    H2F13891   1.857   3.787   6.845 -0.1447 -0.4634 -0.2035
  129OSM    H2G13892   1.849   3.931   6.945 -0.5486  0.6296 -1.2418
  129OSM    C3F13893   1.999   3.790   7.006 -0.6955  0.3440  0.5364
  129OSM    H3F13894   2.059   3.870   7.056 -0.2893  1.1144 -1.1103
  129OSM    H3G13895   2.058   3.714   6.951 -1.4214  0.3448 -0.2624
  129OSM    C4F13896   1.908   3.717   7.105  0.4811 -0.3542  0.2996
  129OSM    H4F13897   1.852   3.647   7.040 -0.4631  1.1249 -0.5276
  129OSM    H4G13898   1.832   3.782   7.154 -0.1194 -0.4676 -0.4649
  129OSM    C5F13899   1.994   3.658   7.219 -0.0362  0.0873 -0.2524
  129OSM    H5F13900   2.095   3.704   7.215 -0.0093  0.3915  2.5187
  129OSM    H5G13901   2.022   3.551   7.202 -0.4114 -0.2118  0.9743
  129OSM    C6F13902   1.942   3.668   7.361 -0.4385  0.3737  0.0116
  129OSM    H6F13903   1.854   3.604   7.380  0.4133 -0.6649  0.5752
  129OSM    H6G13904   1.908   3.772   7.379 -1.2682 -0.0558  0.9977
  129OSM    C7F13905   2.056   3.614   7.455  0.5076  0.8916 -1.2175
  129OSM    H7F13906   2.130   3.697   7.458  0.9545  0.5827 -2.8106
  129OSM    H7G13907   2.096   3.517   7.418  0.0078 -0.4891  1.6094
  129OSM    C8F13908   2.008   3.584   7.603  0.3686  0.4679 -0.2254
  129OSM    H8F13909   1.925   3.511   7.592  0.3929 -0.0536  2.3682
  129OSM    H8G13910   1.959   3.677   7.639  0.0160 -0.0002  0.5282
  129OSM    C9F13911   2.110   3.527   7.692 -0.5783  0.6056 -0.4672
  129OSM    H9F13912   2.122   3.419   7.681  0.2060  0.2206  2.9274
  129OSM   C10F13913   2.177   3.600   7.781 -0.7120  0.7938 -0.2921
  129OSM   H10F13914   2.243   3.553   7.855  0.7957  2.1326 -0.7348
  129OSM   C11F13915   2.176   3.745   7.804  0.0574 -0.5189  0.1620
  129OSM   H11F13916   2.105   3.787   7.730 -1.8718 -3.6768  0.0189
  129OSM   H11G13917   2.270   3.800   7.783 -0.4788  0.2209 -0.3323
  129OSM   C12F13918   2.127   3.791   7.945 -0.0434 -0.3451  0.0149
  129OSM   H12F13919   2.032   3.741   7.972 -2.1656  2.9543 -0.7485
  129OSM   H12G13920   2.106   3.900   7.951  1.4134  0.0974 -2.0345
  129OSM   C13F13921   2.239   3.751   8.043 -0.3072  0.4398 -0.1926
  129OSM   H13F13922   2.337   3.754   7.992  0.0407 -0.6063  0.3861
  129OSM   H13G13923   2.210   3.657   8.094  1.5930  0.3276  0.7550
  129OSM   C14F13924   2.260   3.850   8.158  0.2093 -0.8307 -0.5109
  129OSM   H14F13925   2.165   3.867   8.213 -1.1734 -0.4537 -2.8874
  129OSM   H14G13926   2.293   3.945   8.111  3.2814 -1.2835  0.4522
  129OSM   C15F13927   2.375   3.824   8.258  0.3424 -0.5537  0.1267
  129OSM   H15F13928   2.406   3.917   8.310 -0.4786  0.3091 -0.8858
  129OSM   H15G13929   2.458   3.779   8.199  2.3400  0.6848  1.8619
  129OSM   C16F13930   2.332   3.723   8.363  0.4404 -0.3267 -0.1257
  129OSM   H16F13931   2.269   3.641   8.321 -1.7313  1.2224 -0.0586
  129OSM   H16G13932   2.259   3.780   8.424 -1.2649 -1.9477 -0.5266
  129OSM   C17F13933   2.444   3.665   8.449  0.0367  0.3187  0.4046
  129OSM   H17F13934   2.533   3.633   8.391 -0.8169  0.9958 -1.3509
  129OSM   H17G13935   2.405   3.573   8.499 -0.7298 -0.6826 -1.8919
  129OSM   C18F13936   2.502   3.768   8.553  0.6632 -0.6720 -0.6215
  129OSM   H18F13937   2.586   3.726   8.612 -2.1018 -3.3526  1.7607
  129OSM   H18G13938   2.417   3.797   8.619  2.2279  0.2294  1.0836
  129OSM   H18H13939   2.536   3.859   8.499  0.2285 -0.9999 -1.4560
  130OSM      N13940   5.896   0.602   6.197  0.0177 -0.3688 -0.1722
  130OSM    C1513941   5.967   0.560   6.072 -0.1134 -0.4665 -0.6962
  130OSM   H15A13942   6.067   0.600   6.078  0.3019 -0.6754 -4.3234
  130OSM   H15B13943   5.927   0.604   5.982  0.3385 -1.7070 -1.5219
  130OSM   H15C13944   5.978   0.453   6.061  2.4107 -0.2294 -0.9790
  130OSM    C1413945   5.898   0.758   6.187 -0.0058 -0.2151 -0.2208
  130OSM   H14A13946   5.842   0.818   6.257  1.7679  1.5700 -0.2255
  130OSM   H14B13947   5.865   0.782   6.087  2.8687 -3.1860 -2.1245
  130OSM   H14C13948   6.001   0.792   6.190 -0.4411  1.1081  0.1217
  130OSM    C1313949   5.752   0.556   6.199  0.1110 -1.1370  0.3695
  130OSM   H13A13950   5.706   0.617   6.276  3.0980 -0.4283  1.7303
  130OSM   H13B13951   5.739   0.451   6.219  0.0123 -1.3546 -0.7955
  130OSM   H13C13952   5.708   0.589   6.106  0.4207 -0.9645  0.2857
  130OSM    C1213953   5.959   0.559   6.327  0.4571  0.3578 -0.2464
  130OSM   H12A13954   5.943   0.453   6.336 -1.4150  0.6415  0.2705
  130OSM   H12B13955   5.906   0.611   6.405 -0.8685  2.0977 -2.1755
  130OSM    C1113956   6.109   0.587   6.351 -0.2980 -0.0910  1.2968
  130OSM   H11A13957   6.138   0.549   6.451  0.1795 -0.1192  1.1509
  130OSM   H11B13958   6.134   0.695   6.344 -0.0104 -0.0219  3.0797
  130OSM      P13959   6.325   0.556   6.191 -0.2339 -0.0006  0.3681
  130OSM    O1313960   6.322   0.501   6.054  0.0129  0.5072 -0.4866
  130OSM    O1413961   6.344   0.700   6.212  0.0100 -0.1853 -0.2982
  130OSM    O1113962   6.430   0.482   6.279  0.3266  0.3864  0.1158
  130OSM    O1213963   6.185   0.509   6.254 -0.2051  0.3002 -0.2362
  130OSM    C1S13964   6.459   0.518   6.418 -0.2279 -0.4485  0.3812
  130OSM    H1S13965   6.367   0.516   6.481 -1.8850  2.1931 -1.7375
  130OSM    H1T13966   6.502   0.620   6.416 -0.1150 -0.4518  1.8094
  130OSM     NF13967   6.600   0.505   6.609  0.1924 -0.7032  0.0166
  130OSM    HNF13968   6.683   0.558   6.626 -1.7760  1.9780  2.2580
  130OSM    C2S13969   6.577   0.439   6.480  0.1307  0.8798 -0.2677
  130OSM    H2S13970   6.547   0.334   6.498  1.2932  0.6178  0.2271
  130OSM    C3S13971   6.708   0.448   6.391  0.8024  0.3507 -0.0451
  130OSM    H3S13972   6.726   0.555   6.366 -1.8803  0.8949  0.0163
  130OSM     O313973   6.682   0.381   6.265 -0.8364  0.4732 -0.1875
  130OSM    HO313974   6.589   0.356   6.272  0.2236 -3.8705  1.9242
  130OSM    C4S13975   6.822   0.381   6.459  1.1385  0.7425  0.1486
  130OSM    H4S13976   6.821   0.271   6.454  0.5535  0.7849 -1.5317
  130OSM    C5S13977   6.925   0.441   6.516  0.7582 -0.0974 -0.1748
  130OSM    H5S13978   6.929   0.551   6.519 -0.4013 -0.0557  0.2417
  130OSM    C6S13979   7.048   0.376   6.577 -0.2032 -0.5771 -0.5815
  130OSM    H6S13980   7.128   0.391   6.501 -0.2315  0.4808 -0.4185
  130OSM    H6T13981   7.030   0.268   6.588 -1.6188 -0.2987  0.0354
  130OSM    C7S13982   7.089   0.434   6.715 -0.1231  0.3213  0.3411
  130OSM    H7S13983   7.117   0.540   6.702 -1.0870  0.4055 -1.3984
  130OSM    H7T13984   7.176   0.375   6.752  0.9743  2.5496  1.4928
  130OSM    C8S13985   6.980   0.420   6.820  1.4821  0.5602  0.0346
  130OSM    H8S13986   6.949   0.314   6.825  0.5856  0.7146 -1.5849
  130OSM    H8T13987   6.895   0.489   6.800  0.3333 -0.4262  1.3799
  130OSM    C9S13988   7.035   0.469   6.960  0.5584 -0.3608  0.3058
  130OSM    H9S13989   7.077   0.573   6.962  0.6540 -0.4110  1.9695
  130OSM    H9T13990   7.116   0.398   6.989 -0.6175 -1.0558  1.9892
  130OSM   C10S13991   6.945   0.464   7.088  0.2222 -0.2996  0.1154
  130OSM   H10S13992   6.879   0.375   7.081 -1.1744  0.6855  0.3147
  130OSM   H10T13993   6.882   0.553   7.067  2.0563  0.8779 -0.6960
  130OSM   C11S13994   7.027   0.465   7.217  0.3854 -0.2868 -0.1674
  130OSM   H11S13995   7.096   0.551   7.207  3.1921 -2.2178  1.3421
  130OSM   H11T13996   7.092   0.375   7.229 -0.9877 -1.4805 -1.2441
  130OSM   C12S13997   6.944   0.488   7.343  0.3418 -0.2957 -0.0605
  130OSM   H12S13998   6.865   0.416   7.373  0.1043  0.3259  0.8380
  130OSM   H12T13999   6.889   0.581   7.315  0.8892  1.1981  3.3519
  130OSM   C13S14000   7.030   0.521   7.463  0.6291  0.1918  0.8690
  130OSM   H13S14001   7.105   0.600   7.442 -0.4639  0.4862 -2.7587
  130OSM   H13T14002   7.077   0.430   7.506 -1.1719 -1.1700  0.1140
  130OSM   C14S14003   6.936   0.567   7.585  0.1877  0.2897  0.2126
  130OSM   H14S14004   6.867   0.483   7.609  0.6809 -0.1982 -0.0522
  130OSM   H14T14005   6.871   0.654   7.565  1.1329  0.9465 -0.0815
  130OSM   C15S14006   6.992   0.586   7.723  0.0936  0.4692 -0.9016
  130OSM   H15S14007   7.061   0.674   7.723  1.1781 -0.3478  0.0842
  130OSM   H15T14008   7.058   0.498   7.738 -0.0827  0.5955  0.8374
  130OSM   C16S14009   6.898   0.582   7.839 -0.5693 -0.3632 -0.2082
  130OSM   H16S14010   6.832   0.494   7.830 -1.9560  0.6929 -0.8082
  130OSM   H16T14011   6.835   0.673   7.843  0.5921  0.4909 -0.5252
  130OSM   C17S14012   6.962   0.586   7.979 -0.0676 -0.0162 -0.5276
  130OSM   H17S14013   6.880   0.594   8.053  0.5373 -0.4415  0.2012
  130OSM   H17T14014   7.023   0.678   7.989 -0.1258  0.0113 -0.4320
  130OSM   C18S14015   7.050   0.470   8.015  0.0110  0.5763  0.3624
  130OSM   H18S14016   7.138   0.473   7.948 -0.1081  0.9129  0.2171
  130OSM   H18T14017   7.010   0.370   7.988 -0.7600  0.6128  1.3031
  130OSM   H18U14018   7.090   0.466   8.119  1.7162  1.8393 -0.1909
  130OSM    C1F14019   6.518   0.499   6.712  0.3268  0.5074 -0.1312
  130OSM     OF14020   6.408   0.444   6.709 -0.0364  0.3764 -0.1287
  130OSM    C2F14021   6.571   0.555   6.840  0.4779 -0.2344  0.0857
  130OSM    H2F14022   6.601   0.659   6.816  1.8955 -0.4153  0.9671
  130OSM    H2G14023   6.664   0.496   6.859  0.1013 -1.0514 -0.5075
  130OSM    C3F14024   6.471   0.539   6.956 -0.0527 -0.3081 -0.0050
  130OSM    H3F14025   6.468   0.429   6.972  4.5229 -0.5678  0.4046
  130OSM    H3G14026   6.377   0.584   6.916 -0.1147 -0.4275  0.0049
  130OSM    C4F14027   6.527   0.599   7.086 -0.2819  0.0336 -0.1283
  130OSM    H4F14028   6.544   0.708   7.081  1.2603 -0.1264  1.0281
  130OSM    H4G14029   6.627   0.554   7.099 -0.1096 -0.2801 -2.1771
  130OSM    C5F14030   6.450   0.554   7.215  0.3043  0.2908 -0.2930
  130OSM    H5F14031   6.443   0.443   7.219  1.0187  0.1735 -1.5843
  130OSM    H5G14032   6.345   0.588   7.228 -0.2310 -0.4965 -2.2232
  130OSM    C6F14033   6.527   0.591   7.340  0.4994 -0.6709 -0.3599
  130OSM    H6F14034   6.542   0.701   7.339 -1.2448 -0.3587  1.1072
  130OSM    H6G14035   6.625   0.540   7.349  1.6833  1.3159 -1.1738
  130OSM    C7F14036   6.450   0.550   7.461 -0.2519  0.1173 -0.0096
  130OSM    H7F14037   6.453   0.439   7.467 -0.2889  0.1773  1.4463
  130OSM    H7G14038   6.346   0.588   7.457 -0.2075  0.4337  1.3744
  130OSM    C8F14039   6.512   0.602   7.593 -0.4454  0.0782  0.4121
  130OSM    H8F14040   6.621   0.583   7.596 -0.3901  0.4477  0.9673
  130OSM    H8G14041   6.469   0.552   7.682  0.8091 -1.5227  0.1487
  130OSM    C9F14042   6.506   0.749   7.613 -0.5261 -0.9211  0.0564
  130OSM    H9F14043   6.513   0.802   7.516  3.5768 -2.2987 -0.5756
  130OSM   C10F14044   6.496   0.819   7.722 -0.2389 -0.1294  0.1057
  130OSM   H10F14045   6.470   0.926   7.722  0.0271 -0.0291  2.2385
  130OSM   C11F14046   6.490   0.767   7.865 -0.3085 -0.4159 -0.5403
  130OSM   H11F14047   6.538   0.667   7.872  0.5781  0.0486  0.1701
  130OSM   H11G14048   6.386   0.747   7.900 -0.1474  0.7338  0.6624
  130OSM   C12F14049   6.563   0.855   7.970  0.3338  0.7407  0.5410
  130OSM   H12F14050   6.527   0.960   7.978  3.2801  1.9135 -0.3262
  130OSM   H12G14051   6.662   0.858   7.920  0.6937  0.3265  1.2193
  130OSM   C13F14052   6.580   0.791   8.104 -0.8145  0.2369  0.4434
  130OSM   H13F14053   6.620   0.690   8.081 -2.4390 -0.4718  0.5663
  130OSM   H13G14054   6.478   0.781   8.149 -1.4054  1.2180 -0.6187
  130OSM   C14F14055   6.679   0.858   8.197  0.2590 -1.0660  0.3990
  130OSM   H14F14056   6.641   0.948   8.250  2.5776  0.5394 -0.4837
  130OSM   H14G14057   6.766   0.893   8.138  0.6015  0.4438  1.7328
  130OSM   C15F14058   6.736   0.772   8.307  0.5691  0.2172  0.0707
  130OSM   H15F14059   6.793   0.827   8.384  1.3720 -0.4401 -0.0379
  130OSM   H15G14060   6.819   0.716   8.258  0.2327  1.0960 -1.5561
  130OSM   C16F14061   6.626   0.687   8.385  0.0017 -0.2696 -0.7452
  130OSM   H16F14062   6.677   0.611   8.449 -1.3484 -0.3649  0.2610
  130OSM   H16G14063   6.561   0.633   8.312  1.4134 -0.7000 -1.7384
  130OSM   C17F14064   6.552   0.773   8.484 -0.7816 -0.7672  0.6653
  130OSM   H17F14065   6.503   0.863   8.440 -0.3574  0.0130  1.7504
  130OSM   H17G14066   6.636   0.807   8.548 -1.2247  2.2313 -0.1626
  130OSM   C18F14067   6.447   0.701   8.575 -0.3046 -0.4247 -0.1694
  130OSM   H18F14068   6.495   0.614   8.624  0.4609  0.5708  0.9388
  130OSM   H18G14069   6.364   0.672   8.507  0.3915  0.9827 -1.7259
  130OSM   H18H14070   6.418   0.768   8.659  3.4614 -0.9208  1.7360
  131OSM      N14071   4.681   1.847   5.918  0.8534  0.3304  0.2100
  131OSM    C1514072   4.823   1.804   5.910 -0.3220  0.2353  0.2177
  131OSM   H15A14073   4.882   1.881   5.863 -0.7591 -0.7221 -2.0077
  131OSM   H15B14074   4.825   1.721   5.841  1.3943  1.7275 -1.6671
  131OSM   H15C14075   4.853   1.786   6.013 -0.3676  0.1089  0.2088
  131OSM    C1414076   4.622   1.868   5.780  0.2855 -0.0174 -0.1253
  131OSM   H14A14077   4.521   1.905   5.791  0.2539  0.1850 -1.0004
  131OSM   H14B14078   4.621   1.780   5.717 -0.7890  0.1687 -0.3833
  131OSM   H14C14079   4.677   1.946   5.729  0.5912 -1.0095 -1.3829
  131OSM    C1314080   4.608   1.736   5.992 -0.6438 -0.3802  0.2913
  131OSM   H13A14081   4.654   1.726   6.089 -1.2349  0.1119  0.6239
  131OSM   H13B14082   4.626   1.639   5.948  0.1193 -0.4206  0.6713
  131OSM   H13C14083   4.504   1.756   6.010 -0.3664 -0.3459  1.9739
  131OSM    C1214084   4.664   1.977   5.985  0.4556  0.4129 -0.1720
  131OSM   H12A14085   4.563   2.014   5.972  0.3575  0.0333 -0.4982
  131OSM   H12B14086   4.731   2.042   5.931 -0.3804  0.4058 -1.2730
  131OSM    C1114087   4.695   1.979   6.142 -0.2001 -0.0842  0.8177
  131OSM   H11A14088   4.801   1.958   6.170  0.0709 -2.0983 -1.4463
  131OSM   H11B14089   4.629   1.901   6.185 -1.2410 -0.1940 -0.8967
  131OSM      P14090   4.727   2.233   6.171  0.4356 -0.1304 -0.6125
  131OSM    O1314091   4.783   2.228   6.037  0.1318  0.8343  0.1713
  131OSM    O1414092   4.643   2.351   6.201  0.4628  0.2783 -0.0156
  131OSM    O1114093   4.841   2.201   6.282  0.0569  0.6399 -0.1969
  131OSM    O1214094   4.634   2.104   6.190  0.0156  0.1458  0.0227
  131OSM    C1S14095   4.874   2.309   6.371  0.5434  0.1924 -0.0570
  131OSM    H1S14096   4.795   2.333   6.445  1.4742  1.8669  0.4585
  131OSM    H1T14097   4.896   2.397   6.306  0.3373 -0.5232 -1.1221
  131OSM     NF14098   5.024   2.350   6.568 -0.3504 -0.7127  0.6667
  131OSM    HNF14099   5.077   2.434   6.571 -2.0057  0.3536  2.8588
  131OSM    C2S14100   5.007   2.280   6.442 -0.3530  0.3201 -0.0379
  131OSM    H2S14101   5.013   2.170   6.457  1.2336  0.5559  1.1951
  131OSM    C3S14102   5.124   2.313   6.336 -0.2316  0.5351 -0.0369
  131OSM    H3S14103   5.118   2.418   6.298  1.0313  0.8617  0.5828
  131OSM     O314104   5.133   2.225   6.221 -0.5025 -0.1476 -0.1671
  131OSM    HO314105   5.055   2.169   6.217 -0.0097 -0.9945  1.4058
  131OSM    C4S14106   5.258   2.306   6.414 -0.3916 -0.6727  0.5996
  131OSM    H4S14107   5.284   2.410   6.440 -1.1768  0.9581 -4.0320
  131OSM    C5S14108   5.351   2.217   6.435  0.0699  0.1079 -0.1257
  131OSM    H5S14109   5.349   2.120   6.384 -0.6934 -0.3217  0.7029
  131OSM    C6S14110   5.473   2.247   6.519  0.6198  0.0280 -0.9827
  131OSM    H6S14111   5.497   2.356   6.523 -1.4881  0.5489 -1.3904
  131OSM    H6T14112   5.563   2.186   6.495  0.5890  0.2991 -1.8401
  131OSM    C7S14113   5.428   2.198   6.664 -0.9347  0.0454  1.3214
  131OSM    H7S14114   5.410   2.088   6.660  0.7660 -0.2387 -0.7978
  131OSM    H7T14115   5.337   2.246   6.705  0.3302  0.4684  3.8260
  131OSM    C8S14116   5.541   2.219   6.764  0.1756 -0.7912 -0.4079
  131OSM    H8S14117   5.571   2.325   6.770 -3.4007  0.4020 -1.0817
  131OSM    H8T14118   5.629   2.165   6.722  1.0762  1.1681 -1.1833
  131OSM    C9S14119   5.501   2.167   6.903  0.3367 -0.3370  0.2649
  131OSM    H9S14120   5.466   2.061   6.901  0.0479 -0.3167  2.3172
  131OSM    H9T14121   5.414   2.229   6.932  1.4821  0.5912  1.8381
  131OSM   C10S14122   5.609   2.180   7.009 -0.5424  0.2758  0.6783
  131OSM   H10S14123   5.619   2.289   7.030  0.4290  0.4074 -0.3637
  131OSM   H10T14124   5.705   2.143   6.969 -1.3946 -2.4388  0.9401
  131OSM   C11S14125   5.590   2.089   7.136 -0.3053  0.1629  0.4966
  131OSM   H11S14126   5.603   1.989   7.090 -0.4111 -0.2084  1.2570
  131OSM   H11T14127   5.484   2.093   7.170 -0.6273 -1.9496 -0.1418
  131OSM   C12S14128   5.690   2.118   7.248 -0.4367 -0.1444 -0.6327
  131OSM   H12S14129   5.685   2.219   7.293 -1.1667 -0.5243  0.1803
  131OSM   H12T14130   5.792   2.104   7.206 -0.7857 -0.3972 -1.4079
  131OSM   C13S14131   5.681   2.021   7.371 -0.1398  0.5507 -0.1505
  131OSM   H13S14132   5.704   1.916   7.344 -1.6839 -0.0879  0.8604
  131OSM   H13T14133   5.575   2.002   7.400  0.0415 -1.0937 -0.4850
  131OSM   C14S14134   5.761   2.072   7.499 -0.0735 -0.7376  0.5039
  131OSM   H14S14135   5.712   2.169   7.526  1.9006  0.9778 -1.6232
  131OSM   H14T14136   5.869   2.091   7.484 -0.2471  0.1380  0.2820
  131OSM   C15S14137   5.750   1.961   7.609 -0.1574  0.6170  0.2330
  131OSM   H15S14138   5.821   1.882   7.576  2.0531  2.4102  0.4104
  131OSM   H15T14139   5.659   1.898   7.604  0.4461 -0.2613  0.1051
  131OSM   C16S14140   5.782   2.017   7.746  0.1186  1.0645 -0.2095
  131OSM   H16S14141   5.721   2.110   7.755 -2.8214 -0.6956 -0.5889
  131OSM   H16T14142   5.888   2.047   7.758  0.6660 -1.1929  1.3585
  131OSM   C17S14143   5.755   1.918   7.859  0.2641  0.3660 -0.2406
  131OSM   H17S14144   5.820   1.829   7.853 -3.0247 -2.1206 -1.9311
  131OSM   H17T14145   5.659   1.866   7.843  1.5680 -2.0559 -0.6047
  131OSM   C18S14146   5.766   1.976   7.999  0.0605  0.3199 -0.1252
  131OSM   H18S14147   5.866   2.025   8.003 -0.1375  0.7722 -0.6709
  131OSM   H18T14148   5.764   1.898   8.078  1.2930  0.8016  0.4195
  131OSM   H18U14149   5.691   2.055   8.025  0.1037 -0.6379  3.4516
  131OSM    C1F14150   4.958   2.322   6.680  0.0508 -0.4184  0.1819
  131OSM     OF14151   4.878   2.233   6.694 -0.3213 -0.2697 -0.2796
  131OSM    C2F14152   5.005   2.400   6.797  0.0888  0.6737  0.1227
  131OSM    H2F14153   5.022   2.505   6.767  1.1645  1.1844  2.2669
  131OSM    H2G14154   5.108   2.372   6.829 -1.0609 -0.2325  3.4430
  131OSM    C3F14155   4.917   2.374   6.921  0.2173 -0.5598  0.4876
  131OSM    H3F14156   4.916   2.265   6.942 -0.5590 -0.6526 -0.0131
  131OSM    H3G14157   4.810   2.397   6.906  0.1802 -2.3449 -3.2284
  131OSM    C4F14158   4.967   2.440   7.047  0.2794 -0.1931 -0.7785
  131OSM    H4F14159   5.074   2.411   7.051  0.0825 -0.8517  0.1300
  131OSM    H4G14160   4.916   2.383   7.127 -1.5943  0.6646 -1.3103
  131OSM    C5F14161   4.951   2.591   7.079 -0.1856 -0.1951 -0.0370
  131OSM    H5F14162   4.844   2.618   7.062  0.1683  1.9521  0.8293
  131OSM    H5G14163   5.017   2.645   7.008  0.4890  1.2205  1.6090
  131OSM    C6F14164   4.976   2.644   7.221 -0.5123  0.8474  0.0870
  131OSM    H6F14165   4.886   2.602   7.272 -2.3831  0.9805 -2.8705
  131OSM    H6G14166   4.979   2.755   7.213  2.8934  0.8019 -0.5445
  131OSM    C7F14167   5.106   2.602   7.290 -0.1198  0.4834  0.3835
  131OSM    H7F14168   5.190   2.646   7.232 -0.0765 -0.9842 -0.7211
  131OSM    H7G14169   5.126   2.493   7.290  1.2798  0.7032 -0.8809
  131OSM    C8F14170   5.115   2.647   7.442  0.1896 -0.3247 -1.0103
  131OSM    H8F14171   5.090   2.755   7.434  0.2728 -0.0037  1.8768
  131OSM    H8G14172   5.214   2.640   7.491  0.7613  0.8174 -1.9479
  131OSM    C9F14173   5.012   2.589   7.538  0.0137  0.2688  0.4915
  131OSM    H9F14174   4.911   2.629   7.520  0.9635  2.9378  0.6703
  131OSM   C10F14175   5.038   2.499   7.628 -0.5846  0.4986 -0.8244
  131OSM   H10F14176   4.963   2.462   7.699  0.0113 -1.8198 -1.3152
  131OSM   C11F14177   5.173   2.439   7.663 -0.1156  0.1880  0.1511
  131OSM   H11F14178   5.245   2.452   7.579 -0.8797  0.0518 -0.5408
  131OSM   H11G14179   5.165   2.328   7.673 -1.0464  0.1130 -1.2039
  131OSM   C12F14180   5.238   2.489   7.793 -0.2278  0.5816 -0.1633
  131OSM   H12F14181   5.234   2.600   7.796 -0.4406  0.5810 -0.3732
  131OSM   H12G14182   5.341   2.448   7.791 -0.9281 -1.3560  0.9404
  131OSM   C13F14183   5.173   2.439   7.922 -0.1531  0.7329  0.1097
  131OSM   H13F14184   5.174   2.328   7.920  0.3184  0.7227  0.6124
  131OSM   H13G14185   5.067   2.472   7.916 -0.1111  0.9096  0.3418
  131OSM   C14F14186   5.239   2.470   8.055 -0.0801 -0.2313 -0.3065
  131OSM   H14F14187   5.223   2.574   8.093 -0.0521  0.3732 -1.8611
  131OSM   H14G14188   5.350   2.465   8.047  0.2128  2.7005  0.5713
  131OSM   C15F14189   5.190   2.377   8.168 -0.3169  0.5195 -0.8951
  131OSM   H15F14190   5.214   2.274   8.133 -0.1184  1.1817 -2.8565
  131OSM   H15G14191   5.080   2.379   8.182 -0.0366 -1.4568  2.7800
  131OSM   C16F14192   5.253   2.401   8.302 -0.5808 -0.2614 -0.2223
  131OSM   H16F14193   5.194   2.488   8.337 -0.8353  0.2043 -1.7101
  131OSM   H16G14194   5.355   2.444   8.292 -0.5585 -0.6939 -2.5122
  131OSM   C17F14195   5.241   2.273   8.386  0.2641  0.4126  0.1903
  131OSM   H17F14196   5.339   2.221   8.380  0.1741  0.3794 -3.2253
  131OSM   H17G14197   5.159   2.208   8.348 -1.4550  3.4907 -1.8111
  131OSM   C18F14198   5.214   2.309   8.535  0.0727 -0.2657  0.1870
  131OSM   H18F14199   5.119   2.367   8.546  0.1246 -0.3865  1.3581
  131OSM   H18G14200   5.299   2.368   8.575  0.3056  0.2527 -1.0244
  131OSM   H18H14201   5.214   2.211   8.586  3.2166 -1.6968 -2.2337
  132OSM      N14202   5.662   3.801   6.490  0.8632 -0.3172 -0.1398
  132OSM    C1514203   5.533   3.843   6.556 -0.2003  0.0374  0.0167
  132OSM   H15A14204   5.540   3.916   6.636  2.0073 -2.4513  2.3146
  132OSM   H15B14205   5.481   3.757   6.594  0.3268 -0.9120 -1.3607
  132OSM   H15C14206   5.474   3.878   6.473  0.0995 -0.0511 -0.2387
  132OSM    C1414207   5.750   3.723   6.578 -0.5906 -0.1284  0.6908
  132OSM   H14A14208   5.839   3.696   6.523 -1.5412 -1.0358 -0.4559
  132OSM   H14B14209   5.689   3.638   6.605 -0.7464 -0.0162  0.6929
  132OSM   H14C14210   5.785   3.775   6.666  2.8897 -0.4671 -0.3668
  132OSM    C1314211   5.628   3.719   6.374 -0.0435 -0.6581  0.3566
  132OSM   H13A14212   5.553   3.771   6.316 -1.3549 -2.0494  0.7429
  132OSM   H13B14213   5.589   3.621   6.400  2.0978 -2.3853 -2.3107
  132OSM   H13C14214   5.713   3.709   6.308  0.5660  0.9717  0.8455
  132OSM    C1214215   5.738   3.927   6.456 -0.7651 -0.3187 -0.6167
  132OSM   H12A14216   5.773   3.976   6.546 -0.6169 -1.0245 -0.2787
  132OSM   H12B14217   5.697   3.999   6.388  0.8347 -0.1043 -1.4161
  132OSM    C1114218   5.879   3.906   6.389  0.6088  0.0358  0.0457
  132OSM   H11A14219   5.860   3.861   6.289  0.8596  2.1275 -0.9873
  132OSM   H11B14220   5.938   3.839   6.456 -0.2905 -1.6106 -0.7603
  132OSM      P14221   6.109   4.041   6.391  0.0262  0.0181  0.2700
  132OSM    O1314222   6.174   3.909   6.366 -0.6979  0.0748  0.3758
  132OSM    O1414223   6.147   4.147   6.295 -0.5195  0.9101  0.0978
  132OSM    O1114224   6.145   4.095   6.533  0.5257 -0.2011 -0.5611
  132OSM    O1214225   5.949   4.028   6.380  0.1967  0.5033 -0.2903
  132OSM    C1S14226   6.047   4.095   6.637 -0.8463  0.6848  0.2221
  132OSM    H1S14227   5.963   4.025   6.615 -0.0889 -0.5736  1.1422
  132OSM    H1T14228   6.000   4.195   6.643 -0.7813  0.7779 -0.7420
  132OSM     NF14229   5.994   4.043   6.873 -0.2034 -0.1714 -0.0830
  132OSM    HNF14230   5.955   4.121   6.922 -1.1054 -1.5039  1.4315
  132OSM    C2S14231   6.102   4.061   6.774  0.6774  0.6178  0.4636
  132OSM    H2S14232   6.149   3.961   6.765  1.1345  0.6740  1.9487
  132OSM    C3S14233   6.218   4.164   6.812  0.0671 -0.3626 -0.6930
  132OSM    H3S14234   6.170   4.263   6.830  1.0966 -0.0252  0.3383
  132OSM     O314235   6.322   4.190   6.713  0.4823  0.5378 -0.1059
  132OSM    HO314236   6.292   4.147   6.632 -1.1814  1.4875 -0.0609
  132OSM    C4S14237   6.290   4.123   6.937  0.2119  0.0638 -0.4156
  132OSM    H4S14238   6.355   4.035   6.925 -0.1516 -0.1391 -0.9845
  132OSM    C5S14239   6.289   4.200   7.051  0.4277 -0.5085  0.1129
  132OSM    H5S14240   6.223   4.287   7.060 -0.4405 -1.2599  1.4122
  132OSM    C6S14241   6.363   4.166   7.180 -0.1323  0.4774 -0.3355
  132OSM    H6S14242   6.460   4.219   7.186  1.4630 -2.3856  0.8877
  132OSM    H6T14243   6.402   4.063   7.167  2.2648  0.6508  3.7833
  132OSM    C7S14244   6.279   4.165   7.312 -0.8079 -0.0029 -0.4027
  132OSM    H7S14245   6.205   4.082   7.311  0.4512 -1.1926 -1.8928
  132OSM    H7T14246   6.231   4.265   7.315 -2.2950 -0.5864 -2.6891
  132OSM    C8S14247   6.386   4.152   7.428  0.6450  0.2709 -0.6319
  132OSM    H8S14248   6.456   4.238   7.432  0.5815  0.3586 -1.3373
  132OSM    H8T14249   6.447   4.065   7.396  0.2717 -0.2028 -0.0943
  132OSM    C9S14250   6.310   4.133   7.568  0.6110  0.1961 -0.3291
  132OSM    H9S14251   6.250   4.040   7.553 -0.7862  1.2707 -1.8605
  132OSM    H9T14252   6.246   4.223   7.581  0.3190 -0.1521  0.7719
  132OSM   C10S14253   6.412   4.115   7.678 -0.4435 -0.0233 -0.4742
  132OSM   H10S14254   6.471   4.210   7.681  1.0395 -0.9415  0.9158
  132OSM   H10T14255   6.486   4.040   7.644 -0.3525  0.7754 -2.1617
  132OSM   C11S14256   6.348   4.080   7.820  0.4347 -0.2897  0.3636
  132OSM   H11S14257   6.321   3.973   7.809 -0.5396 -0.2076  1.7252
  132OSM   H11T14258   6.260   4.143   7.842 -0.4030 -1.3871  0.2140
  132OSM   C12S14259   6.452   4.091   7.926 -0.8150  0.1383  1.4375
  132OSM   H12S14260   6.455   4.191   7.974  0.8057  0.1726  1.3228
  132OSM   H12T14261   6.549   4.070   7.876 -1.9059  0.2246 -0.8408
  132OSM   C13S14262   6.447   3.995   8.048 -0.6613  0.1062  0.1008
  132OSM   H13S14263   6.540   4.009   8.108 -0.5724 -1.2110  0.2993
  132OSM   H13T14264   6.449   3.886   8.024  0.2429 -0.9731  4.1616
  132OSM   C14S14265   6.323   4.022   8.137  0.1853  0.1530  0.3838
  132OSM   H14S14266   6.237   4.004   8.069  0.5738  0.9915 -0.3559
  132OSM   H14T14267   6.313   4.128   8.168  1.0416  0.4965 -0.4683
  132OSM   C15S14268   6.306   3.925   8.246  0.2112 -0.3176 -0.6784
  132OSM   H15S14269   6.387   3.926   8.322 -0.3927 -3.1255  0.1158
  132OSM   H15T14270   6.305   3.818   8.215 -1.3909 -0.0663 -1.5848
  132OSM   C16S14271   6.179   3.960   8.328 -0.5448 -0.0069  0.3109
  132OSM   H16S14272   6.101   3.958   8.249 -2.0983 -1.9678  1.7690
  132OSM   H16T14273   6.197   4.059   8.375  0.1537 -0.0048  0.0534
  132OSM   C17S14274   6.155   3.863   8.449 -0.2732  0.2027  0.9360
  132OSM   H17S14275   6.252   3.857   8.503  0.5816 -2.1034 -0.7387
  132OSM   H17T14276   6.138   3.762   8.406  0.2932  0.5513 -0.1257
  132OSM   C18S14277   6.037   3.900   8.544 -0.8140 -0.4062 -0.0038
  132OSM   H18S14278   6.058   4.000   8.588  1.8590 -0.7110 -0.4471
  132OSM   H18T14279   6.034   3.832   8.632  1.5990 -0.5430  0.0333
  132OSM   H18U14280   5.941   3.894   8.489 -0.4242  1.9805 -1.0454
  132OSM    C1F14281   5.919   3.931   6.865 -0.3079 -0.5875 -0.0002
  132OSM     OF14282   5.949   3.838   6.791 -0.5223 -0.6426 -0.0363
  132OSM    C2F14283   5.795   3.939   6.946 -0.0749 -0.5662  0.1280
  132OSM    H2F14284   5.711   3.975   6.883 -0.9308  1.4258  2.2511
  132OSM    H2G14285   5.807   4.014   7.028 -2.2805 -0.1518  0.1361
  132OSM    C3F14286   5.750   3.807   6.995 -0.7429  0.0721  0.0136
  132OSM    H3F14287   5.834   3.741   7.024 -0.4893  0.9762  1.4307
  132OSM    H3G14288   5.696   3.753   6.914 -1.9168  0.9047  0.2135
  132OSM    C4F14289   5.663   3.806   7.117  0.0414 -0.6554 -0.6281
  132OSM    H4F14290   5.599   3.717   7.132 -1.8737  0.7131 -0.1922
  132OSM    H4G14291   5.593   3.891   7.104 -0.5636 -0.9915  0.3130
  132OSM    C5F14292   5.745   3.828   7.240 -0.1935  0.2365  0.3386
  132OSM    H5F14293   5.785   3.931   7.234 -1.2990  0.6404 -0.3963
  132OSM    H5G14294   5.833   3.761   7.254 -1.1562 -0.6024  3.0445
  132OSM    C6F14295   5.652   3.828   7.362 -0.1173 -0.7804 -0.8556
  132OSM    H6F14296   5.595   3.734   7.347 -0.7019 -1.3148  3.4798
  132OSM    H6G14297   5.582   3.913   7.359 -1.6497 -1.6333  3.4520
  132OSM    C7F14298   5.719   3.820   7.502  0.7832 -0.0821 -0.1659
  132OSM    H7F14299   5.771   3.918   7.511  1.0007  0.0987 -2.7006
  132OSM    H7G14300   5.793   3.738   7.493 -0.0526 -1.1334  1.9876
  132OSM    C8F14301   5.610   3.793   7.608  0.2718 -0.1178 -0.6210
  132OSM    H8F14302   5.546   3.710   7.572  3.9000 -2.7725 -1.5691
  132OSM    H8G14303   5.549   3.886   7.603 -1.2005 -1.0813 -1.0520
  132OSM    C9F14304   5.676   3.769   7.748 -0.5142 -0.3756  0.1649
  132OSM    H9F14305   5.742   3.681   7.749  0.0914 -0.1791 -3.9851
  132OSM   C10F14306   5.671   3.845   7.858  0.1554  0.7556  0.5312
  132OSM   H10F14307   5.718   3.808   7.950  0.0032 -2.2265 -0.4988
  132OSM   C11F14308   5.595   3.974   7.869 -0.0686  0.1375 -1.1852
  132OSM   H11F14309   5.502   3.970   7.808 -2.5170  2.3279  2.0352
  132OSM   H11G14310   5.654   4.059   7.828  2.8256  1.2470  4.3006
  132OSM   C12F14311   5.536   3.991   8.016 -0.4518  0.2335 -0.1325
  132OSM   H12F14312   5.491   3.894   8.046 -0.0655  0.5245  1.4532
  132OSM   H12G14313   5.450   4.061   8.014 -1.2943 -0.7700 -1.4931
  132OSM   C13F14314   5.644   4.015   8.129  0.3744 -0.6811  0.6060
  132OSM   H13F14315   5.672   4.121   8.112 -2.4801  0.7829  3.8123
  132OSM   H13G14316   5.735   3.954   8.113  0.3737 -0.6496  0.4777
  132OSM   C14F14317   5.590   3.993   8.268 -0.3140  0.7972  0.9157
  132OSM   H14F14318   5.528   3.901   8.264 -0.7799  1.1387 -0.1224
  132OSM   H14G14319   5.507   4.066   8.283 -0.2668  0.7583  1.3876
  132OSM   C15F14320   5.691   4.009   8.379 -0.3875 -0.0511 -0.0305
  132OSM   H15F14321   5.747   4.103   8.357  0.5093  0.2764  3.1301
  132OSM   H15G14322   5.758   3.920   8.373 -0.8975 -0.4004 -0.5617
  132OSM   C16F14323   5.626   4.015   8.521 -0.4766  0.3335 -0.1703
  132OSM   H16F14324   5.611   3.909   8.552  1.0514  0.0786 -0.2261
  132OSM   H16G14325   5.532   4.072   8.506 -1.8385 -2.3262 -3.0074
  132OSM   C17F14326   5.719   4.071   8.626 -0.0561  0.3743  0.3059
  132OSM   H17F14327   5.819   4.088   8.581 -0.3308  0.1412 -0.4116
  132OSM   H17G14328   5.729   3.995   8.707 -2.2051  0.7834  1.0149
  132OSM   C18F14329   5.649   4.195   8.694 -1.3149  0.1464 -0.0700
  132OSM   H18F14330   5.565   4.168   8.761 -1.5218  3.1382  1.0056
  132OSM   H18G14331   5.622   4.276   8.623 -2.2614  1.8531  2.1105
  132OSM   H18H14332   5.708   4.248   8.772 -2.1570 -0.3907  0.9520
  133OSM      N14333   0.512   3.792   6.439  0.5202  0.3068  0.1389
  133OSM    C1514334   0.415   3.690   6.386  0.6756 -0.4303 -1.0956
  133OSM   H15A14335   0.316   3.707   6.427  1.6703 -0.6051  1.5603
  133OSM   H15B14336   0.442   3.590   6.417 -1.0363 -0.1136  1.7538
  133OSM   H15C14337   0.397   3.704   6.281  0.7563  1.6976 -0.8658
  133OSM    C1414338   0.504   3.908   6.350  0.4789 -0.3092  0.0665
  133OSM   H14A14339   0.552   3.996   6.391 -1.6834  0.0181  2.1076
  133OSM   H14B14340   0.401   3.939   6.337  0.6396  0.2838  0.1670
  133OSM   H14C14341   0.536   3.883   6.249 -0.5102  0.7378 -0.5239
  133OSM    C1314342   0.473   3.832   6.579 -1.0255 -0.3559  0.3955
  133OSM   H13A14343   0.392   3.904   6.580  1.2531  2.3872 -1.0087
  133OSM   H13B14344   0.555   3.876   6.633 -0.1250  0.3211 -1.4302
  133OSM   H13C14345   0.449   3.740   6.630 -0.9604 -0.1980  0.7087
  133OSM    C1214346   0.655   3.740   6.440 -0.1207  0.0850 -0.1801
  133OSM   H12A14347   0.727   3.813   6.475 -0.5338  0.6720 -0.5355
  133OSM   H12B14348   0.676   3.717   6.337 -1.6432 -1.2422 -0.2230
  133OSM    C1114349   0.676   3.612   6.522 -0.3972 -0.4402 -0.3810
  133OSM   H11A14350   0.635   3.624   6.625 -0.8097  0.4172 -0.6398
  133OSM   H11B14351   0.787   3.602   6.529 -0.2883  1.2820  1.1355
  133OSM      P14352   0.627   3.356   6.512  0.4604  0.0138 -0.1380
  133OSM    O1314353   0.542   3.264   6.434  0.4483  0.4561 -0.6768
  133OSM    O1414354   0.769   3.326   6.532 -0.1559  0.4501  0.7607
  133OSM    O1114355   0.559   3.384   6.645  0.5210  0.4505 -0.1234
  133OSM    O1214356   0.612   3.497   6.450  0.5131 -0.4383 -0.0129
  133OSM    C1S14357   0.502   3.295   6.742  0.7381  0.4523  0.0094
  133OSM    H1S14358   0.579   3.232   6.790 -1.3838 -1.7246  0.7387
  133OSM    H1T14359   0.421   3.236   6.694 -0.4388  1.0816  1.1591
  133OSM     NF14360   0.393   3.315   6.969 -0.6097 -0.4156  0.2302
  133OSM    HNF14361   0.297   3.292   6.982 -0.8424  0.0046 -0.7115
  133OSM    C2S14362   0.437   3.388   6.843 -0.9335  0.4693 -0.4907
  133OSM    H2S14363   0.513   3.461   6.877 -0.3396 -0.1626 -0.4428
  133OSM    C3S14364   0.320   3.471   6.781  0.9139 -0.1995  0.0070
  133OSM    H3S14365   0.240   3.405   6.741 -2.2690  2.6837  1.1226
  133OSM     O314366   0.356   3.560   6.678 -0.0969  0.2207 -0.3710
  133OSM    HO314367   0.441   3.527   6.647 -0.9705  1.1033 -4.1790
  133OSM    C4S14368   0.249   3.553   6.889 -0.4389  0.0262  0.0463
  133OSM    H4S14369   0.313   3.634   6.928  0.1405  0.2545 -1.3278
  133OSM    C5S14370   0.129   3.528   6.943  0.7178  0.1664 -0.0266
  133OSM    H5S14371   0.060   3.450   6.905  0.7892 -0.6507  1.4603
  133OSM    C6S14372   0.059   3.619   7.048  0.4120  0.3914 -0.5692
  133OSM    H6S14373  -0.050   3.628   7.027 -0.2286 -1.5392  1.4715
  133OSM    H6T14374   0.107   3.718   7.064  3.0219 -0.9022  0.2748
  133OSM    C7S14375   0.070   3.546   7.190 -0.2767  0.2518 -0.3721
  133OSM    H7S14376   0.175   3.523   7.216 -0.1247  1.4742  0.1800
  133OSM    H7T14377   0.006   3.455   7.187 -1.4530  1.0743 -1.8259
  133OSM    C8S14378   0.008   3.627   7.306  0.2627  0.4768 -0.7544
  133OSM    H8S14379  -0.083   3.681   7.271  0.8614 -0.0922 -3.3800
  133OSM    H8T14380   0.082   3.706   7.329  0.6650  0.1528 -0.9311
  133OSM    C9S14381  -0.036   3.545   7.435 -0.3760 -0.2385 -0.0157
  133OSM    H9S14382   0.045   3.475   7.466  0.7657  0.1407 -1.9923
  133OSM    H9T14383  -0.127   3.487   7.407 -0.9299 -0.8460  2.7101
  133OSM   C10S14384  -0.056   3.627   7.561 -0.2373 -0.4202 -0.4733
  133OSM   H10S14385  -0.083   3.729   7.528 -1.0591  0.6802  3.0953
  133OSM   H10T14386   0.038   3.634   7.620 -0.9261  0.4127  0.5683
  133OSM   C11S14387  -0.165   3.569   7.655 -0.1234  0.4394  0.7714
  133OSM   H11S14388  -0.149   3.462   7.680  1.6223  0.3859 -0.3788
  133OSM   H11T14389  -0.265   3.567   7.605  0.6786 -1.2153 -0.9152
  133OSM   C12S14390  -0.175   3.653   7.782  0.2120  0.2072  0.1031
  133OSM   H12S14391  -0.274   3.624   7.822  0.9874  0.0352  1.9945
  133OSM   H12T14392  -0.181   3.761   7.758 -0.0874 -0.3095 -2.4789
  133OSM   C13S14393  -0.073   3.612   7.884  0.0726 -0.4421  0.3601
  133OSM   H13S14394   0.029   3.643   7.855  0.3733 -0.5037  1.3071
  133OSM   H13T14395  -0.075   3.501   7.896  2.6560 -0.5439  0.2702
  133OSM   C14S14396  -0.098   3.678   8.023 -0.3772 -0.2718  0.1816
  133OSM   H14S14397  -0.189   3.645   8.078  0.5003 -0.8961  1.2971
  133OSM   H14T14398  -0.107   3.786   7.997  0.7521  0.5471  2.9055
  133OSM   C15S14399   0.023   3.669   8.119  0.7593  0.1546 -0.4961
  133OSM   H15S14400   0.107   3.722   8.070  0.4486  0.4145 -0.7542
  133OSM   H15T14401   0.051   3.564   8.144 -0.6725 -0.1001  0.1580
  133OSM   C16S14402  -0.003   3.752   8.252  0.0182  0.0624  0.1198
  133OSM   H16S14403  -0.051   3.851   8.236 -0.1083  0.0989  0.6893
  133OSM   H16T14404   0.095   3.774   8.299 -0.5003  0.5297  1.0113
  133OSM   C17S14405  -0.090   3.678   8.361  0.0368  0.2458  0.3175
  133OSM   H17S14406  -0.047   3.581   8.392  1.3690  0.8137  0.3513
  133OSM   H17T14407  -0.192   3.666   8.319  0.3422 -0.4859 -0.2343
  133OSM   C18S14408  -0.105   3.775   8.480 -0.5513 -0.5458 -0.9094
  133OSM   H18S14409  -0.160   3.867   8.449  0.7163  1.1030  1.4136
  133OSM   H18T14410  -0.001   3.803   8.508 -0.4292 -0.9799 -0.9234
  133OSM   H18U14411  -0.166   3.731   8.561 -0.1501  0.4644 -0.0306
  133OSM    C1F14412   0.478   3.265   7.061  0.4870  0.6529  0.4716
  133OSM     OF14413   0.599   3.262   7.047  0.5102  0.2865  0.4316
  133OSM    C2F14414   0.412   3.198   7.185 -0.0152  0.7619 -0.5155
  133OSM    H2F14415   0.326   3.131   7.167 -0.2659  0.1400  2.4451
  133OSM    H2G14416   0.353   3.273   7.242  0.0986  0.5630 -0.1323
  133OSM    C3F14417   0.516   3.113   7.261 -0.2600 -0.2860  0.2688
  133OSM    H3F14418   0.606   3.171   7.291  1.9724 -3.2722 -0.1330
  133OSM    H3G14419   0.554   3.029   7.198  1.6299  1.1372 -0.6056
  133OSM    C4F14420   0.466   3.045   7.382  0.2236 -0.4269 -0.7735
  133OSM    H4F14421   0.365   2.999   7.381  0.3925 -0.8812  0.6956
  133OSM    H4G14422   0.471   3.130   7.454  2.8146 -0.3251 -0.9969
  133OSM    C5F14423   0.556   2.932   7.436  0.1788 -0.3734 -0.9580
  133OSM    H5F14424   0.664   2.954   7.424  0.0307  1.5284  0.6217
  133OSM    H5G14425   0.527   2.841   7.380 -1.2603  0.2531 -1.2808
  133OSM    C6F14426   0.539   2.917   7.590 -0.2241 -0.0244 -0.0641
  133OSM    H6F14427   0.431   2.912   7.617 -0.3932  1.2064 -0.4510
  133OSM    H6G14428   0.585   3.007   7.635  2.0606 -0.8373 -0.6455
  133OSM    C7F14429   0.620   2.797   7.629 -0.2406  0.1023  0.5353
  133OSM    H7F14430   0.724   2.797   7.589 -0.1993  1.1906  0.6128
  133OSM    H7G14431   0.573   2.710   7.577 -3.5356  1.1947  1.4986
  133OSM    C8F14432   0.632   2.768   7.784 -0.6015 -0.1850  0.3699
  133OSM    H8F14433   0.677   2.667   7.786  0.1333  0.0126 -2.3586
  133OSM    H8G14434   0.530   2.773   7.827 -0.5696 -1.5308  0.6554
  133OSM    C9F14435   0.721   2.866   7.857 -0.2305  0.3230  0.5622
  133OSM    H9F14436   0.803   2.893   7.789  0.1411 -3.5490 -0.7969
  133OSM   C10F14437   0.687   2.933   7.969  0.0829  0.6312  0.2882
  133OSM   H10F14438   0.770   2.990   8.014  0.9795 -0.9613  0.7478
  133OSM   C11F14439   0.577   2.910   8.062  0.2610 -0.2234 -0.3518
  133OSM   H11F14440   0.522   2.816   8.039 -0.3096 -0.2713  1.1073
  133OSM   H11G14441   0.505   2.995   8.059  0.5746  0.2809  2.9625
  133OSM   C12F14442   0.620   2.899   8.200  0.1382  0.3369 -0.3572
  133OSM   H12F14443   0.678   2.988   8.231  2.9816 -1.1534 -1.0984
  133OSM   H12G14444   0.678   2.807   8.219 -0.2296  0.4913  1.7883
  133OSM   C13F14445   0.501   2.890   8.307  0.2389 -0.0938 -0.1063
  133OSM   H13F14446   0.445   2.795   8.297 -2.5710  1.2940  1.0750
  133OSM   H13G14447   0.429   2.974   8.296  0.7917  0.4821  0.5594
  133OSM   C14F14448   0.564   2.888   8.449 -0.6406  1.0246 -0.3157
  133OSM   H14F14449   0.660   2.944   8.443  1.3868 -2.2372 -0.3514
  133OSM   H14G14450   0.598   2.786   8.474 -2.1716  0.0163 -2.0554
  133OSM   C15F14451   0.468   2.935   8.555 -0.4172  0.4496  0.5060
  133OSM   H15F14452   0.381   2.869   8.533 -0.1825  0.2190  0.2688
  133OSM   H15G14453   0.442   3.042   8.537  1.1758  0.6794 -0.6259
  133OSM   C16F14454   0.502   2.898   8.695  0.2690  0.4859 -0.0700
  133OSM   H16F14455   0.600   2.938   8.730  0.2779 -1.4036  2.4186
  133OSM   H16G14456   0.506   2.790   8.720 -1.0834  0.1075 -1.3909
  133OSM   C17F14457   0.390   2.944   8.791 -0.0099  0.5262 -0.3833
  133OSM   H17F14458   0.383   3.054   8.771 -0.9543  0.3914 -0.8599
  133OSM   H17G14459   0.426   2.919   8.893 -0.8698 -0.4057 -0.2909
  133OSM   C18F14460   0.254   2.878   8.771 -0.0751  0.6080 -0.6018
  133OSM   H18F14461   0.192   2.913   8.856 -1.2590 -0.1331 -1.1360
  133OSM   H18G14462   0.248   2.770   8.793  1.9634  0.7846  1.2136
  133OSM   H18H14463   0.197   2.903   8.679 -1.4517  1.1534  0.3775
  134OSM      N14464   0.467   0.569   6.070  0.0328  0.2442  0.1101
  134OSM    C1514465   0.391   0.491   5.969 -0.9742 -0.0071 -0.0574
  134OSM   H15A14466   0.409   0.536   5.873  0.2736 -1.3722 -0.4998
  134OSM   H15B14467   0.286   0.507   5.991 -0.8067  0.6422  0.2944
  134OSM   H15C14468   0.423   0.388   5.965 -1.0000 -0.0368  0.4719
  134OSM    C1414469   0.615   0.545   6.062  0.1313  0.0747 -1.2847
  134OSM   H14A14470   0.670   0.621   6.116 -0.8877  1.0085 -1.5270
  134OSM   H14B14471   0.647   0.556   5.959 -2.1710  0.3859 -2.0304
  134OSM   H14C14472   0.634   0.451   6.111 -0.7900 -0.4151 -1.8215
  134OSM    C1314473   0.452   0.711   6.032 -0.2698  0.4849 -0.8616
  134OSM   H13A14474   0.351   0.749   6.032 -0.1557  0.7951 -0.6047
  134OSM   H13B14475   0.487   0.722   5.931  0.5853 -0.2846 -0.6634
  134OSM   H13C14476   0.521   0.776   6.085  1.5247 -1.1601 -1.0651
  134OSM    C1214477   0.419   0.548   6.213 -0.2820 -0.2167  0.0664
  134OSM   H12A14478   0.453   0.453   6.250 -0.2921 -0.9944 -1.8264
  134OSM   H12B14479   0.311   0.545   6.204 -0.1914  0.2258 -1.3443
  134OSM    C1114480   0.457   0.654   6.326  0.3815 -0.8330 -0.6438
  134OSM   H11A14481   0.412   0.621   6.422  0.4203  2.2065  0.5520
  134OSM   H11B14482   0.409   0.749   6.294 -0.1661 -0.1021  2.0469
  134OSM      P14483   0.656   0.770   6.447  0.3155  0.1197  0.0597
  134OSM    O1314484   0.798   0.752   6.445 -0.4291 -0.4758 -0.5517
  134OSM    O1414485   0.603   0.905   6.407 -0.1631  0.0855 -0.0091
  134OSM    O1114486   0.596   0.730   6.586  0.0942  0.2047 -0.5556
  134OSM    O1214487   0.596   0.668   6.339  0.3794 -0.5910 -0.0545
  134OSM    C1S14488   0.604   0.820   6.694  0.1292  0.3452  0.2942
  134OSM    H1S14489   0.526   0.898   6.682  1.0965  1.1251 -1.4248
  134OSM    H1T14490   0.704   0.870   6.694 -0.1779  0.9928  1.3625
  134OSM     NF14491   0.584   0.838   6.931  0.2960 -0.1924  0.3450
  134OSM    HNF14492   0.676   0.865   6.960  1.0984 -1.0363 -1.2631
  134OSM    C2S14493   0.584   0.743   6.825 -0.4748 -0.3635 -0.0822
  134OSM    H2S14494   0.487   0.689   6.819 -0.8594  0.4268 -3.6292
  134OSM    C3S14495   0.689   0.633   6.843 -0.8384  0.3723 -0.0777
  134OSM    H3S14496   0.788   0.683   6.853 -1.5964  1.3682  4.6160
  134OSM     O314497   0.697   0.535   6.737  0.5225 -0.0317 -0.4011
  134OSM    HO314498   0.626   0.563   6.679 -0.1506  0.0444  0.4349
  134OSM    C4S14499   0.672   0.561   6.978  0.0328  0.2199  0.0679
  134OSM    H4S14500   0.576   0.510   6.995  1.5702 -2.8047  0.2964
  134OSM    C5S14501   0.766   0.553   7.075  0.1391  0.1492 -0.2992
  134OSM    H5S14502   0.864   0.591   7.043  0.7326 -0.3048  0.9509
  134OSM    C6S14503   0.754   0.485   7.206  0.0935  0.0842 -0.7192
  134OSM    H6S14504   0.776   0.565   7.280 -1.1623 -0.9109  0.7878
  134OSM    H6T14505   0.822   0.397   7.217 -1.0299 -1.0565 -2.5238
  134OSM    C7S14506   0.612   0.432   7.237 -0.1309 -0.2661  0.2290
  134OSM    H7S14507   0.596   0.353   7.161 -0.7115 -0.2360  0.3157
  134OSM    H7T14508   0.533   0.510   7.238  0.3526  0.2887 -1.7242
  134OSM    C8S14509   0.614   0.352   7.370 -0.0903 -0.2411 -0.0144
  134OSM    H8S14510   0.694   0.276   7.365  1.4428  1.3443 -0.7462
  134OSM    H8T14511   0.523   0.290   7.383 -0.6471  0.7577  1.0676
  134OSM    C9S14512   0.628   0.449   7.494  0.7687  0.0430  0.1818
  134OSM    H9S14513   0.539   0.515   7.495 -0.0589 -1.0193 -0.6458
  134OSM    H9T14514   0.727   0.498   7.483 -0.0136  1.3370 -1.6151
  134OSM   C10S14515   0.650   0.380   7.630  0.1918  0.1739 -0.2753
  134OSM   H10S14516   0.724   0.297   7.629  1.1950  0.9981  1.6674
  134OSM   H10T14517   0.561   0.324   7.667  0.6213  0.7258  1.6751
  134OSM   C11S14518   0.672   0.482   7.743  0.5013 -0.4694  0.0053
  134OSM   H11S14519   0.672   0.417   7.833  2.2352  0.9036  1.0620
  134OSM   H11T14520   0.591   0.557   7.750  1.1325  0.0496  2.8091
  134OSM   C12S14521   0.809   0.552   7.737 -0.1490 -0.1707  0.4424
  134OSM   H12S14522   0.797   0.632   7.661 -0.1406  0.4431  1.0810
  134OSM   H12T14523   0.892   0.488   7.701 -0.5802 -0.1474 -0.6430
  134OSM   C13S14524   0.843   0.631   7.872  0.2561 -0.0849  0.2561
  134OSM   H13S14525   0.750   0.691   7.888 -1.6135 -2.8016  0.3283
  134OSM   H13T14526   0.928   0.698   7.852  1.4449 -1.3439  0.9113
  134OSM   C14S14527   0.880   0.534   7.982 -0.5644 -0.0040  0.2851
  134OSM   H14S14528   0.959   0.461   7.955  0.0781  0.5476  0.6271
  134OSM   H14T14529   0.790   0.483   8.023  0.2734 -3.0299 -1.3150
  134OSM   C15S14530   0.962   0.597   8.100 -0.1268 -0.2440  0.0985
  134OSM   H15S14531   0.891   0.664   8.151 -2.2222 -1.4566 -1.0908
  134OSM   H15T14532   1.040   0.651   8.043  0.9715 -2.9788 -1.1978
  134OSM   C16S14533   1.002   0.503   8.214  0.0639 -0.1386 -0.0043
  134OSM   H16S14534   1.067   0.432   8.159  0.9821  0.9246 -0.3258
  134OSM   H16T14535   0.915   0.438   8.239 -1.6129  1.8520 -0.4515
  134OSM   C17S14536   1.080   0.559   8.331 -0.3141  0.1989  0.3375
  134OSM   H17S14537   1.176   0.594   8.288  0.3462 -0.6868  1.0592
  134OSM   H17T14538   1.101   0.481   8.407  1.7129  0.6233  0.2801
  134OSM   C18S14539   1.017   0.686   8.394  0.2597  0.4345 -0.2847
  134OSM   H18S14540   1.025   0.772   8.324 -2.5356  1.0640  0.0605
  134OSM   H18T14541   1.073   0.708   8.487  1.2846 -2.4801 -0.1114
  134OSM   H18U14542   0.909   0.671   8.414  0.0202  1.7698 -0.4979
  134OSM    C1F14543   0.477   0.907   6.975 -0.1982 -0.2784  0.2377
  134OSM     OF14544   0.367   0.900   6.924 -0.5775 -0.3368  0.3626
  134OSM    C2F14545   0.512   1.007   7.083 -0.0473 -0.0964 -1.0019
  134OSM    H2F14546   0.489   1.108   7.044  1.8755  0.4533 -0.8036
  134OSM    H2G14547   0.617   0.998   7.117 -0.1079  2.0531 -0.0582
  134OSM    C3F14548   0.425   0.974   7.212 -0.4866  0.0147  0.1775
  134OSM    H3F14549   0.322   0.999   7.182  0.0610  0.9726 -0.9491
  134OSM    H3G14550   0.452   1.041   7.297  0.1703 -0.3688  0.2796
  134OSM    C4F14551   0.431   0.831   7.265  0.1733  0.1627  0.7297
  134OSM    H4F14552   0.409   0.752   7.190  4.8599  0.0811 -0.8874
  134OSM    H4G14553   0.363   0.810   7.350  2.0173 -0.1870  2.1994
  134OSM    C5F14554   0.571   0.792   7.319  0.2671 -0.2925 -0.4732
  134OSM    H5F14555   0.643   0.787   7.235  1.1055  0.6159  0.1672
  134OSM    H5G14556   0.571   0.697   7.376  3.0868  2.1214  4.1339
  134OSM    C6F14557   0.632   0.889   7.419  0.0144  0.7617 -0.5170
  134OSM    H6F14558   0.625   0.993   7.380  1.5135  0.2889 -2.2305
  134OSM    H6G14559   0.739   0.862   7.401  0.3994  1.9963 -0.2193
  134OSM    C7F14560   0.588   0.869   7.564 -0.3348 -0.4456 -0.1237
  134OSM    H7F14561   0.617   0.769   7.602 -1.6351  0.6304  4.2819
  134OSM    H7G14562   0.478   0.886   7.568 -0.4393 -0.5477 -1.7598
  134OSM    C8F14563   0.654   0.976   7.663 -0.1657  0.4363 -0.2090
  134OSM    H8F14564   0.620   0.957   7.767  0.9748 -1.7001 -0.1695
  134OSM    H8G14565   0.617   1.078   7.639 -2.4524 -0.4611 -0.7875
  134OSM    C9F14566   0.801   0.955   7.675 -0.0950 -0.1472  0.4256
  134OSM    H9F14567   0.842   0.880   7.605 -1.1352  0.8753 -1.3666
  134OSM   C10F14568   0.880   1.008   7.766  0.1840 -0.0747 -0.9108
  134OSM   H10F14569   0.987   0.984   7.762 -0.3033 -2.4973 -0.8273
  134OSM   C11F14570   0.849   1.101   7.878  0.4357  0.1956 -1.0118
  134OSM   H11F14571   0.740   1.114   7.892  0.1183 -1.8526 -1.2272
  134OSM   H11G14572   0.887   1.205   7.866  2.3970 -0.3498  0.0675
  134OSM   C12F14573   0.894   1.047   8.018 -0.2059  0.6013  0.7913
  134OSM   H12F14574   1.002   1.021   8.011 -0.8230 -1.9210 -0.8016
  134OSM   H12G14575   0.837   0.954   8.037 -1.6111  1.1627 -0.4479
  134OSM   C13F14576   0.842   1.130   8.138 -0.8218  0.6282 -0.0225
  134OSM   H13F14577   0.734   1.108   8.141 -0.6658 -0.1095  0.4780
  134OSM   H13G14578   0.873   1.233   8.109 -2.5645  1.2667  0.2746
  134OSM   C14F14579   0.908   1.102   8.273  0.1936 -0.7612  0.1304
  134OSM   H14F14580   0.862   1.008   8.312  2.5093 -1.5781  1.0418
  134OSM   H14G14581   0.881   1.183   8.344 -0.5100  1.2594 -2.2714
  134OSM   C15F14582   1.062   1.089   8.272 -0.0026 -0.3601 -0.0863
  134OSM   H15F14583   1.107   1.186   8.243  0.3090 -0.3212  0.5254
  134OSM   H15G14584   1.093   1.003   8.208 -0.5055 -0.5597 -0.0693
  134OSM   C16F14585   1.109   1.073   8.413  0.4695  0.7461  0.0102
  134OSM   H16F14586   1.212   1.030   8.413  0.1902 -0.0599  2.3704
  134OSM   H16G14587   1.043   0.998   8.462 -0.0809  1.0969 -0.1889
  134OSM   C17F14588   1.113   1.206   8.494  0.3696  0.3382  0.0452
  134OSM   H17F14589   1.017   1.263   8.485  1.3195  1.7789 -1.5970
  134OSM   H17G14590   1.195   1.269   8.453  3.4805 -1.8484  2.4626
  134OSM   C18F14591   1.150   1.186   8.640  0.0111  0.5830  0.1177
  134OSM   H18F14592   1.073   1.131   8.699 -0.5122  1.6335  0.4315
  134OSM   H18G14593   1.151   1.287   8.685  2.6840  1.7817 -2.3311
  134OSM   H18H14594   1.249   1.137   8.650 -0.4604 -0.1561  1.3936
  135OSM      N14595   6.535   0.954   5.978 -0.5004 -0.0494 -0.2113
  135OSM    C1514596   6.652   1.044   5.949  0.3431 -0.3181  0.3510
  135OSM   H15A14597   6.748   0.995   5.962 -1.4599 -3.3864  4.1273
  135OSM   H15B14598   6.653   1.136   6.006  0.0508 -0.0971 -0.0019
  135OSM   H15C14599   6.644   1.076   5.846  2.0614 -1.3610 -0.1528
  135OSM    C1414600   6.411   1.041   5.953  0.2768  0.0846 -0.3517
  135OSM   H14A14601   6.418   1.060   5.847  2.3899 -0.3816 -0.3452
  135OSM   H14B14602   6.420   1.128   6.016 -0.1439 -1.5457  2.0829
  135OSM   H14C14603   6.316   0.992   5.962 -1.1360  2.2090 -2.5625
  135OSM    C1314604   6.541   0.824   5.895  0.4128  0.6162 -0.4120
  135OSM   H13A14605   6.462   0.758   5.928  0.9627  0.8260  1.4552
  135OSM   H13B14606   6.630   0.774   5.930 -0.3757  0.9174  2.3044
  135OSM   H13C14607   6.550   0.846   5.790  0.0075  0.7643 -0.4192
  135OSM    C1214608   6.535   0.920   6.126  0.3294  0.0352 -0.0056
  135OSM   H12A14609   6.446   0.869   6.158  0.8263  0.4917  2.2802
  135OSM   H12B14610   6.548   1.016   6.175  1.2464 -0.2552  0.3359
  135OSM    C1114611   6.647   0.837   6.198  0.0386 -0.3250 -0.3336
  135OSM   H11A14612   6.630   0.733   6.164 -3.1982  0.2482 -0.8205
  135OSM   H11B14613   6.634   0.845   6.308  1.8740  0.5111 -0.1411
  135OSM      P14614   6.903   0.856   6.228 -0.5935 -0.1168 -0.2250
  135OSM    O1314615   6.933   0.712   6.212 -0.3160 -0.0883  0.5601
  135OSM    O1414616   7.009   0.939   6.172  0.1666  0.3518 -0.2730
  135OSM    O1114617   6.878   0.887   6.376  0.3606 -0.7372 -0.1400
  135OSM    O1214618   6.775   0.886   6.147  0.4335  0.2941  0.3968
  135OSM    C1S14619   6.981   0.936   6.460  0.8942 -0.3542  0.3323
  135OSM    H1S14620   7.027   1.018   6.400 -0.3034  1.3415  1.6317
  135OSM    H1T14621   7.051   0.855   6.490 -1.4696 -2.1556  1.2679
  135OSM     NF14622   7.028   1.055   6.681  0.5285 -0.3906 -0.0512
  135OSM    HNF14623   7.062   1.013   6.765  4.5511  1.4068 -0.5455
  135OSM    C2S14624   6.933   0.978   6.597  0.1409 -0.0164 -0.6153
  135OSM    H2S14625   6.846   1.046   6.584 -0.3365 -0.3392  0.6901
  135OSM    C3S14626   6.876   0.855   6.678  0.7281  0.3407  0.9001
  135OSM    H3S14627   6.961   0.784   6.688 -0.3619 -1.1735 -0.0580
  135OSM     O314628   6.770   0.783   6.609 -0.1082 -0.2372  0.2380
  135OSM    HO314629   6.778   0.836   6.529  0.6962 -0.7675 -0.0459
  135OSM    C4S14630   6.828   0.887   6.819  0.3417  0.4078 -0.5690
  135OSM    H4S14631   6.913   0.876   6.888 -0.0258  2.2736  0.2269
  135OSM    C5S14632   6.705   0.919   6.861  0.4244 -0.1559 -0.2230
  135OSM    H5S14633   6.618   0.916   6.794 -1.0607 -2.5068  1.6690
  135OSM    C6S14634   6.663   0.967   7.001 -0.0977 -0.1808 -0.6806
  135OSM    H6S14635   6.569   0.915   7.031  1.4526 -2.1567  1.0882
  135OSM    H6T14636   6.642   1.075   6.996  2.5118  0.4057 -0.5457
  135OSM    C7S14637   6.768   0.929   7.109 -0.1623 -0.7589 -0.5882
  135OSM    H7S14638   6.867   0.976   7.088 -0.2748  0.7381  1.9025
  135OSM    H7T14639   6.779   0.819   7.117  1.8823 -0.5068  0.9370
  135OSM    C8S14640   6.735   0.987   7.251 -0.6652 -0.0704 -1.7081
  135OSM    H8S14641   6.659   0.923   7.301 -1.0967 -1.5729 -4.1292
  135OSM    H8T14642   6.720   1.097   7.255 -0.1862 -0.0273 -0.8680
  135OSM    C9S14643   6.856   0.959   7.339  0.4246 -0.0707 -0.2670
  135OSM    H9S14644   6.933   1.033   7.308  0.8902 -0.5163 -0.1738
  135OSM    H9T14645   6.912   0.864   7.325  2.0054  0.9396 -1.1366
  135OSM   C10S14646   6.830   0.979   7.489  0.6515  0.7386  0.2348
  135OSM   H10S14647   6.765   0.900   7.531  0.6759  1.2083  1.1989
  135OSM   H10T14648   6.784   1.079   7.507  0.1386  0.1840  2.3572
  135OSM   C11S14649   6.966   0.971   7.567  0.3092 -0.0691 -0.1071
  135OSM   H11S14650   7.037   1.042   7.519  1.1346 -0.0656  1.0605
  135OSM   H11T14651   7.005   0.867   7.558 -1.3478 -0.5925 -1.8537
  135OSM   C12S14652   6.933   1.020   7.711 -0.3746  0.4247  0.0238
  135OSM   H12S14653   6.848   0.962   7.751 -1.1541  2.4289  1.3992
  135OSM   H12T14654   6.912   1.127   7.694  0.1693  0.1671 -2.9750
  135OSM   C13S14655   7.041   1.006   7.819  0.0544  0.3623  0.2139
  135OSM   H13S14656   7.137   1.038   7.774 -0.5600 -0.1800 -1.5757
  135OSM   H13T14657   7.055   0.897   7.836  0.5037  0.3563 -0.1796
  135OSM   C14S14658   7.022   1.082   7.948  0.0209  0.5479  0.0979
  135OSM   H14S14659   6.925   1.048   7.991  1.5672 -3.4244  0.8058
  135OSM   H14T14660   7.006   1.192   7.938 -0.8244  0.5589  1.2756
  135OSM   C15S14661   7.143   1.085   8.044  0.1369 -0.6636  0.8508
  135OSM   H15S14662   7.127   1.168   8.117  3.6117  0.2420  0.7233
  135OSM   H15T14663   7.236   1.108   7.989  0.8937 -0.8487  2.0114
  135OSM   C16S14664   7.168   0.949   8.110  0.3895 -0.6761 -0.4492
  135OSM   H16S14665   7.275   0.948   8.141  0.3337 -0.1602 -0.2361
  135OSM   H16T14666   7.134   0.869   8.041  0.5774 -2.8431  1.8043
  135OSM   C17S14667   7.095   0.920   8.243  0.3862 -0.8387 -0.0605
  135OSM   H17S14668   7.147   0.837   8.296  1.4090  0.1836  0.5599
  135OSM   H17T14669   6.993   0.886   8.215 -0.8531  2.9835 -0.8085
  135OSM   C18S14670   7.087   1.032   8.342 -0.3768  0.1884  0.1707
  135OSM   H18S14671   7.049   0.999   8.440 -2.4751 -1.5231 -1.1289
  135OSM   H18T14672   7.020   1.111   8.304 -2.4769 -1.0331  1.1824
  135OSM   H18U14673   7.187   1.077   8.360 -0.3993  1.0565 -1.6130
  135OSM    C1F14674   7.087   1.159   6.634 -0.8307 -0.6144 -0.8427
  135OSM     OF14675   7.037   1.221   6.542  0.2310  0.0669 -0.5847
  135OSM    C2F14676   7.215   1.204   6.706 -0.1998 -0.4989 -0.2429
  135OSM    H2F14677   7.302   1.183   6.639  0.3223  1.1322 -0.1313
  135OSM    H2G14678   7.226   1.141   6.796 -0.4738  1.9662  1.6173
  135OSM    C3F14679   7.214   1.351   6.747 -0.2160 -0.3322  0.2233
  135OSM    H3F14680   7.157   1.354   6.842  1.9961  1.2573  1.5902
  135OSM    H3G14681   7.161   1.409   6.667 -1.1444 -5.0746 -3.0345
  135OSM    C4F14682   7.363   1.402   6.770  0.0505 -0.5861  0.5285
  135OSM    H4F14683   7.356   1.513   6.773  1.8242 -0.4399  0.2358
  135OSM    H4G14684   7.417   1.367   6.680 -2.2063  1.2689 -1.7102
  135OSM    C5F14685   7.430   1.341   6.895 -0.1469  0.6234 -0.4258
  135OSM    H5F14686   7.541   1.334   6.898 -0.2417 -1.6993  0.2167
  135OSM    H5G14687   7.402   1.233   6.895  1.4801  0.1597  0.0582
  135OSM    C6F14688   7.378   1.399   7.026  0.6963 -0.4713  0.1597
  135OSM    H6F14689   7.268   1.418   7.026  0.8901  0.7822 -0.7890
  135OSM    H6G14690   7.411   1.504   7.043  1.1669 -0.8387  1.7054
  135OSM    C7F14691   7.410   1.315   7.150  0.0034  0.9768 -0.0099
  135OSM    H7F14692   7.395   1.205   7.141 -1.5074  1.2114 -0.7604
  135OSM    H7G14693   7.340   1.339   7.234  0.6313  0.5098  0.6579
  135OSM    C8F14694   7.559   1.327   7.191 -0.2411  0.8977  0.0337
  135OSM    H8F14695   7.569   1.431   7.229  0.0322  0.5630  0.8989
  135OSM    H8G14696   7.624   1.318   7.102  0.0418  0.1089  0.3172
  135OSM    C9F14697   7.599   1.235   7.305  0.1156  0.6542  0.3827
  135OSM    H9F14698   7.567   1.132   7.288 -1.1209  0.7413  1.9841
  135OSM   C10F14699   7.668   1.256   7.418 -0.1194 -0.1957 -0.3337
  135OSM   H10F14700   7.681   1.173   7.490  1.9805  1.0797  0.8643
  135OSM   C11F14701   7.729   1.396   7.453 -0.0552 -0.5675  0.4915
  135OSM   H11F14702   7.733   1.459   7.362 -1.2626 -1.7704 -0.4256
  135OSM   H11G14703   7.836   1.392   7.482  0.0601  1.5077  0.4954
  135OSM   C12F14704   7.657   1.475   7.569 -0.3022 -0.0045  0.0882
  135OSM   H12F14705   7.658   1.399   7.650  2.2873  0.3716  0.4973
  135OSM   H12G14706   7.551   1.487   7.537 -0.9098  0.0786  2.0020
  135OSM   C13F14707   7.715   1.615   7.613 -0.4240  0.7537 -0.2512
  135OSM   H13F14708   7.658   1.656   7.700  1.5556 -1.8300  2.4697
  135OSM   H13G14709   7.717   1.674   7.519 -2.5907  0.3276 -0.6312
  135OSM   C14F14710   7.857   1.610   7.661  0.5188  0.0994  0.0799
  135OSM   H14F14711   7.874   1.714   7.695  0.0846  0.4999 -0.9007
  135OSM   H14G14712   7.936   1.575   7.592  1.8253  0.1960  1.4869
  135OSM   C15F14713   7.867   1.515   7.781 -0.3939  0.3889 -0.5000
  135OSM   H15F14714   7.964   1.533   7.831  0.4751 -1.1145 -1.5709
  135OSM   H15G14715   7.875   1.408   7.751  0.6727 -0.0837  1.3490
  135OSM   C16F14716   7.763   1.513   7.898 -0.5236  0.5064 -0.0621
  135OSM   H16F14717   7.671   1.461   7.863  0.8676 -1.3650 -1.1932
  135OSM   H16G14718   7.735   1.618   7.919 -0.7288  0.8655 -1.9997
  135OSM   C17F14719   7.800   1.432   8.024 -0.0745 -0.1498 -0.1724
  135OSM   H17F14720   7.776   1.326   8.005 -0.7792  0.4354 -2.9430
  135OSM   H17G14721   7.734   1.470   8.105 -1.2525  0.0481 -1.1884
  135OSM   C18F14722   7.940   1.457   8.081  0.3736 -0.7957  0.3703
  135OSM   H18F14723   7.958   1.566   8.082  0.9624 -0.8661 -0.8236
  135OSM   H18G14724   8.014   1.421   8.006 -1.1743  0.1714 -1.7371
  135OSM   H18H14725   7.955   1.409   8.180  1.2915  0.8069  1.0458
  136OSM      N14726   5.273   1.774   5.860 -0.4382  0.1395 -0.0234
  136OSM    C1514727   5.398   1.750   5.773  0.5334 -0.2854  0.0087
  136OSM   H15A14728   5.487   1.718   5.825  1.1357  0.1283 -0.7298
  136OSM   H15B14729   5.420   1.845   5.726  0.4310  0.4281  1.3817
  136OSM   H15C14730   5.387   1.675   5.695 -3.2172  1.7212 -1.6466
  136OSM    C1414731   5.168   1.829   5.773 -0.0001 -0.7135 -0.4929
  136OSM   H14A14732   5.139   1.756   5.699  2.4200 -1.1294 -1.0935
  136OSM   H14B14733   5.199   1.921   5.726  0.7563 -0.7508 -0.0661
  136OSM   H14C14734   5.090   1.868   5.837 -0.1219 -1.6210 -0.0751
  136OSM    C1314735   5.224   1.634   5.879 -0.0723  0.8179 -0.2176
  136OSM   H13A14736   5.155   1.638   5.962  1.7608  3.7551  1.3450
  136OSM   H13B14737   5.298   1.560   5.903 -0.5599  0.2718 -0.3752
  136OSM   H13C14738   5.173   1.592   5.794  1.5956  1.0000 -1.3573
  136OSM    C1214739   5.300   1.843   5.987  1.1526 -0.0335 -0.4428
  136OSM   H12A14740   5.372   1.924   5.982 -0.3065  1.3998  0.7149
  136OSM   H12B14741   5.366   1.771   6.034 -0.0502 -1.3119 -0.6500
  136OSM    C1114742   5.189   1.888   6.084 -0.4709 -0.1016 -0.4010
  136OSM   H11A14743   5.158   1.987   6.044  1.2076  0.1006 -1.2516
  136OSM   H11B14744   5.234   1.910   6.183  1.1931 -1.4438 -0.8192
  136OSM      P14745   5.073   1.682   6.205 -0.6175 -0.1980  0.4335
  136OSM    O1314746   4.942   1.622   6.202  0.1135  0.6601 -0.0666
  136OSM    O1414747   5.196   1.598   6.191  0.5583  0.3497 -0.3885
  136OSM    O1114748   5.096   1.772   6.338 -0.2348 -0.3023 -0.5072
  136OSM    O1214749   5.076   1.803   6.094 -0.2445 -0.3023  0.1303
  136OSM    C1S14750   5.009   1.870   6.379  0.0788 -0.1874  0.7922
  136OSM    H1S14751   4.906   1.841   6.347  0.4322  0.6663 -1.2181
  136OSM    H1T14752   5.035   1.967   6.332  2.4994 -0.1133  2.1248
  136OSM     NF14753   4.882   1.975   6.563 -0.1057  0.1872  0.7393
  136OSM    HNF14754   4.894   2.071   6.588 -0.2292  0.8546 -1.5269
  136OSM    C2S14755   5.001   1.898   6.534  0.9119 -0.2077 -0.3063
  136OSM    H2S14756   4.979   1.802   6.584 -0.1770  0.8294  1.3107
  136OSM    C3S14757   5.146   1.949   6.575  0.1240 -0.0084  0.0464
  136OSM    H3S14758   5.168   2.045   6.524  2.5866 -0.0384  0.9431
  136OSM     O314759   5.248   1.862   6.544  0.1901  0.0799  0.3967
  136OSM    HO314760   5.220   1.822   6.462 -2.6303  2.9042 -0.2063
  136OSM    C4S14761   5.134   1.978   6.723 -0.0813  0.1013 -0.2023
  136OSM    H4S14762   5.044   2.035   6.752 -2.2122 -2.6699 -1.0029
  136OSM    C5S14763   5.216   1.932   6.826 -0.1252 -0.3189  0.2891
  136OSM    H5S14764   5.294   1.858   6.801  0.2284  0.1854 -0.1088
  136OSM    C6S14765   5.198   1.951   6.975 -0.4130 -0.7081 -0.2010
  136OSM    H6S14766   5.293   1.969   7.029 -0.4994 -1.1845  0.1152
  136OSM    H6T14767   5.151   1.860   7.019 -1.0004  0.1085  0.9081
  136OSM    C7S14768   5.121   2.072   7.032  0.7078 -0.0816 -0.1734
  136OSM    H7S14769   5.023   2.057   6.981  1.6222 -0.8094 -1.7803
  136OSM    H7T14770   5.157   2.173   7.002  0.6203 -0.7993 -2.8906
  136OSM    C8S14771   5.083   2.059   7.179  0.2177 -0.4332 -0.1755
  136OSM    H8S14772   5.055   1.952   7.187 -0.3009 -0.3390 -0.7430
  136OSM    H8T14773   4.997   2.126   7.202  0.6274  0.3961 -0.9949
  136OSM    C9S14774   5.206   2.085   7.263  0.4930 -0.7832  0.3703
  136OSM    H9S14775   5.231   2.192   7.248 -0.5814 -0.3851  1.3215
  136OSM    H9T14776   5.297   2.031   7.228 -0.7499 -1.7378 -1.5821
  136OSM   C10S14777   5.188   2.053   7.412  0.4679 -0.5925  0.2938
  136OSM   H10S14778   5.151   1.950   7.426 -1.7818  0.0914 -0.2496
  136OSM   H10T14779   5.106   2.109   7.462 -0.9643 -2.2499 -0.1154
  136OSM   C11S14780   5.307   2.089   7.494  0.1884  0.3678  0.4073
  136OSM   H11S14781   5.320   2.199   7.486  0.7178  0.4627  2.2080
  136OSM   H11T14782   5.404   2.047   7.460 -0.1812 -1.4075  1.4487
  136OSM   C12S14783   5.292   2.041   7.640 -0.0264 -0.0137  0.1354
  136OSM   H12S14784   5.311   1.932   7.642  2.9388  0.4340  1.6121
  136OSM   H12T14785   5.182   2.053   7.654 -0.1908 -0.7165 -0.4803
  136OSM   C13S14786   5.382   2.115   7.741  0.3775  0.0803  0.0882
  136OSM   H13S14787   5.391   2.216   7.697  2.2758  0.1298  0.4707
  136OSM   H13T14788   5.485   2.073   7.730  1.6637  2.7632  1.0174
  136OSM   C14S14789   5.335   2.102   7.886 -0.1384 -0.4672  0.0167
  136OSM   H14S14790   5.226   2.124   7.882 -0.0091  0.1115 -0.3786
  136OSM   H14T14791   5.381   2.193   7.928 -1.0803  0.5412 -1.0683
  136OSM   C15S14792   5.375   1.964   7.940 -0.4552  0.1243  0.1429
  136OSM   H15S14793   5.478   1.957   7.981 -0.3942  1.7665  0.3300
  136OSM   H15T14794   5.347   1.888   7.864 -1.9888 -1.3793  2.1166
  136OSM   C16S14795   5.290   1.925   8.070 -0.1145 -0.2076 -0.7788
  136OSM   H16S14796   5.184   1.930   8.039 -0.5168 -0.3084  0.5106
  136OSM   H16T14797   5.310   2.014   8.135 -1.0385 -0.1010 -0.6227
  136OSM   C17S14798   5.342   1.803   8.145 -0.4402  0.2870  0.4145
  136OSM   H17S14799   5.449   1.820   8.167 -0.3334  2.7547 -1.5432
  136OSM   H17T14800   5.332   1.712   8.082 -0.2977 -0.0275  0.8377
  136OSM   C18S14801   5.267   1.770   8.271  0.5430  0.3835  0.0499
  136OSM   H18S14802   5.158   1.765   8.248  0.0503  0.4410  2.2032
  136OSM   H18T14803   5.273   1.856   8.341  2.9531  0.4416 -0.1248
  136OSM   H18U14804   5.302   1.675   8.318 -0.3650 -0.6342 -1.2507
  136OSM    C1F14805   4.764   1.914   6.561  0.1110  0.3378  0.0329
  136OSM     OF14806   4.751   1.790   6.549 -0.0272 -0.7870 -0.2382
  136OSM    C2F14807   4.645   1.998   6.554  0.0624 -0.0474  0.3312
  136OSM    H2F14808   4.576   1.967   6.473 -1.3179  1.6334  0.7987
  136OSM    H2G14809   4.673   2.105   6.548 -0.0603  0.0381  1.1689
  136OSM    C3F14810   4.570   1.980   6.680 -0.2025  0.5592 -0.5108
  136OSM    H3F14811   4.534   1.876   6.690  0.2179  0.4287 -0.3607
  136OSM    H3G14812   4.474   2.036   6.676 -0.8955 -0.6078 -0.7804
  136OSM    C4F14813   4.654   2.013   6.809  0.3660  0.1251 -1.0170
  136OSM    H4F14814   4.701   2.112   6.792  1.9853 -0.4059  0.1343
  136OSM    H4G14815   4.736   1.941   6.827 -0.9070 -1.6864 -2.1519
  136OSM    C5F14816   4.556   2.008   6.934 -0.2937 -0.0244  0.4907
  136OSM    H5F14817   4.533   1.904   6.964 -1.6385  0.7962  2.5593
  136OSM    H5G14818   4.456   2.046   6.904  0.1644  0.4868 -0.4403
  136OSM    C6F14819   4.602   2.084   7.057  0.1637 -0.6046 -0.4398
  136OSM    H6F14820   4.510   2.122   7.105  1.4478  2.4390 -0.1784
  136OSM    H6G14821   4.667   2.165   7.018 -0.4847 -0.4411 -1.1940
  136OSM    C7F14822   4.675   2.003   7.163 -0.7398  0.2852 -0.3631
  136OSM    H7F14823   4.779   1.976   7.136 -0.8684 -0.4868 -0.1112
  136OSM    H7G14824   4.624   1.906   7.183  0.8995 -0.2278  1.6168
  136OSM    C8F14825   4.696   2.062   7.298 -0.3077 -0.0458 -0.5006
  136OSM    H8F14826   4.596   2.082   7.344  0.3473  0.8768  0.5694
  136OSM    H8G14827   4.749   2.157   7.273 -1.7886  0.7937 -0.6087
  136OSM    C9F14828   4.785   1.987   7.397  0.5582  1.1984  0.1792
  136OSM    H9F14829   4.826   1.896   7.352 -1.3987 -0.2813  1.2358
  136OSM   C10F14830   4.823   2.027   7.520 -0.1673  0.8186 -0.6025
  136OSM   H10F14831   4.885   1.955   7.575  1.3124  1.1314 -1.8051
  136OSM   C11F14832   4.797   2.164   7.588  0.9144 -0.2794  0.2918
  136OSM   H11F14833   4.755   2.238   7.516  0.8237 -0.5069  0.1096
  136OSM   H11G14834   4.892   2.207   7.626  1.6916 -0.1481 -1.6749
  136OSM   C12F14835   4.703   2.145   7.710 -0.0854 -0.0695 -0.1203
  136OSM   H12F14836   4.664   2.041   7.712  0.3252 -0.2529  2.6323
  136OSM   H12G14837   4.612   2.206   7.690 -0.6848  0.0875  2.6640
  136OSM   C13F14838   4.756   2.168   7.853 -0.1596 -0.1875  0.2813
  136OSM   H13F14839   4.678   2.140   7.927  0.1412 -1.1490  0.2590
  136OSM   H13G14840   4.766   2.278   7.864 -2.1195  0.0258  0.2812
  136OSM   C14F14841   4.889   2.107   7.895  0.1785 -0.0432 -0.9238
  136OSM   H14F14842   4.968   2.133   7.821  0.7467 -0.6490 -0.5445
  136OSM   H14G14843   4.899   1.996   7.898  1.1944  0.0610  0.5051
  136OSM   C15F14844   4.929   2.150   8.039 -0.6238  0.6086 -0.1040
  136OSM   H15F14845   4.894   2.254   8.054  0.2137  0.9158 -0.2090
  136OSM   H15G14846   5.039   2.163   8.053 -0.5004 -0.5177  0.1166
  136OSM   C16F14847   4.866   2.055   8.145  0.0596  0.2804 -0.3510
  136OSM   H16F14848   4.900   1.955   8.110 -1.1820  0.5056 -2.3992
  136OSM   H16G14849   4.757   2.075   8.133  0.4407  1.4537 -2.3307
  136OSM   C17F14850   4.917   2.067   8.290 -0.4483  0.0960 -1.1434
  136OSM   H17F14851   4.894   2.171   8.322  2.4305  1.2052 -2.3250
  136OSM   H17G14852   5.028   2.065   8.283 -0.3932 -0.0245 -0.4063
  136OSM   C18F14853   4.864   1.966   8.398 -0.5067 -0.8154  1.5146
  136OSM   H18F14854   4.868   2.017   8.496  2.7045 -0.4209  1.2927
  136OSM   H18G14855   4.917   1.868   8.386 -0.6133 -0.6826 -0.3459
  136OSM   H18H14856   4.756   1.946   8.388 -0.6850  0.6580  0.1237
  137OSM      N14857   1.995   6.162   6.604 -0.1716  0.5464 -0.1769
  137OSM    C1514858   1.878   6.057   6.607 -0.3572  0.5462 -0.4591
  137OSM   H15A14859   1.873   6.016   6.507 -1.0838  2.1278 -1.1134
  137OSM   H15B14860   1.780   6.092   6.637 -1.2024 -1.9367 -0.1548
  137OSM   H15C14861   1.894   5.967   6.664 -0.9024  0.2587 -0.7483
  137OSM    C1414862   2.012   6.229   6.743  0.1224 -0.7851 -0.5856
  137OSM   H14A14863   2.097   6.295   6.739  1.7884 -2.8938 -2.9725
  137OSM   H14B14864   2.034   6.155   6.819 -0.1105 -1.8054 -1.4898
  137OSM   H14C14865   1.921   6.282   6.765 -0.0985 -1.4099  0.0539
  137OSM    C1314866   2.133   6.094   6.590 -0.0185  0.3238 -0.7087
  137OSM   H13A14867   2.209   6.169   6.606  0.8143 -0.3988 -1.1934
  137OSM   H13B14868   2.137   6.050   6.492  1.1479  0.6847 -0.8348
  137OSM   H13C14869   2.147   6.020   6.667  0.7767 -1.1334 -2.1973
  137OSM    C1214870   1.971   6.280   6.512  0.5442  0.2572 -0.0957
  137OSM   H12A14871   1.968   6.245   6.410 -3.2673 -1.9521  0.5789
  137OSM   H12B14872   2.059   6.343   6.522  1.4582 -1.0136  0.0964
  137OSM    C1114873   1.855   6.382   6.541  0.3960 -0.2798  0.5697
  137OSM   H11A14874   1.858   6.468   6.470  0.3364  0.8761  1.9147
  137OSM   H11B14875   1.863   6.422   6.644 -0.3134 -0.4114  0.6830
  137OSM      P14876   1.599   6.393   6.581 -0.2577  0.0875 -0.0788
  137OSM    O1314877   1.634   6.535   6.613  0.5117  1.0834 -0.2259
  137OSM    O1414878   1.510   6.367   6.473  0.1418 -0.2024  0.0350
  137OSM    O1114879   1.534   6.315   6.706 -0.0376  0.4795  0.7395
  137OSM    O1214880   1.730   6.317   6.533  0.2532 -0.1710  0.2556
  137OSM    C1S14881   1.614   6.320   6.829  0.5115 -0.3927  0.4101
  137OSM    H1S14882   1.595   6.418   6.877 -2.6696 -0.6567 -0.1409
  137OSM    H1T14883   1.723   6.314   6.805  0.2131  2.2139 -2.2348
  137OSM     NF14884   1.662   6.245   7.058 -0.1507  0.1679 -0.3066
  137OSM    HNF14885   1.720   6.167   7.080  0.6723  1.3510  2.0228
  137OSM    C2S14886   1.573   6.225   6.938  0.2999  0.5034  0.1887
  137OSM    H2S14887   1.463   6.233   6.957 -0.7283 -0.4196 -4.2770
  137OSM    C3S14888   1.575   6.076   6.884  0.2428 -0.1739 -0.0841
  137OSM    H3S14889   1.684   6.055   6.873  0.4835 -0.4950  2.3337
  137OSM     O314890   1.504   6.064   6.753 -0.3592 -0.2937 -0.7029
  137OSM    HO314891   1.481   6.156   6.738 -3.5361 -0.8922 -0.2721
  137OSM    C4S14892   1.514   5.972   6.970  0.0384 -0.1833 -0.0548
  137OSM    H4S14893   1.416   6.001   7.012  0.0236 -1.1351  0.5813
  137OSM    C5S14894   1.574   5.861   7.011 -0.6814  0.5932 -0.5735
  137OSM    H5S14895   1.679   5.838   6.988 -0.5900 -1.1190  1.2832
  137OSM    C6S14896   1.510   5.763   7.108  0.2986  0.7236  0.7975
  137OSM    H6S14897   1.503   5.664   7.059 -0.5283  1.9464 -1.7009
  137OSM    H6T14898   1.407   5.797   7.133 -1.3652 -1.3785 -2.5032
  137OSM    C7S14899   1.591   5.752   7.237 -0.0721 -0.0578  0.7445
  137OSM    H7S14900   1.611   5.853   7.279  0.5056 -1.0146  2.9335
  137OSM    H7T14901   1.685   5.693   7.225  0.6805  1.2714 -0.1054
  137OSM    C8S14902   1.503   5.688   7.352  0.2498 -0.1156  0.0775
  137OSM    H8S14903   1.480   5.583   7.325 -2.4573 -0.4655  3.1525
  137OSM    H8T14904   1.410   5.745   7.371 -1.4411 -3.0114  1.0151
  137OSM    C9S14905   1.587   5.677   7.475 -1.3017 -0.5387 -0.0616
  137OSM    H9S14906   1.640   5.769   7.507  0.3022 -1.4592 -0.0022
  137OSM    H9T14907   1.666   5.603   7.450  0.6424  1.4350  0.0300
  137OSM   C10S14908   1.523   5.619   7.604  0.2409  0.3611 -0.5235
  137OSM   H10S14909   1.486   5.516   7.588  0.7183  0.1243 -0.1316
  137OSM   H10T14910   1.438   5.685   7.632  0.8983  1.5816 -1.3269
  137OSM   C11S14911   1.625   5.619   7.716  0.4909  0.6700  0.1939
  137OSM   H11S14912   1.675   5.718   7.723  0.2047  0.8521 -0.2782
  137OSM   H11T14913   1.700   5.542   7.688 -0.4632 -0.2025 -0.0140
  137OSM   C12S14914   1.577   5.583   7.849 -0.1658  0.2413 -0.3449
  137OSM   H12S14915   1.487   5.644   7.873 -0.7646  0.1192 -2.1729
  137OSM   H12T14916   1.655   5.624   7.918 -0.5697  1.0073 -0.3365
  137OSM   C13S14917   1.548   5.440   7.876 -0.3518  0.3976  0.5133
  137OSM   H13S14918   1.639   5.380   7.854 -0.8944  0.2715 -1.6194
  137OSM   H13T14919   1.468   5.403   7.807 -0.5726 -0.3998  1.1778
  137OSM   C14S14920   1.500   5.406   8.018  1.2006  0.2302  0.1180
  137OSM   H14S14921   1.480   5.296   8.026  0.4765  0.3993  0.7993
  137OSM   H14T14922   1.410   5.468   8.038 -0.2392 -2.0024  0.9995
  137OSM   C15S14923   1.599   5.442   8.135  1.0708 -0.3107  0.1629
  137OSM   H15S14924   1.627   5.549   8.128 -1.2098  0.2598 -1.6427
  137OSM   H15T14925   1.698   5.393   8.125  1.7072  0.9975 -0.2178
  137OSM   C16S14926   1.537   5.408   8.270 -0.3754  0.5042  1.0059
  137OSM   H16S14927   1.606   5.440   8.351 -0.0566 -1.9266  1.7664
  137OSM   H16T14928   1.548   5.299   8.286 -0.4404  0.3963  0.3283
  137OSM   C17S14929   1.403   5.471   8.301  0.9417 -0.5522  0.0822
  137OSM   H17S14930   1.328   5.434   8.228  1.9493 -1.8596 -0.3312
  137OSM   H17T14931   1.393   5.582   8.291  1.3534 -0.6276 -1.4739
  137OSM   C18S14932   1.353   5.414   8.432  0.5301 -0.0446  0.6352
  137OSM   H18S14933   1.409   5.475   8.507  1.0419 -0.4355  0.5723
  137OSM   H18T14934   1.376   5.308   8.452 -0.0588 -0.5661 -1.2617
  137OSM   H18U14935   1.244   5.427   8.452  0.5581 -1.1712  1.6293
  137OSM    C1F14936   1.655   6.347   7.137 -0.3299  0.3877 -0.2214
  137OSM     OF14937   1.546   6.400   7.149 -0.2485 -0.0907 -0.6221
  137OSM    C2F14938   1.774   6.387   7.215 -0.5527  0.1824  0.3640
  137OSM    H2F14939   1.858   6.321   7.184 -2.2755 -2.5286  1.1396
  137OSM    H2G14940   1.755   6.364   7.322 -2.4719  0.8336  0.2020
  137OSM    C3F14941   1.805   6.540   7.194 -0.1639  0.8497  0.6826
  137OSM    H3F14942   1.714   6.597   7.221 -1.0547 -0.3009  0.1708
  137OSM    H3G14943   1.834   6.562   7.089 -0.3081  2.1464  0.9056
  137OSM    C4F14944   1.918   6.588   7.284  0.4983  0.2020  0.0431
  137OSM    H4F14945   1.979   6.657   7.222  1.0109 -0.6345 -0.3966
  137OSM    H4G14946   1.987   6.504   7.307 -0.2141 -0.2371  0.6194
  137OSM    C5F14947   1.876   6.667   7.412  0.0433  0.8949 -0.4078
  137OSM    H5F14948   1.831   6.762   7.376 -0.6038  0.4031 -0.9175
  137OSM    H5G14949   1.967   6.693   7.470 -0.4669 -0.5605  1.1298
  137OSM    C6F14950   1.770   6.595   7.495 -0.0689 -0.7142 -0.1646
  137OSM    H6F14951   1.689   6.560   7.428 -0.5082 -1.0109  0.5123
  137OSM    H6G14952   1.730   6.676   7.560  2.5454 -0.4836  1.2917
  137OSM    C7F14953   1.821   6.469   7.566 -0.8177 -0.1846  0.5070
  137OSM    H7F14954   1.859   6.408   7.481  0.7157  0.2565  0.8483
  137OSM    H7G14955   1.730   6.410   7.588 -0.9189  0.0551  0.7455
  137OSM    C8F14956   1.920   6.485   7.683 -0.1612  0.3226 -0.0010
  137OSM    H8F14957   1.875   6.556   7.755 -0.5665  2.2098 -1.9751
  137OSM    H8G14958   2.006   6.542   7.639  0.9983 -1.7127 -0.5071
  137OSM    C9F14959   1.965   6.355   7.735 -0.1456  0.4383  0.2277
  137OSM    H9F14960   1.954   6.267   7.671  1.6184  1.3587 -1.4370
  137OSM   C10F14961   1.993   6.326   7.866 -0.2690  0.4815  0.2893
  137OSM   H10F14962   2.037   6.228   7.889 -0.2398  0.4106 -0.0547
  137OSM   C11F14963   1.996   6.426   7.972 -0.1901  1.2023 -0.7312
  137OSM   H11F14964   1.960   6.523   7.933 -1.5037  0.0499 -2.5564
  137OSM   H11G14965   2.099   6.418   8.015 -0.2926 -2.6616 -0.8269
  137OSM   C12F14966   1.896   6.398   8.088 -0.4924 -0.4771 -0.4249
  137OSM   H12F14967   1.928   6.308   8.146  0.2060 -0.6407 -1.0497
  137OSM   H12G14968   1.794   6.374   8.050  0.6199 -1.6417 -2.8856
  137OSM   C13F14969   1.888   6.518   8.191 -0.0282  0.0785  0.5200
  137OSM   H13F14970   1.832   6.603   8.146 -0.2045 -1.1711 -1.7506
  137OSM   H13G14971   1.988   6.556   8.219 -1.0380  2.9038  0.6822
  137OSM   C14F14972   1.815   6.484   8.320 -0.3172 -0.1172  0.7803
  137OSM   H14F14973   1.893   6.447   8.390  1.5931  0.9243 -0.7156
  137OSM   H14G14974   1.726   6.419   8.307 -0.6158  0.5011 -0.4059
  137OSM   C15F14975   1.753   6.603   8.385  0.5770 -0.4988 -0.6407
  137OSM   H15F14976   1.677   6.646   8.315 -1.9852  0.0588  2.2674
  137OSM   H15G14977   1.823   6.686   8.407  1.1800 -0.8692 -1.1201
  137OSM   C16F14978   1.675   6.574   8.513  0.0712 -0.6550  0.6818
  137OSM   H16F14979   1.736   6.516   8.585  0.2437  0.1960  1.2335
  137OSM   H16G14980   1.581   6.515   8.501  0.4461 -0.7265 -2.9117
  137OSM   C17F14981   1.629   6.699   8.584 -0.2866 -0.8923  0.7589
  137OSM   H17F14982   1.558   6.758   8.522 -1.4876 -1.8727  1.1587
  137OSM   H17G14983   1.706   6.770   8.621 -1.7314 -0.6253  3.5155
  137OSM   C18F14984   1.551   6.665   8.711 -0.3002 -0.1010 -0.0558
  137OSM   H18F14985   1.602   6.595   8.781 -2.1452 -0.8869  0.5655
  137OSM   H18G14986   1.455   6.614   8.689 -1.4687  0.5154  3.0388
  137OSM   H18H14987   1.528   6.758   8.768 -2.9662 -0.7209 -0.0147
  138OSM      N14988   3.635   5.106   5.879 -1.0214 -0.0448 -0.2784
  138OSM    C1514989   3.730   4.996   5.840  0.2136 -0.9566 -0.2586
  138OSM   H15A14990   3.740   4.985   5.733 -0.1198  0.9295 -0.5017
  138OSM   H15B14991   3.681   4.906   5.877 -1.9312  0.4713  0.5648
  138OSM   H15C14992   3.823   5.002   5.895 -0.3226 -2.9024  0.9718
  138OSM    C1414993   3.620   5.099   6.024  0.1043  0.1655 -0.1486
  138OSM   H14A14994   3.554   5.015   6.041  3.0677 -2.6409 -1.5836
  138OSM   H14B14995   3.575   5.189   6.064  0.1193  0.5372 -0.9635
  138OSM   H14C14996   3.705   5.074   6.085  1.7744 -3.1964 -3.4603
  138OSM    C1314997   3.690   5.233   5.831 -1.0486  0.2827  0.4250
  138OSM   H13A14998   3.638   5.316   5.875  2.2888  2.5772  0.4644
  138OSM   H13B14999   3.685   5.251   5.725  2.3092 -2.5326 -0.4024
  138OSM   H13C15000   3.794   5.238   5.861 -1.0800  2.5306  0.2860
  138OSM    C1215001   3.504   5.085   5.803 -0.6652  0.0470  0.0497
  138OSM   H12A15002   3.532   5.111   5.702  0.9341 -0.7862  0.2405
  138OSM   H12B15003   3.430   5.156   5.834  0.3355  0.6481  1.1506
  138OSM    C1115004   3.446   4.942   5.813  0.2304 -0.8784 -0.2482
  138OSM   H11A15005   3.517   4.861   5.787  1.5218  0.0037  0.4064
  138OSM   H11B15006   3.362   4.928   5.743 -0.0098  0.0660 -0.1633
  138OSM      P15007   3.268   4.990   6.003 -0.0921  0.5399 -0.1930
  138OSM    O1315008   3.308   5.083   6.112  0.2605 -0.5486  0.0026
  138OSM    O1415009   3.183   5.046   5.895  0.5495 -0.3558 -0.5395
  138OSM    O1115010   3.176   4.873   6.067 -0.7358 -0.2772  0.6446
  138OSM    O1215011   3.404   4.917   5.950  0.2093 -0.3982 -0.6695
  138OSM    C1S15012   3.246   4.796   6.170  0.2080 -0.0203 -0.7137
  138OSM    H1S15013   3.207   4.838   6.265  4.8806  2.3977  0.4312
  138OSM    H1T15014   3.357   4.801   6.180  0.1540  1.2577 -0.5534
  138OSM     NF15015   3.236   4.591   6.303  0.8948 -0.1152  0.2055
  138OSM    HNF15016   3.323   4.544   6.305  1.1489 -0.2599 -4.1740
  138OSM    C2S15017   3.210   4.647   6.169 -0.4643  0.3733 -0.2983
  138OSM    H2S15018   3.100   4.644   6.155 -0.5276  1.2977 -0.0211
  138OSM    C3S15019   3.284   4.576   6.052 -0.1240 -0.5607 -0.2784
  138OSM    H3S15020   3.391   4.603   6.069 -0.6028  0.8151  0.7659
  138OSM     O315021   3.261   4.624   5.918  0.1352 -0.2381 -0.1262
  138OSM    HO315022   3.223   4.710   5.937  0.9194 -0.0606  0.6893
  138OSM    C4S15023   3.261   4.423   6.065  0.7439 -0.4684 -0.1518
  138OSM    H4S15024   3.325   4.368   6.135  0.3827  1.6889  1.9771
  138OSM    C5S15025   3.153   4.361   6.017  0.4406 -0.1356 -0.2323
  138OSM    H5S15026   3.071   4.423   5.977  0.7533 -0.4657 -1.4368
  138OSM    C6S15027   3.121   4.218   6.046 -0.1993 -0.4057 -0.0042
  138OSM    H6S15028   3.145   4.151   5.961 -0.2993 -1.0828  0.4940
  138OSM    H6T15029   3.010   4.218   6.049 -0.3029 -0.9677 -2.3074
  138OSM    C7S15030   3.173   4.158   6.178  0.1082  0.2679 -0.6018
  138OSM    H7S15031   3.135   4.216   6.264 -0.9065 -0.2489 -0.6869
  138OSM    H7T15032   3.284   4.159   6.182  0.2112  0.8153 -2.4064
  138OSM    C8S15033   3.117   4.017   6.188 -0.5797 -0.2433 -0.7003
  138OSM    H8S15034   3.145   3.956   6.100  0.2057 -1.4607  0.3610
  138OSM    H8T15035   3.008   4.033   6.198 -0.6334 -0.5872 -0.7219
  138OSM    C9S15036   3.163   3.951   6.316  0.1605  0.4611 -0.0057
  138OSM    H9S15037   3.134   4.019   6.398  1.7956  3.4548 -1.7337
  138OSM    H9T15038   3.274   3.941   6.321  0.0499 -0.4449  1.0855
  138OSM   C10S15039   3.116   3.808   6.333  0.4742  0.6744 -0.0683
  138OSM   H10S15040   3.124   3.756   6.235 -1.4684 -0.2331  0.1974
  138OSM   H10T15041   3.009   3.810   6.365  0.7719  0.7893  0.9540
  138OSM   C11S15042   3.193   3.704   6.419  0.0903 -0.3536  0.1357
  138OSM   H11S15043   3.300   3.733   6.423  1.0649 -3.6034  0.1464
  138OSM   H11T15044   3.196   3.613   6.356  0.4156 -1.2041  1.3462
  138OSM   C12S15045   3.141   3.691   6.562  0.9094 -0.2875 -0.6724
  138OSM   H12S15046   3.042   3.643   6.551 -0.1110  0.7837  2.5886
  138OSM   H12T15047   3.124   3.796   6.595  0.8465 -0.4477 -0.1818
  138OSM   C13S15048   3.223   3.612   6.673  0.1081  0.3019 -0.3519
  138OSM   H13S15049   3.167   3.628   6.767 -0.2627  1.0269 -0.6937
  138OSM   H13T15050   3.305   3.684   6.693  1.0346 -0.5328 -1.0082
  138OSM   C14S15051   3.277   3.471   6.651  0.4963  0.4015 -0.0503
  138OSM   H14S15052   3.324   3.470   6.551 -0.5462 -0.4528 -0.5499
  138OSM   H14T15053   3.188   3.404   6.657 -0.3953  1.6445  1.3140
  138OSM   C15S15054   3.384   3.436   6.761 -0.1381  0.5369 -0.5506
  138OSM   H15S15055   3.458   3.516   6.780 -0.1801  0.8524 -1.6405
  138OSM   H15T15056   3.445   3.353   6.720  0.0357 -0.0677  0.8855
  138OSM   C16S15057   3.315   3.400   6.888 -0.4707  0.4309 -1.1201
  138OSM   H16S15058   3.227   3.335   6.870 -0.1148 -0.5466  0.5213
  138OSM   H16T15059   3.267   3.493   6.926 -1.0535 -0.7556  1.1760
  138OSM   C17S15060   3.401   3.323   6.995 -0.0847  0.2223  0.7494
  138OSM   H17S15061   3.500   3.372   6.993 -0.3982  0.8820 -1.5583
  138OSM   H17T15062   3.414   3.216   6.966 -1.7707  0.5148 -1.4181
  138OSM   C18S15063   3.342   3.333   7.141  0.2754  0.0733  0.0193
  138OSM   H18S15064   3.235   3.303   7.133  0.1889  0.4087 -0.1002
  138OSM   H18T15065   3.351   3.436   7.180 -0.5127  0.6408 -1.2108
  138OSM   H18U15066   3.384   3.261   7.214  0.6061  1.6970  1.4866
  138OSM    C1F15067   3.166   4.624   6.416 -0.9618 -0.2701 -0.2561
  138OSM     OF15068   3.088   4.710   6.424  0.4603  0.0156  0.1781
  138OSM    C2F15069   3.201   4.543   6.537 -0.2112 -0.4563 -0.4131
  138OSM    H2F15070   3.305   4.506   6.527  0.0034 -0.9295  2.4627
  138OSM    H2G15071   3.128   4.459   6.542 -0.4828 -0.1884  2.7977
  138OSM    C3F15072   3.172   4.611   6.672  0.4206  0.2875 -0.0575
  138OSM    H3F15073   3.075   4.664   6.668 -0.9714 -2.0464  1.0872
  138OSM    H3G15074   3.245   4.696   6.680  1.0669 -0.3439  0.9905
  138OSM    C4F15075   3.178   4.523   6.796 -0.1501 -0.1241 -0.0143
  138OSM    H4F15076   3.273   4.466   6.795 -1.3733 -2.2605 -1.4734
  138OSM    H4G15077   3.107   4.438   6.785  1.0853 -1.1067 -0.7043
  138OSM    C5F15078   3.171   4.608   6.929  0.2875 -0.2231  0.2030
  138OSM    H5F15079   3.126   4.550   7.012  0.5898 -1.5513 -0.5269
  138OSM    H5G15080   3.097   4.689   6.912 -1.4608 -1.1915  2.6902
  138OSM    C6F15081   3.304   4.673   6.964  0.4300 -0.6471 -0.1094
  138OSM    H6F15082   3.350   4.719   6.875 -2.2246 -0.0141 -1.2531
  138OSM    H6G15083   3.372   4.591   6.996 -1.5688 -3.6420 -2.8643
  138OSM    C7F15084   3.295   4.780   7.079 -0.8804  0.7462  0.5905
  138OSM    H7F15085   3.227   4.736   7.156 -0.2022 -0.9360  0.2686
  138OSM    H7G15086   3.256   4.880   7.050 -0.4955  1.2989  1.9241
  138OSM    C8F15087   3.427   4.800   7.158  0.3407 -0.3160 -0.2926
  138OSM    H8F15088   3.459   4.706   7.207 -0.4953 -0.2018  0.5058
  138OSM    H8G15089   3.397   4.868   7.240  1.1529  0.1955 -0.4128
  138OSM    C9F15090   3.538   4.858   7.073 -0.2057 -0.0552  0.0762
  138OSM    H9F15091   3.602   4.788   7.018 -1.2886 -1.2044  0.2345
  138OSM   C10F15092   3.576   4.985   7.069  0.1218  0.1725  0.1437
  138OSM   H10F15093   3.648   5.013   6.991 -0.3754 -1.6725 -1.0382
  138OSM   C11F15094   3.512   5.095   7.154  0.1691  0.5369 -0.2559
  138OSM   H11F15095   3.403   5.091   7.173  0.0854  1.9686 -0.3004
  138OSM   H11G15096   3.524   5.193   7.102  0.9067 -0.2493 -1.6223
  138OSM   C12F15097   3.569   5.113   7.294  0.4232 -0.4817  0.3240
  138OSM   H12F15098   3.651   5.188   7.287 -0.2195  0.4171  1.8247
  138OSM   H12G15099   3.610   5.018   7.333  1.3415 -0.3237 -0.2502
  138OSM   C13F15100   3.468   5.180   7.393 -0.4293  0.6414 -0.5371
  138OSM   H13F15101   3.409   5.088   7.412 -1.7934  1.1577 -2.0468
  138OSM   H13G15102   3.408   5.250   7.331 -2.9221 -2.8169 -2.3366
  138OSM   C14F15103   3.524   5.237   7.519  0.5254  0.1051  0.2238
  138OSM   H14F15104   3.437   5.270   7.579  1.1638  0.3947  1.0010
  138OSM   H14G15105   3.587   5.322   7.486  0.0346  1.0548  1.6632
  138OSM   C15F15106   3.600   5.129   7.596 -0.1647 -0.1231  0.1573
  138OSM   H15F15107   3.682   5.108   7.524 -1.9824 -0.1666 -2.0230
  138OSM   H15G15108   3.533   5.044   7.619 -1.0348  0.5395  0.1356
  138OSM   C16F15109   3.649   5.176   7.735 -0.3489 -0.2202  0.5758
  138OSM   H16F15110   3.562   5.223   7.786  0.3448  1.5041  0.2419
  138OSM   H16G15111   3.731   5.251   7.725 -1.3209  0.8539  0.2957
  138OSM   C17F15112   3.696   5.057   7.820  0.4360 -0.0031  0.4935
  138OSM   H17F15113   3.766   5.004   7.753 -0.3659 -0.9563  0.3935
  138OSM   H17G15114   3.612   4.987   7.838 -0.6923  1.1932 -0.0194
  138OSM   C18F15115   3.767   5.093   7.957  0.1982 -0.0720  0.3735
  138OSM   H18F15116   3.820   5.007   8.002  0.1652 -0.6906 -0.7252
  138OSM   H18G15117   3.692   5.134   8.028  0.4736  2.6094 -0.7421
  138OSM   H18H15118   3.845   5.169   7.935  1.5564 -1.8515 -1.3156
  139OSM      N15119   1.263   0.836   6.171  0.2680 -0.0460  0.3611
  139OSM    C1515120   1.132   0.770   6.170 -0.1329 -0.5276 -0.4476
  139OSM   H15A15121   1.101   0.725   6.077  0.0523 -0.0262 -0.7528
  139OSM   H15B15122   1.056   0.844   6.185 -0.3622 -1.0831  1.3613
  139OSM   H15C15123   1.114   0.703   6.253  1.6488 -0.5340 -0.0261
  139OSM    C1415124   1.283   0.917   6.046 -0.6548 -0.3993  0.3436
  139OSM   H14A15125   1.388   0.943   6.042 -0.3729 -1.4660  0.5507
  139OSM   H14B15126   1.217   1.003   6.052  0.0508  0.3279 -1.5937
  139OSM   H14C15127   1.266   0.854   5.961  1.3257 -0.3959 -0.1042
  139OSM    C1315128   1.268   0.928   6.287 -0.7326  0.4108 -0.4427
  139OSM   H13A15129   1.196   1.009   6.281  0.0886  1.1471 -0.6956
  139OSM   H13B15130   1.367   0.972   6.287 -0.0924 -0.9129 -2.0781
  139OSM   H13C15131   1.280   0.874   6.379  2.0310  0.6226 -0.5951
  139OSM    C1215132   1.370   0.735   6.168  0.5731 -0.2786  0.2044
  139OSM   H12A15133   1.458   0.788   6.136 -1.2227  3.7211  1.1453
  139OSM   H12B15134   1.348   0.660   6.094  0.8989  0.7317 -0.9449
  139OSM    C1115135   1.401   0.641   6.289  0.4521  0.1072  0.4467
  139OSM   H11A15136   1.456   0.558   6.240 -0.5397 -0.2564 -0.0901
  139OSM   H11B15137   1.305   0.598   6.324 -0.1465 -0.0977 -1.3141
  139OSM      P15138   1.619   0.741   6.358 -0.0763  0.3774  0.0819
  139OSM    O1315139   1.688   0.611   6.353 -0.7057  0.1006  0.1885
  139OSM    O1415140   1.636   0.821   6.234 -0.1449  0.2241  0.1030
  139OSM    O1115141   1.677   0.822   6.482  0.1701  0.3140 -0.4879
  139OSM    O1215142   1.467   0.712   6.394 -0.4505  0.8398  0.0351
  139OSM    C1S15143   1.605   0.934   6.534  0.3982  0.1769 -0.1261
  139OSM    H1S15144   1.501   0.908   6.564 -0.0113  2.0359  0.1951
  139OSM    H1T15145   1.616   1.016   6.460 -0.9855  1.4720  1.0391
  139OSM     NF15146   1.610   1.109   6.712 -0.2575  0.2276  0.8474
  139OSM    HNF15147   1.659   1.195   6.707 -2.2194  1.4561  1.4124
  139OSM    C2S15148   1.673   0.984   6.660 -0.3008 -0.9515  0.3590
  139OSM    H2S15149   1.667   0.911   6.743  1.3676 -0.4759  0.9564
  139OSM    C3S15150   1.824   0.994   6.628 -0.0580  0.0232  0.2927
  139OSM    H3S15151   1.846   1.057   6.540  3.1860 -0.5542  0.5736
  139OSM     O315152   1.888   0.872   6.598  0.3317 -0.3794 -0.1511
  139OSM    HO315153   1.818   0.819   6.559  0.0063  0.1314 -0.2805
  139OSM    C4S15154   1.894   1.062   6.746 -0.2569 -0.8358 -0.1315
  139OSM    H4S15155   1.915   1.169   6.736 -0.9678 -0.7710 -1.0797
  139OSM    C5S15156   1.937   1.011   6.864  0.7663  0.0730  0.7964
  139OSM    H5S15157   1.902   0.909   6.885 -0.9554  0.7208  1.2147
  139OSM    C6S15158   2.008   1.092   6.972 -0.7197  0.2379  0.2775
  139OSM    H6S15159   2.018   1.195   6.933 -2.3793 -0.1682 -1.3330
  139OSM    H6T15160   2.104   1.038   6.989 -0.3275  0.6678 -0.5464
  139OSM    C7S15161   1.923   1.103   7.103 -0.3384 -0.1594 -0.2589
  139OSM    H7S15162   1.900   1.005   7.150  0.7973 -0.2149  0.2039
  139OSM    H7T15163   1.821   1.143   7.081  0.0059  0.8436 -0.0641
  139OSM    C8S15164   1.994   1.197   7.201 -0.8686  0.3286  0.1048
  139OSM    H8S15165   2.020   1.282   7.135  3.2134 -0.5095  0.3540
  139OSM    H8T15166   2.082   1.140   7.237  1.1492  1.3789 -2.7914
  139OSM    C9S15167   1.923   1.242   7.334 -0.1883 -0.8351 -0.2889
  139OSM    H9S15168   1.887   1.147   7.379  2.3108 -1.3085  0.8717
  139OSM    H9T15169   1.846   1.313   7.295 -0.9272 -1.2642  0.3597
  139OSM   C10S15170   2.013   1.298   7.436  0.4178 -0.3785 -0.2580
  139OSM   H10S15171   2.062   1.392   7.404 -0.9582  0.5080  0.1090
  139OSM   H10T15172   2.080   1.214   7.463 -0.5363 -0.4213  2.2922
  139OSM   C11S15173   1.946   1.331   7.574  0.0540  0.1408  0.6190
  139OSM   H11S15174   1.889   1.241   7.608 -1.0331  0.1946 -0.9662
  139OSM   H11T15175   1.874   1.414   7.562 -2.1887 -1.7542  0.1671
  139OSM   C12S15176   2.056   1.348   7.687  0.3144 -0.4784 -0.4467
  139OSM   H12S15177   2.136   1.424   7.670  0.0062 -0.4660 -1.9297
  139OSM   H12T15178   2.109   1.250   7.687  0.5656 -0.5291  3.3518
  139OSM   C13S15179   1.983   1.363   7.815  0.3138 -0.0223 -0.4322
  139OSM   H13S15180   1.897   1.294   7.827  1.0523 -0.8493  0.2638
  139OSM   H13T15181   1.928   1.459   7.829 -1.0543 -0.8440  0.0111
  139OSM   C14S15182   2.065   1.321   7.934  0.4590 -0.2711  0.3122
  139OSM   H14S15183   2.145   1.397   7.941 -0.7678  0.9854  1.1906
  139OSM   H14T15184   2.105   1.220   7.911 -1.8230 -2.0556  3.4286
  139OSM   C15S15185   1.978   1.324   8.063  0.5876  0.6810  0.7256
  139OSM   H15S15186   1.887   1.261   8.047  0.1108  1.3507  0.7756
  139OSM   H15T15187   1.937   1.427   8.072  0.3885  0.9987 -2.5681
  139OSM   C16S15188   2.060   1.281   8.192 -0.7101  0.0370  0.2297
  139OSM   H16S15189   2.017   1.329   8.283 -0.3496 -0.2032  0.5264
  139OSM   H16T15190   2.156   1.335   8.177 -1.1301  0.5357 -0.8203
  139OSM   C17S15191   2.090   1.131   8.203 -0.4338  0.4601 -0.0657
  139OSM   H17S15192   2.156   1.108   8.117  0.4575 -1.5670  1.0837
  139OSM   H17T15193   2.003   1.061   8.195  0.4474 -0.6618 -0.0898
  139OSM   C18S15194   2.167   1.102   8.332 -0.3768  0.7768  0.2868
  139OSM   H18S15195   2.116   1.130   8.427 -0.0723  1.3264  0.2932
  139OSM   H18T15196   2.268   1.148   8.333 -0.2209  0.4571 -0.1634
  139OSM   H18U15197   2.178   0.994   8.359  1.5988  0.9605  0.3890
  139OSM    C1F15198   1.494   1.104   6.775 -0.6104  0.1702 -0.1702
  139OSM     OF15199   1.429   1.003   6.789  0.4505  0.0135  0.5668
  139OSM    C2F15200   1.443   1.229   6.819  0.3613 -0.1052 -0.1377
  139OSM    H2F15201   1.391   1.275   6.733  1.0473  0.3410 -0.3218
  139OSM    H2G15202   1.520   1.298   6.861  0.9617 -1.4540  1.0850
  139OSM    C3F15203   1.339   1.215   6.936  0.4610 -0.2067  0.7700
  139OSM    H3F15204   1.267   1.133   6.915 -0.4310  0.5403  0.8192
  139OSM    H3G15205   1.294   1.316   6.940  3.1166  1.1014 -0.1974
  139OSM    C4F15206   1.407   1.172   7.064  0.6979  0.1919  0.2043
  139OSM    H4F15207   1.492   1.236   7.097 -0.0377 -0.8445  4.8504
  139OSM    H4G15208   1.463   1.077   7.059  0.9791  0.0351  3.6464
  139OSM    C5F15209   1.317   1.182   7.192 -0.8451 -0.0251  0.3958
  139OSM    H5F15210   1.228   1.122   7.163 -1.7270  1.7071 -0.6600
  139OSM    H5G15211   1.281   1.284   7.216 -1.0443  0.3492 -1.3559
  139OSM    C6F15212   1.379   1.128   7.323 -0.4656 -0.6690 -0.2915
  139OSM    H6F15213   1.475   1.180   7.341 -0.6320 -0.5861  0.3758
  139OSM    H6G15214   1.404   1.019   7.322  1.8794 -0.1850 -0.4798
  139OSM    C7F15215   1.287   1.158   7.444 -0.1885  0.5096  0.0062
  139OSM    H7F15216   1.190   1.106   7.427 -0.2069  0.2544  0.8324
  139OSM    H7G15217   1.274   1.268   7.453  0.3529  0.7564 -1.9302
  139OSM    C8F15218   1.336   1.110   7.583 -0.8384 -0.0282 -0.3229
  139OSM    H8F15219   1.432   1.161   7.605 -1.0066  0.1871 -0.0720
  139OSM    H8G15220   1.356   1.001   7.579  3.6034  0.6545 -1.6173
  139OSM    C9F15221   1.255   1.158   7.696 -0.3024  1.2269 -0.2619
  139OSM    H9F15222   1.150   1.189   7.688 -0.7058  0.6026  1.8699
  139OSM   C10F15223   1.291   1.167   7.829  0.1457  0.9503 -0.3689
  139OSM   H10F15224   1.219   1.206   7.902 -2.1576 -0.7935 -1.5973
  139OSM   C11F15225   1.420   1.137   7.890 -0.4702 -0.9094  0.0179
  139OSM   H11F15226   1.497   1.213   7.867 -0.0790 -0.6962  1.8255
  139OSM   H11G15227   1.457   1.044   7.841  1.5098  0.8085 -1.9133
  139OSM   C12F15228   1.410   1.119   8.041  0.2456 -0.1131 -0.3381
  139OSM   H12F15229   1.325   1.056   8.075  0.5623  0.3234  1.3633
  139OSM   H12G15230   1.402   1.214   8.098 -1.1370  0.1764 -0.9724
  139OSM   C13F15231   1.535   1.053   8.104 -0.5185 -0.2582  0.6327
  139OSM   H13F15232   1.628   1.107   8.078 -2.7906  3.9715  0.2443
  139OSM   H13G15233   1.535   0.947   8.071  2.1473 -0.4279  0.9845
  139OSM   C14F15234   1.529   1.067   8.253  0.3537 -0.0356 -0.2213
  139OSM   H14F15235   1.447   1.007   8.297  0.2446  0.7839  0.7451
  139OSM   H14G15236   1.513   1.173   8.284  1.2926  0.1403 -0.3158
  139OSM   C15F15237   1.661   1.022   8.323  0.2831 -0.1876 -0.9441
  139OSM   H15F15238   1.643   1.034   8.432  3.9819  0.2466 -0.2425
  139OSM   H15G15239   1.744   1.093   8.301 -0.4289  1.7263  1.9936
  139OSM   C16F15240   1.710   0.881   8.299  0.4497  0.1007  0.3024
  139OSM   H16F15241   1.722   0.848   8.194  1.2588 -1.2298  0.7795
  139OSM   H16G15242   1.627   0.823   8.344  1.3244 -1.3631  0.1142
  139OSM   C17F15243   1.845   0.852   8.377 -0.4987 -0.9067  0.3339
  139OSM   H17F15244   1.927   0.909   8.330  0.6983 -1.4284  1.6983
  139OSM   H17G15245   1.867   0.744   8.364 -2.9351 -1.6193  1.4888
  139OSM   C18F15246   1.845   0.878   8.530 -0.1463  0.0734  0.5892
  139OSM   H18F15247   1.806   0.980   8.552  0.6849  0.1325  1.9723
  139OSM   H18G15248   1.951   0.861   8.561 -0.2659 -0.2376  0.8294
  139OSM   H18H15249   1.794   0.798   8.588  0.4640 -0.2644  0.6705
  140OSM      N15250   1.975   3.090   6.150  0.3113 -0.3191  0.7904
  140OSM    C1515251   1.964   3.206   6.065  0.1000 -0.9099 -0.0194
  140OSM   H15A15252   2.008   3.199   5.966  2.4389  1.7037  0.6899
  140OSM   H15B15253   2.018   3.292   6.103  1.2213 -0.8930 -1.5289
  140OSM   H15C15254   1.860   3.229   6.049 -0.1117 -2.5141 -1.1906
  140OSM    C1415255   1.902   2.975   6.088  0.5419 -0.5964  0.5966
  140OSM   H14A15256   1.944   2.967   5.989  1.1672 -1.6044  0.9234
  140OSM   H14B15257   1.796   2.992   6.084  0.4658 -1.1154  0.3705
  140OSM   H14C15258   1.931   2.882   6.135  1.1255  0.7474  3.0764
  140OSM    C1315259   2.120   3.060   6.163  0.4289 -0.4942  0.2731
  140OSM   H13A15260   2.158   3.037   6.065 -1.7899  1.3898 -1.1371
  140OSM   H13B15261   2.141   2.982   6.235 -0.3916 -0.5653  0.4473
  140OSM   H13C15262   2.176   3.141   6.209 -2.4264 -0.0002  3.1941
  140OSM    C1215263   1.907   3.107   6.288 -0.3005 -1.1289 -0.2774
  140OSM   H12A15264   1.946   3.195   6.337 -0.0394 -1.8795  0.9219
  140OSM   H12B15265   1.944   3.030   6.355  1.0996  0.3948  0.7945
  140OSM    C1115266   1.751   3.106   6.303 -0.1553 -0.1100  0.4981
  140OSM   H11A15267   1.714   3.197   6.252 -0.5042 -0.3579  0.3065
  140OSM   H11B15268   1.741   3.129   6.411  2.2403 -0.4271  0.8418
  140OSM      P15269   1.640   2.867   6.350  0.0239 -0.0235 -0.1004
  140OSM    O1315270   1.508   2.816   6.312 -0.1376 -0.4567 -0.1238
  140OSM    O1415271   1.755   2.775   6.345 -0.1483 -0.4258 -0.0837
  140OSM    O1115272   1.628   2.925   6.495  0.9369 -0.1222  0.0274
  140OSM    O1215273   1.676   2.991   6.254 -0.4429 -0.2928  0.2264
  140OSM    C1S15274   1.550   2.857   6.603  0.4210  0.1532  0.7406
  140OSM    H1S15275   1.600   2.764   6.637 -1.7895 -1.3985 -0.0022
  140OSM    H1T15276   1.456   2.819   6.557  0.1856  0.8142  0.6603
  140OSM     NF15277   1.445   2.882   6.832  0.0074  0.7745  0.4307
  140OSM    HNF15278   1.346   2.872   6.834  0.1945 -2.0006 -0.5640
  140OSM    C2S15279   1.496   2.950   6.712  0.3288 -0.2449 -0.2380
  140OSM    H2S15280   1.585   3.007   6.747 -1.3598  2.1951  0.3760
  140OSM    C3S15281   1.388   3.050   6.644 -0.4868  0.6602 -0.5103
  140OSM    H3S15282   1.313   2.983   6.598 -0.6674 -1.6469  2.7427
  140OSM     O315283   1.440   3.130   6.545 -0.0532 -0.7261  0.4489
  140OSM    HO315284   1.532   3.104   6.534  0.1362 -0.1211  0.5485
  140OSM    C4S15285   1.324   3.137   6.742  0.3911 -0.0423 -0.9928
  140OSM    H4S15286   1.224   3.102   6.772  0.1412  0.1970 -1.5168
  140OSM    C5S15287   1.371   3.244   6.805  0.2407  0.3629  0.5968
  140OSM    H5S15288   1.472   3.279   6.780  1.0282 -1.7518  0.6358
  140OSM    C6S15289   1.297   3.328   6.906  0.4651 -0.0271 -0.1683
  140OSM    H6S15290   1.243   3.406   6.848 -1.6434 -0.5841  0.9161
  140OSM    H6T15291   1.370   3.380   6.970  0.2013 -0.2944  0.3588
  140OSM    C7S15292   1.186   3.261   6.998  0.4345  0.5301  0.3240
  140OSM    H7S15293   1.211   3.155   7.024 -1.6071  0.4344  2.1722
  140OSM    H7T15294   1.093   3.261   6.936  0.0895  3.3214  0.7304
  140OSM    C8S15295   1.168   3.344   7.125 -0.1851  0.2643  0.1434
  140OSM    H8S15296   1.268   3.337   7.172  0.8147  0.5234 -1.8634
  140OSM    H8T15297   1.092   3.288   7.184  0.5839 -0.2455  0.6677
  140OSM    C9S15298   1.112   3.485   7.111 -0.1389  0.3678  0.2841
  140OSM    H9S15299   1.011   3.479   7.065  0.3574 -1.0918 -0.6964
  140OSM    H9T15300   1.165   3.550   7.038 -0.0105  1.2848  1.1732
  140OSM   C10S15301   1.104   3.563   7.238 -0.0001  0.3638  0.1842
  140OSM   H10S15302   1.034   3.511   7.308 -0.6459  0.8827 -0.0619
  140OSM   H10T15303   1.059   3.662   7.215  0.7608  1.2614  2.2911
  140OSM   C11S15304   1.242   3.589   7.309 -0.0094  0.1037  0.2157
  140OSM   H11S15305   1.248   3.697   7.334  0.4485  0.4589 -1.3772
  140OSM   H11T15306   1.323   3.560   7.240 -0.1316 -0.1505  0.1772
  140OSM   C12S15307   1.269   3.501   7.430  0.2352  0.1140 -0.1145
  140OSM   H12S15308   1.218   3.404   7.415  0.7163 -0.1940  0.2087
  140OSM   H12T15309   1.215   3.546   7.517  0.5095 -0.1518  0.1966
  140OSM   C13S15310   1.414   3.491   7.475 -0.0650 -0.6083 -0.3388
  140OSM   H13S15311   1.461   3.590   7.491  1.1822 -1.0683 -1.0327
  140OSM   H13T15312   1.466   3.450   7.386  3.9089  3.1524 -0.0603
  140OSM   C14S15313   1.433   3.394   7.592 -0.1789  1.0146  0.1336
  140OSM   H14S15314   1.377   3.301   7.567  2.2116 -0.9236  1.5380
  140OSM   H14T15315   1.388   3.424   7.689  1.0054  1.6285  0.5096
  140OSM   C15S15316   1.576   3.339   7.618  0.0894  0.3816 -0.3782
  140OSM   H15S15317   1.617   3.294   7.525 -0.5677 -1.1259  0.0289
  140OSM   H15T15318   1.575   3.253   7.689  1.1537 -0.1851 -1.0250
  140OSM   C16S15319   1.676   3.444   7.677  1.0682 -0.9191  0.3148
  140OSM   H16S15320   1.663   3.540   7.624  1.4382 -0.1338  1.5962
  140OSM   H16T15321   1.780   3.407   7.658  1.5798  1.3750 -1.9584
  140OSM   C17S15322   1.645   3.491   7.816 -0.0218 -0.1717 -0.0563
  140OSM   H17S15323   1.539   3.523   7.812 -0.0848 -0.4200 -0.5014
  140OSM   H17T15324   1.701   3.583   7.845 -0.3868 -0.7366  2.7761
  140OSM   C18S15325   1.658   3.391   7.929  0.4917 -0.0975  0.0910
  140OSM   H18S15326   1.618   3.444   8.018  2.4165  0.2971  0.7602
  140OSM   H18T15327   1.763   3.357   7.940  1.5283  2.8974  0.2927
  140OSM   H18U15328   1.586   3.306   7.921  1.3522 -0.8355  0.0508
  140OSM    C1F15329   1.522   2.807   6.911 -0.6817 -0.1446  0.2587
  140OSM     OF15330   1.639   2.778   6.889 -0.4100 -0.4116 -0.1618
  140OSM    C2F15331   1.458   2.749   7.032  0.2146 -0.1896 -0.0937
  140OSM    H2F15332   1.533   2.694   7.094  0.7330  1.2498  0.5871
  140OSM    H2G15333   1.379   2.673   7.010  0.4925 -0.7419  0.7606
  140OSM    C3F15334   1.387   2.867   7.111  0.0733 -0.9273 -0.0069
  140OSM    H3F15335   1.318   2.820   7.185  0.6871 -0.4310  0.8986
  140OSM    H3G15336   1.319   2.918   7.039 -0.8177 -3.4695 -1.0555
  140OSM    C4F15337   1.473   2.962   7.199 -0.2533  0.3832  0.2287
  140OSM    H4F15338   1.404   3.040   7.238 -0.1965  0.3001  0.4973
  140OSM    H4G15339   1.549   3.005   7.131 -0.1677  0.7651  0.5662
  140OSM    C5F15340   1.543   2.889   7.315  0.1074  0.4434  0.0009
  140OSM    H5F15341   1.651   2.880   7.292  0.8513  0.3384  3.0187
  140OSM    H5G15342   1.503   2.786   7.326  1.2324 -0.0064  0.0206
  140OSM    C6F15343   1.527   2.962   7.448 -0.1652  0.3545  0.1197
  140OSM    H6F15344   1.427   3.009   7.448 -0.2369  0.3601 -2.4431
  140OSM    H6G15345   1.591   3.053   7.442  1.4590 -0.6732  0.9486
  140OSM    C7F15346   1.548   2.865   7.568  0.5290 -0.1051 -0.2305
  140OSM    H7F15347   1.477   2.782   7.549 -2.2029  1.5159  2.0001
  140OSM    H7G15348   1.515   2.912   7.663 -2.0652  0.3804 -1.2802
  140OSM    C8F15349   1.692   2.815   7.582 -0.0645  0.0516 -0.2543
  140OSM    H8F15350   1.712   2.757   7.489  0.0395 -0.1674 -0.0951
  140OSM    H8G15351   1.689   2.745   7.668 -2.6526  1.3371  0.8169
  140OSM    C9F15352   1.799   2.914   7.613  0.1686 -0.5769  0.5810
  140OSM    H9F15353   1.872   2.945   7.537 -0.1189 -0.0286  0.5246
  140OSM   C10F15354   1.817   2.971   7.733  0.2421  0.1303  0.1688
  140OSM   H10F15355   1.899   3.042   7.751 -1.4265  1.9754  0.9966
  140OSM   C11F15356   1.736   2.948   7.859 -0.6290 -0.7826  0.8331
  140OSM   H11F15357   1.746   2.845   7.898 -1.4073 -0.6509  1.4037
  140OSM   H11G15358   1.629   2.976   7.857 -0.6426 -0.4615  3.2067
  140OSM   C12F15359   1.796   3.028   7.981  0.2217  0.9421  0.5812
  140OSM   H12F15360   1.792   3.131   7.940 -0.3840 -0.4645 -3.3875
  140OSM   H12G15361   1.903   3.000   7.980 -0.0826 -0.5075 -1.9853
  140OSM   C13F15362   1.717   3.003   8.107  0.4480  0.1753  0.8852
  140OSM   H13F15363   1.726   2.892   8.116 -1.2799 -0.1084 -0.3036
  140OSM   H13G15364   1.611   3.032   8.089  0.3390  0.5872  2.0916
  140OSM   C14F15365   1.768   3.082   8.233  0.0358 -0.4149 -1.0775
  140OSM   H14F15366   1.878   3.088   8.213  0.1160  1.6720 -0.2834
  140OSM   H14G15367   1.735   3.024   8.321  0.4712 -0.0687 -0.6753
  140OSM   C15F15368   1.736   3.237   8.239 -0.7409  0.1663 -0.1365
  140OSM   H15F15369   1.626   3.239   8.231 -0.8241  1.8133  1.0543
  140OSM   H15G15370   1.776   3.268   8.140 -1.0006  0.4009 -0.1689
  140OSM   C16F15371   1.784   3.311   8.363  0.1097 -0.3981 -0.6285
  140OSM   H16F15372   1.734   3.272   8.455  0.6942 -0.6094 -0.3949
  140OSM   H16G15373   1.734   3.410   8.355  0.8925  0.1272  0.7014
  140OSM   C17F15374   1.927   3.326   8.381 -0.7798  0.1895 -0.9811
  140OSM   H17F15375   1.981   3.231   8.365  1.4798  1.2575 -0.1003
  140OSM   H17G15376   1.953   3.346   8.487  1.6754 -1.7558 -1.1283
  140OSM   C18F15377   2.007   3.431   8.298  0.5860 -0.0083 -0.1537
  140OSM   H18F15378   1.964   3.532   8.306  0.2068 -0.1024 -0.9740
  140OSM   H18G15379   2.014   3.406   8.190  0.6143  1.3150 -0.4645
  140OSM   H18H15380   2.115   3.428   8.326  1.0295  0.2422 -1.7145
  141OSM      N15381   0.762   6.706   6.531 -0.6189  0.7949 -0.2100
  141OSM    C1515382   0.759   6.825   6.431  0.0999  0.1817  0.6241
  141OSM   H15A15383   0.790   6.918   6.475 -0.7962  0.5815  0.4201
  141OSM   H15B15384   0.662   6.845   6.389  0.7737 -2.4975 -2.7241
  141OSM   H15C15385   0.819   6.797   6.345  0.9772 -0.8134  1.5160
  141OSM    C1415386   0.666   6.719   6.641  0.1344  0.3242 -0.4014
  141OSM   H14A15387   0.575   6.760   6.599  0.5355 -1.0139 -2.7770
  141OSM   H14B15388   0.697   6.794   6.713 -4.0031  1.3012  0.6503
  141OSM   H14C15389   0.645   6.627   6.693 -3.3136  0.9654 -0.3904
  141OSM    C1315390   0.718   6.587   6.458  0.2397 -0.0734  0.8522
  141OSM   H13A15391   0.777   6.568   6.370  0.4345  0.3177  0.8996
  141OSM   H13B15392   0.617   6.585   6.421  1.5862 -1.2592 -3.3244
  141OSM   H13C15393   0.728   6.499   6.520 -0.6289 -0.6082  0.2518
  141OSM    C1215394   0.902   6.687   6.585  0.4710 -0.5637  0.0449
  141OSM   H12A15395   0.938   6.779   6.629 -1.9848  0.3874  0.1903
  141OSM   H12B15396   0.963   6.664   6.499 -1.5485  2.8446 -2.5770
  141OSM    C1115397   0.927   6.563   6.681 -0.0948 -0.2681 -0.3481
  141OSM   H11A15398   0.847   6.581   6.756 -1.4313 -0.2000 -1.7138
  141OSM   H11B15399   1.028   6.565   6.727 -0.3576  0.0851  0.2210
  141OSM      P15400   1.029   6.382   6.535  0.3290  0.5978 -0.2513
  141OSM    O1315401   0.968   6.294   6.430 -0.4120 -0.0129 -0.3269
  141OSM    O1415402   1.117   6.487   6.480 -0.3827 -0.1368  0.2379
  141OSM    O1115403   1.109   6.293   6.637  0.0563 -0.3610  0.3496
  141OSM    O1215404   0.910   6.442   6.619 -0.6066  0.0524  0.2664
  141OSM    C1S15405   1.207   6.336   6.736  0.7178 -1.0159 -0.0053
  141OSM    H1S15406   1.257   6.430   6.707  4.0388 -2.2198  1.2995
  141OSM    H1T15407   1.285   6.256   6.742  0.3984 -1.3849 -0.6504
  141OSM     NF15408   1.223   6.424   6.969  0.1883  0.4009 -0.1773
  141OSM    HNF15409   1.266   6.367   7.038 -0.5562 -0.3126 -0.2841
  141OSM    C2S15410   1.140   6.343   6.879 -0.2671 -0.2372  0.2836
  141OSM    H2S15411   1.044   6.397   6.864 -0.2521 -0.0621  0.8026
  141OSM    C3S15412   1.107   6.198   6.922 -0.2324 -0.3006 -0.4349
  141OSM    H3S15413   1.209   6.158   6.940 -0.7279 -1.1536  0.5816
  141OSM     O315414   1.036   6.119   6.825 -0.1100 -0.3006 -0.1092
  141OSM    HO315415   1.061   6.150   6.737 -1.2223 -3.8078 -1.8489
  141OSM    C4S15416   1.046   6.193   7.059 -0.1754 -0.0307  0.2527
  141OSM    H4S15417   1.123   6.195   7.137  1.9533  1.1829 -1.7432
  141OSM    C5S15418   0.912   6.195   7.084  0.1827 -0.0142  0.0439
  141OSM    H5S15419   0.843   6.209   7.000  0.3787  0.5830 -0.0155
  141OSM    C6S15420   0.841   6.178   7.218  0.5547  0.1376  0.3038
  141OSM    H6S15421   0.776   6.087   7.221  1.0947 -0.3322 -1.2914
  141OSM    H6T15422   0.778   6.269   7.230  1.5476  0.6326  2.1993
  141OSM    C7S15423   0.933   6.181   7.341 -0.0901  0.3994 -0.2395
  141OSM    H7S15424   0.991   6.275   7.327  0.1384 -0.1961 -5.4777
  141OSM    H7T15425   1.002   6.095   7.324  0.0823  0.1005  1.7214
  141OSM    C8S15426   0.858   6.171   7.470  0.8426  0.6530 -1.1655
  141OSM    H8S15427   0.819   6.068   7.470 -0.5071  1.0290  2.3801
  141OSM    H8T15428   0.764   6.230   7.478  0.0755 -0.3997 -2.2081
  141OSM    C9S15429   0.947   6.196   7.592  0.6301 -0.3265 -0.0434
  141OSM    H9S15430   0.990   6.298   7.595  2.2623 -1.0111  1.2585
  141OSM    H9T15431   1.038   6.132   7.587  1.7840  1.3046 -1.0577
  141OSM   C10S15432   0.870   6.174   7.724  0.2169  0.2222 -0.0826
  141OSM   H10S15433   0.815   6.077   7.717 -1.6966  0.9874  2.6026
  141OSM   H10T15434   0.806   6.261   7.749  0.8421  0.9847 -1.0508
  141OSM   C11S15435   0.963   6.156   7.845 -0.2461  0.0167  0.1874
  141OSM   H11S15436   1.002   6.258   7.865 -0.9131  0.4417 -0.5810
  141OSM   H11T15437   1.049   6.092   7.816 -0.7611 -0.6170  0.0330
  141OSM   C12S15438   0.893   6.089   7.965 -0.4335  0.3951 -0.0025
  141OSM   H12S15439   0.866   5.991   7.922  1.7227 -0.1776 -0.1892
  141OSM   H12T15440   0.807   6.145   8.008  0.8994  1.1435  1.8422
  141OSM   C13S15441   0.996   6.081   8.077  0.8011  0.3465 -0.8930
  141OSM   H13S15442   0.993   6.173   8.140  1.7160 -1.0519  1.3222
  141OSM   H13T15443   1.101   6.076   8.041  0.7792  1.3185 -1.1172
  141OSM   C14S15444   0.959   5.962   8.170  0.0786 -0.0393 -0.2684
  141OSM   H14S15445   0.946   5.866   8.116 -1.1685  0.5904 -1.1413
  141OSM   H14T15446   0.857   5.985   8.209 -1.0213 -1.5507 -2.0745
  141OSM   C15S15447   1.059   5.946   8.286  0.0829 -0.2621  0.3562
  141OSM   H15S15448   1.074   6.051   8.319 -0.1230 -0.0300 -0.2681
  141OSM   H15T15449   1.156   5.897   8.261  0.0372 -0.3395  0.3323
  141OSM   C16S15450   0.995   5.866   8.402 -0.3641  0.5672  0.0179
  141OSM   H16S15451   0.970   5.764   8.364 -1.0507  0.6022  0.3621
  141OSM   H16T15452   0.894   5.908   8.420 -0.5649  0.5350 -0.9943
  141OSM   C17S15453   1.090   5.879   8.523 -0.3049 -0.0379 -0.2372
  141OSM   H17S15454   1.081   5.984   8.560  0.3860  0.8175 -2.3789
  141OSM   H17T15455   1.194   5.862   8.490 -0.4008  1.5837 -1.5105
  141OSM   C18S15456   1.064   5.778   8.639 -0.0350  0.1370  0.4219
  141OSM   H18S15457   1.056   5.675   8.597 -3.5671  0.3776  0.2270
  141OSM   H18T15458   0.966   5.798   8.687 -0.4075 -0.2973 -0.1398
  141OSM   H18U15459   1.141   5.764   8.718  1.0525  2.9760 -0.0348
  141OSM    C1F15460   1.259   6.553   6.960 -0.1590 -0.2432 -0.0597
  141OSM     OF15461   1.219   6.622   6.865  0.1102 -0.8034 -0.1990
  141OSM    C2F15462   1.346   6.615   7.065 -0.3082 -0.4251  0.4303
  141OSM    H2F15463   1.450   6.579   7.049 -0.1550 -0.1301  0.7452
  141OSM    H2G15464   1.315   6.572   7.162  0.6319 -2.4708 -0.1254
  141OSM    C3F15465   1.324   6.769   7.081 -0.2174 -0.5778 -0.4982
  141OSM    H3F15466   1.236   6.795   7.143  1.3652 -0.3040  1.7651
  141OSM    H3G15467   1.319   6.814   6.980 -2.1084  0.4594  0.0109
  141OSM    C4F15468   1.440   6.831   7.163  0.8221  0.1924 -0.0544
  141OSM    H4F15469   1.420   6.940   7.172  0.9024  0.2254 -0.2839
  141OSM    H4G15470   1.536   6.822   7.108  1.0938  0.4009  0.3799
  141OSM    C5F15471   1.456   6.762   7.300  0.3696  0.2895 -0.1155
  141OSM    H5F15472   1.552   6.794   7.347 -0.1533  1.8871 -0.0699
  141OSM    H5G15473   1.444   6.652   7.299 -1.2736  0.3986 -2.8880
  141OSM    C6F15474   1.355   6.809   7.409  0.5058  0.2343 -0.3754
  141OSM    H6F15475   1.254   6.786   7.370  0.2483 -0.2771  0.5687
  141OSM    H6G15476   1.351   6.919   7.426 -2.1630 -0.2638  3.7469
  141OSM    C7F15477   1.371   6.727   7.541 -0.1215  0.2441 -0.2708
  141OSM    H7F15478   1.403   6.625   7.514 -2.0226 -0.4693  0.0030
  141OSM    H7G15479   1.273   6.697   7.585  0.7344 -3.0214 -0.4073
  141OSM    C8F15480   1.459   6.791   7.650  0.0310 -0.0578 -0.5101
  141OSM    H8F15481   1.402   6.876   7.691  0.0481  0.0483 -0.7079
  141OSM    H8G15482   1.548   6.832   7.598  1.2569 -0.4238  1.2068
  141OSM    C9F15483   1.513   6.702   7.758  0.2229  0.7029  0.2293
  141OSM    H9F15484   1.570   6.615   7.720 -0.8833 -0.5888  1.4506
  141OSM   C10F15485   1.488   6.720   7.889  0.6976  0.1367 -0.5433
  141OSM   H10F15486   1.526   6.644   7.959 -0.7845 -1.4117 -1.3386
  141OSM   C11F15487   1.410   6.829   7.955  0.6990 -0.6673  0.0361
  141OSM   H11F15488   1.308   6.840   7.914 -0.1943 -0.5937  2.1365
  141OSM   H11G15489   1.456   6.926   7.928 -0.3048 -0.0987  0.3210
  141OSM   C12F15490   1.399   6.802   8.113 -0.5522 -0.3681  0.7186
  141OSM   H12F15491   1.503   6.806   8.153 -0.0820 -1.3738 -0.3650
  141OSM   H12G15492   1.362   6.698   8.119 -1.8602 -0.0631 -1.2918
  141OSM   C13F15493   1.310   6.906   8.183 -0.0176  0.0594  0.6057
  141OSM   H13F15494   1.221   6.922   8.118 -0.0187 -1.6356  0.1437
  141OSM   H13G15495   1.356   7.007   8.183 -0.7144  0.4290 -1.2369
  141OSM   C14F15496   1.267   6.870   8.324  0.3034 -0.1856 -0.0372
  141OSM   H14F15497   1.350   6.865   8.398  0.3521  2.0813  0.1048
  141OSM   H14G15498   1.221   6.769   8.316  1.7105 -0.9209  0.6536
  141OSM   C15F15499   1.162   6.967   8.386 -0.1875 -0.7050 -0.0173
  141OSM   H15F15500   1.062   6.952   8.340 -1.0706 -3.5528  2.4880
  141OSM   H15G15501   1.200   7.071   8.380 -1.6059 -0.1259  0.5034
  141OSM   C16F15502   1.131   6.932   8.536 -0.0115 -0.5330 -0.1973
  141OSM   H16F15503   1.234   6.916   8.574  0.4541  2.5255  0.0913
  141OSM   H16G15504   1.073   6.837   8.537 -0.4518 -0.2769  1.4327
  141OSM   C17F15505   1.054   7.042   8.602 -0.6023 -0.5617 -0.0504
  141OSM   H17F15506   0.949   7.052   8.569 -1.5492 -2.1192  2.2189
  141OSM   H17G15507   1.104   7.140   8.583  0.1727 -0.4405  2.2301
  141OSM   C18F15508   1.052   7.038   8.757 -0.2631  1.2039 -0.2296
  141OSM   H18F15509   1.112   7.123   8.795  0.3153  0.1050  1.4490
  141OSM   H18G15510   1.087   6.941   8.799 -0.7381  0.2914 -1.8366
  141OSM   H18H15511   0.948   7.061   8.788 -1.0587 -2.0942 -0.0774
  142OSM      N15512   2.649   1.212   6.110  0.3403 -0.2342 -0.4651
  142OSM    C1515513   2.790   1.243   6.075  0.4114  0.4535  0.4106
  142OSM   H15A15514   2.856   1.235   6.160 -2.6872 -0.6220  2.9551
  142OSM   H15B15515   2.793   1.344   6.036 -0.3187 -0.1141 -1.2014
  142OSM   H15C15516   2.826   1.173   6.002 -0.3621 -0.3953  0.8286
  142OSM    C1415517   2.575   1.263   5.988  0.3658  0.3153  0.3110
  142OSM   H14A15518   2.469   1.244   5.999 -0.0298  0.0258 -3.0334
  142OSM   H14B15519   2.596   1.206   5.899  0.1075 -0.8149  0.9406
  142OSM   H14C15520   2.592   1.366   5.964 -0.0402  0.5251  0.8909
  142OSM    C1315521   2.641   1.066   6.127 -0.1197  0.0335 -0.2673
  142OSM   H13A15522   2.687   1.015   6.044 -0.6925 -0.5023 -0.2647
  142OSM   H13B15523   2.538   1.037   6.139 -0.1688  0.4326  0.3277
  142OSM   H13C15524   2.689   1.037   6.219  0.0203  0.7983 -0.0953
  142OSM    C1215525   2.593   1.289   6.232 -0.2182  0.7324 -0.4826
  142OSM   H12A15526   2.489   1.262   6.236  0.0329 -0.1696  1.2996
  142OSM   H12B15527   2.593   1.395   6.213  1.6227  0.6247 -1.2479
  142OSM    C1115528   2.659   1.269   6.367 -0.4821  0.3076  0.9141
  142OSM   H11A15529   2.627   1.354   6.430 -2.2873  0.8876 -0.6947
  142OSM   H11B15530   2.769   1.279   6.355 -0.2063 -0.7234  2.2829
  142OSM      P15531   2.713   1.041   6.498  0.2804  0.1236 -0.2769
  142OSM    O1315532   2.638   0.916   6.514  0.4265  0.7419  0.0673
  142OSM    O1415533   2.844   1.028   6.431  0.2838  0.4412  0.7827
  142OSM    O1115534   2.728   1.096   6.647  0.3016  0.3324  0.3491
  142OSM    O1215535   2.623   1.143   6.417 -0.2062 -0.1257 -0.6279
  142OSM    C1S15536   2.620   1.173   6.704  0.7237 -0.3234  0.4067
  142OSM    H1S15537   2.530   1.109   6.717 -0.8036  1.0771 -2.4375
  142OSM    H1T15538   2.592   1.262   6.643 -1.4479 -1.5618 -0.5418
  142OSM     NF15539   2.534   1.285   6.907 -1.0828 -0.0897 -0.0154
  142OSM    HNF15540   2.528   1.384   6.911 -1.7554 -0.0265 -1.7396
  142OSM    C2S15541   2.650   1.233   6.842 -0.9226  0.3200 -0.1293
  142OSM    H2S15542   2.684   1.146   6.902  0.5523 -0.1036 -1.5054
  142OSM    C3S15543   2.765   1.328   6.832 -0.5239 -0.0076  0.0172
  142OSM    H3S15544   2.737   1.404   6.755  1.2609 -0.8055 -1.5026
  142OSM     O315545   2.883   1.274   6.783 -0.3293 -0.2142  0.5899
  142OSM    HO315546   2.851   1.192   6.746  1.1706 -0.3627 -0.4699
  142OSM    C4S15547   2.795   1.394   6.963  0.1310  0.3195 -0.4092
  142OSM    H4S15548   2.761   1.498   6.967  0.0685  0.2616  0.6332
  142OSM    C5S15549   2.865   1.344   7.061 -0.4014  0.6422 -0.2883
  142OSM    H5S15550   2.922   1.251   7.046 -1.4499 -0.2790  1.1009
  142OSM    C6S15551   2.915   1.425   7.179  0.9327 -0.0448  0.3617
  142OSM    H6S15552   2.903   1.535   7.161 -1.5810 -0.1315  1.0578
  142OSM    H6T15553   3.025   1.419   7.171  0.9984  1.2790  0.0034
  142OSM    C7S15554   2.855   1.375   7.305 -0.2929  0.8433  0.0200
  142OSM    H7S15555   2.872   1.266   7.317  0.6249  0.9189 -0.5352
  142OSM    H7T15556   2.746   1.399   7.305 -0.9587 -1.5241  3.0067
  142OSM    C8S15557   2.928   1.445   7.427  0.2481  0.3265  0.6927
  142OSM    H8S15558   2.864   1.436   7.517  1.1612  3.2682  1.7445
  142OSM    H8T15559   2.924   1.555   7.417 -0.0941  0.4434  1.9255
  142OSM    C9S15560   3.066   1.398   7.455  0.3191  0.0239 -0.5868
  142OSM    H9S15561   3.129   1.409   7.364  0.6975 -0.2959 -0.3649
  142OSM    H9T15562   3.054   1.288   7.464 -0.1981  0.0774 -0.5867
  142OSM   C10S15563   3.136   1.468   7.575 -0.0672 -0.3186  0.2123
  142OSM   H10S15564   3.156   1.573   7.543  0.4269 -0.9022 -1.4728
  142OSM   H10T15565   3.232   1.414   7.590  0.4516  0.8555  1.3653
  142OSM   C11S15566   3.055   1.467   7.709  0.2884  0.1834 -0.2801
  142OSM   H11S15567   3.009   1.367   7.725 -3.0206  1.6636  0.3102
  142OSM   H11T15568   2.976   1.544   7.690 -1.6192 -0.8896  2.5650
  142OSM   C12S15569   3.126   1.517   7.828 -0.7491  0.2704 -0.6227
  142OSM   H12S15570   3.175   1.613   7.801  0.7576 -0.3364 -0.1418
  142OSM   H12T15571   3.205   1.448   7.864 -0.9224 -0.0147 -0.7792
  142OSM   C13S15572   3.025   1.551   7.936  1.1443 -0.7525  0.2446
  142OSM   H13S15573   3.008   1.456   7.990  0.2974 -1.9437 -1.9924
  142OSM   H13T15574   2.928   1.573   7.887  1.3921 -0.8164 -0.2821
  142OSM   C14S15575   3.051   1.654   8.040 -0.3279 -0.6766 -0.1256
  142OSM   H14S15576   3.017   1.756   8.012  0.7587 -0.4726 -0.7395
  142OSM   H14T15577   3.159   1.668   8.064 -1.0322  2.8207  1.6890
  142OSM   C15S15578   2.981   1.627   8.173  0.3708  0.1277  0.2118
  142OSM   H15S15579   3.009   1.524   8.205  1.6785 -0.6929 -3.1765
  142OSM   H15T15580   2.871   1.634   8.163  0.0627 -3.5745 -0.6263
  142OSM   C16S15581   3.033   1.723   8.282 -0.4978  0.0511 -0.0644
  142OSM   H16S15582   3.042   1.822   8.232  0.1832  0.3143  0.5436
  142OSM   H16T15583   3.136   1.692   8.311  0.0825  0.7942 -1.2355
  142OSM   C17S15584   2.931   1.735   8.406  0.0617  0.2863  0.8635
  142OSM   H17S15585   2.931   1.631   8.446 -2.3080 -0.3068 -0.5111
  142OSM   H17T15586   2.825   1.755   8.382  0.9671  1.9097 -2.2698
  142OSM   C18S15587   2.998   1.836   8.508  0.3332  0.2192 -0.0190
  142OSM   H18S15588   3.102   1.808   8.536  0.8720  0.8378 -1.3364
  142OSM   H18T15589   2.944   1.836   8.606  0.3498  0.3294 -0.0100
  142OSM   H18U15590   2.992   1.938   8.466 -1.0026 -0.3779 -1.3600
  142OSM    C1F15591   2.433   1.220   6.958  0.4287  0.9573  0.4124
  142OSM     OF15592   2.411   1.102   6.933 -0.6610 -0.0031  0.5822
  142OSM    C2F15593   2.334   1.302   7.038  0.1979  0.2553 -0.0424
  142OSM    H2F15594   2.234   1.290   6.991  0.4649  1.7372 -1.0416
  142OSM    H2G15595   2.366   1.408   7.041 -1.2416  0.7420 -0.7165
  142OSM    C3F15596   2.335   1.248   7.183 -0.4353  0.0626 -0.5598
  142OSM    H3F15597   2.312   1.140   7.188 -1.0886  0.0931 -2.1987
  142OSM    H3G15598   2.256   1.300   7.241 -0.1060 -0.7675  0.6690
  142OSM    C4F15599   2.469   1.274   7.256  0.1930 -0.1940  0.8978
  142OSM    H4F15600   2.506   1.376   7.232  0.8828 -0.5838  0.2516
  142OSM    H4G15601   2.544   1.197   7.226 -0.2560 -0.6854  1.0267
  142OSM    C5F15602   2.475   1.269   7.412  0.2575  0.5010  0.3214
  142OSM    H5F15603   2.573   1.224   7.439 -0.1411 -0.4981  0.1491
  142OSM    H5G15604   2.396   1.198   7.444  0.5023  0.3533  0.5994
  142OSM    C6F15605   2.491   1.400   7.495  0.1944 -0.0426  0.4354
  142OSM    H6F15606   2.400   1.462   7.476  1.0023  0.9085 -0.5035
  142OSM    H6G15607   2.574   1.454   7.446  0.4070 -1.6474 -1.0641
  142OSM    C7F15608   2.518   1.393   7.650 -0.4593 -0.2442 -0.0039
  142OSM    H7F15609   2.603   1.322   7.664 -0.2212 -0.0457 -0.4127
  142OSM    H7G15610   2.427   1.351   7.697 -2.1235  2.2489 -0.8365
  142OSM    C8F15611   2.573   1.527   7.704  0.0393 -0.2086  0.0366
  142OSM    H8F15612   2.491   1.601   7.707  1.0613  1.0244 -1.0408
  142OSM    H8G15613   2.647   1.572   7.634 -1.3641 -0.4714 -1.6762
  142OSM    C9F15614   2.641   1.500   7.835  0.5894  0.2862 -0.4428
  142OSM    H9F15615   2.749   1.488   7.820  1.2204 -0.1272  3.4548
  142OSM   C10F15616   2.587   1.496   7.956  0.3232 -0.1924  0.6727
  142OSM   H10F15617   2.648   1.448   8.033 -0.2865  1.3236  2.1454
  142OSM   C11F15618   2.441   1.525   7.997 -0.2567 -0.2093 -0.8835
  142OSM   H11F15619   2.422   1.427   8.046 -0.5674 -2.0216 -4.3217
  142OSM   H11G15620   2.386   1.531   7.901 -1.3732  0.0428 -0.2499
  142OSM   C12F15621   2.432   1.646   8.088 -0.4322 -0.5393 -0.6112
  142OSM   H12F15622   2.432   1.732   8.018 -1.2289 -0.6538 -0.7578
  142OSM   H12G15623   2.517   1.650   8.160 -2.0393  1.2254  1.3127
  142OSM   C13F15624   2.308   1.620   8.173  0.3109 -0.3972 -0.6466
  142OSM   H13F15625   2.320   1.531   8.238 -1.6922  0.5102  1.0833
  142OSM   H13G15626   2.232   1.600   8.093 -0.2308 -1.8625  0.1911
  142OSM   C14F15627   2.268   1.750   8.242  0.1226 -0.0195 -0.8172
  142OSM   H14F15628   2.164   1.742   8.281 -0.7084  2.5964 -2.2054
  142OSM   H14G15629   2.276   1.833   8.168  0.8044 -1.5993 -2.6033
  142OSM   C15F15630   2.370   1.782   8.354  0.1284 -0.3936 -0.3274
  142OSM   H15F15631   2.468   1.805   8.306  0.2825  1.3498  0.7426
  142OSM   H15G15632   2.377   1.698   8.427 -0.5725  1.2312  1.6762
  142OSM   C16F15633   2.325   1.897   8.448  0.8422  0.2897  0.3443
  142OSM   H16F15634   2.236   1.850   8.495 -1.2957  1.3237 -2.4267
  142OSM   H16G15635   2.291   1.985   8.390  0.0088  1.4525  2.5022
  142OSM   C17F15636   2.432   1.935   8.556  0.0026 -0.1098  0.8382
  142OSM   H17F15637   2.508   1.981   8.490 -0.8944 -0.4420 -0.4562
  142OSM   H17G15638   2.462   1.832   8.586 -1.6652 -1.6977 -2.4792
  142OSM   C18F15639   2.382   2.021   8.667  0.0395  0.1702 -0.3880
  142OSM   H18F15640   2.365   2.125   8.631 -3.3936 -0.8325 -2.1944
  142OSM   H18G15641   2.445   2.043   8.755  0.1081  2.5259 -0.9521
  142OSM   H18H15642   2.290   1.973   8.707  0.3461 -0.8965 -0.9098
  143OSM      N15643   2.121   3.917   6.176 -0.1960 -0.2048 -0.0971
  143OSM    C1515644   2.023   3.963   6.072 -0.1872  0.5797  0.2852
  143OSM   H15A15645   2.010   3.893   5.990  2.1670 -0.7621  0.9656
  143OSM   H15B15646   2.039   4.066   6.040  0.3057  0.2785 -0.4681
  143OSM   H15C15647   1.927   3.983   6.118 -0.0208  0.2674  0.7711
  143OSM    C1415648   2.251   3.912   6.108 -0.0901  0.1138  0.3871
  143OSM   H14A15649   2.262   3.995   6.040  1.4357  0.3926  0.9338
  143OSM   H14B15650   2.266   3.824   6.047  2.0982  0.8510 -0.2167
  143OSM   H14C15651   2.337   3.915   6.173 -0.8664 -0.0115  1.4497
  143OSM    C1315652   2.121   4.022   6.280 -0.1618 -0.1743 -0.6444
  143OSM   H13A15653   2.031   4.045   6.334  2.1829  0.3090  3.5058
  143OSM   H13B15654   2.161   4.115   6.242 -0.0987  1.1353  2.3401
  143OSM   H13C15655   2.187   3.992   6.361 -3.1663 -2.4521  1.1660
  143OSM    C1215656   2.089   3.780   6.229 -0.7910  0.3098 -0.6690
  143OSM   H12A15657   2.158   3.759   6.309  1.4453  1.9457 -2.0439
  143OSM   H12B15658   2.100   3.702   6.155  0.7397 -1.7825  1.6264
  143OSM    C1115659   1.953   3.765   6.293 -0.0256  0.3067 -0.1987
  143OSM   H11A15660   1.869   3.768   6.219 -1.6141 -2.4552  1.3089
  143OSM   H11B15661   1.921   3.841   6.367 -0.5829 -1.2836  1.2770
  143OSM      P15662   1.928   3.507   6.288  0.1020 -0.4139  0.5107
  143OSM    O1315663   1.807   3.504   6.207 -0.8777 -0.3477 -0.6659
  143OSM    O1415664   2.051   3.469   6.219  0.6550  0.3608  0.1863
  143OSM    O1115665   1.908   3.402   6.402  0.2685  0.3600  0.2401
  143OSM    O1215666   1.939   3.645   6.366 -0.0946  0.2120  0.0539
  143OSM    C1S15667   2.008   3.392   6.506  0.0419 -0.2671 -0.1545
  143OSM    H1S15668   2.088   3.469   6.502 -0.6792  0.5577  0.8286
  143OSM    H1T15669   2.060   3.294   6.504 -1.8216 -1.3021 -0.0279
  143OSM     NF15670   2.048   3.355   6.748 -0.0770 -0.0954 -0.0879
  143OSM    HNF15671   2.042   3.269   6.797  0.0454  0.4422  0.9162
  143OSM    C2S15672   1.944   3.396   6.650 -0.4020 -0.4402 -0.4905
  143OSM    H2S15673   1.906   3.499   6.664  1.0587  0.3790 -2.2143
  143OSM    C3S15674   1.821   3.304   6.663  0.7816 -0.9005  0.3345
  143OSM    H3S15675   1.860   3.202   6.645  1.5266 -0.5564 -0.0316
  143OSM     O315676   1.721   3.320   6.562  0.2728 -0.2959  0.1242
  143OSM    HO315677   1.780   3.345   6.491 -1.0417  0.9823 -0.5758
  143OSM    C4S15678   1.763   3.323   6.793 -0.4335 -0.0366  0.0068
  143OSM    H4S15679   1.720   3.423   6.806 -4.1874 -1.7632  2.4563
  143OSM    C5S15680   1.763   3.232   6.894  1.0221  0.6990  0.0815
  143OSM    H5S15681   1.817   3.137   6.878  0.2647  0.2051  0.4341
  143OSM    C6S15682   1.703   3.269   7.025 -0.4226 -0.1004 -0.1545
  143OSM    H6S15683   1.598   3.230   7.024 -0.6796  0.5820 -0.7466
  143OSM    H6T15684   1.700   3.379   7.039  1.0774  0.0518 -0.9254
  143OSM    C7S15685   1.772   3.214   7.149 -0.4494  0.3743  0.5609
  143OSM    H7S15686   1.757   3.105   7.135  1.4448 -0.2062  2.4801
  143OSM    H7T15687   1.724   3.252   7.242 -0.2348 -1.5270  1.4998
  143OSM    C8S15688   1.921   3.244   7.168 -0.2532 -0.0657  0.1672
  143OSM    H8S15689   1.943   3.353   7.160  1.3319 -0.5329 -3.2083
  143OSM    H8T15690   1.967   3.187   7.085 -0.5837  2.1356 -1.6228
  143OSM    C9S15691   1.968   3.187   7.303  0.2258  0.0496  0.7341
  143OSM    H9S15692   1.911   3.096   7.332  0.2506  0.3049  1.5990
  143OSM    H9T15693   1.930   3.254   7.383 -1.8455 -0.7304  0.4869
  143OSM   C10S15694   2.120   3.163   7.327  0.2152 -0.3122  0.0008
  143OSM   H10S15695   2.186   3.250   7.306 -0.6508  0.0104 -1.5312
  143OSM   H10T15696   2.158   3.089   7.253  0.5056  0.1772 -0.3436
  143OSM   C11S15697   2.161   3.092   7.462 -0.1877  0.1564 -0.2597
  143OSM   H11S15698   2.269   3.075   7.444  0.5596  1.3198  2.6522
  143OSM   H11T15699   2.107   2.995   7.470 -0.4732  0.3492  0.2160
  143OSM   C12S15700   2.153   3.176   7.583 -0.1352  0.7778  0.3506
  143OSM   H12S15701   2.046   3.195   7.604 -0.4610  1.9142 -2.0846
  143OSM   H12T15702   2.215   3.266   7.567  1.6878 -0.2032  1.5279
  143OSM   C13S15703   2.216   3.114   7.707  1.5486  0.1773 -0.0036
  143OSM   H13S15704   2.318   3.088   7.674  0.9036  0.8561 -2.8222
  143OSM   H13T15705   2.146   3.032   7.734  1.8822  0.0513  0.4918
  143OSM   C14S15706   2.206   3.217   7.827  0.9539 -0.5911  0.1486
  143OSM   H14S15707   2.099   3.245   7.837  1.0119 -0.7644  1.3542
  143OSM   H14T15708   2.257   3.312   7.801  0.7322 -0.3380  0.6351
  143OSM   C15S15709   2.264   3.183   7.962 -0.7931 -0.4962  0.6577
  143OSM   H15S15710   2.216   3.087   7.993 -0.1849 -1.3345 -0.8510
  143OSM   H15T15711   2.210   3.245   8.036 -0.2505  0.0493  0.5983
  143OSM   C16S15712   2.420   3.189   7.971 -0.5671 -0.4346  0.0250
  143OSM   H16S15713   2.465   3.277   7.921 -0.6437  0.5394  1.5881
  143OSM   H16T15714   2.460   3.100   7.919 -1.7051 -2.2207  2.0260
  143OSM   C17S15715   2.470   3.184   8.119  0.3976  0.2739  0.2190
  143OSM   H17S15716   2.579   3.168   8.129  0.4488 -0.0026 -0.6835
  143OSM   H17T15717   2.426   3.095   8.170  1.9763  0.5755  2.2584
  143OSM   C18S15718   2.417   3.303   8.200 -0.3247  0.2658 -0.0493
  143OSM   H18S15719   2.306   3.304   8.200 -0.3605  2.2310  0.7460
  143OSM   H18T15720   2.449   3.397   8.150  1.0152 -1.2450 -2.1452
  143OSM   H18U15721   2.457   3.286   8.303  1.9375 -2.1891 -1.2327
  143OSM    C1F15722   2.160   3.422   6.773 -0.4326 -0.8243  1.1168
  143OSM     OF15723   2.186   3.523   6.706  0.1519 -0.2240  0.4486
  143OSM    C2F15724   2.258   3.368   6.871  0.7217  0.1381  0.5376
  143OSM    H2F15725   2.284   3.264   6.842 -2.3851 -0.7040  0.4033
  143OSM    H2G15726   2.190   3.350   6.956 -0.7136 -0.8196 -0.7489
  143OSM    C3F15727   2.372   3.468   6.912  0.4789 -0.1391  0.3838
  143OSM    H3F15728   2.328   3.565   6.944  0.3138  1.3246 -3.6617
  143OSM    H3G15729   2.436   3.470   6.821  0.1223 -2.6968  0.0141
  143OSM    C4F15730   2.469   3.414   7.020  0.3586 -0.1169 -0.1727
  143OSM    H4F15731   2.551   3.487   7.036 -0.3883  0.6352  0.3116
  143OSM    H4G15732   2.509   3.319   6.979 -0.7917 -0.5891 -0.2118
  143OSM    C5F15733   2.404   3.376   7.155  0.5285 -0.5790 -0.3812
  143OSM    H5F15734   2.472   3.312   7.215 -0.5476 -1.0591  0.3654
  143OSM    H5G15735   2.308   3.321   7.146 -0.0835  0.2571  0.8015
  143OSM    C6F15736   2.390   3.501   7.243  0.5387  0.1604  0.5119
  143OSM    H6F15737   2.310   3.564   7.199 -0.7713 -0.0001  2.5312
  143OSM    H6G15738   2.482   3.563   7.237  1.2494 -0.7009  2.0514
  143OSM    C7F15739   2.378   3.480   7.395  0.8776 -0.0369 -0.5722
  143OSM    H7F15740   2.281   3.433   7.422  0.5512  2.1283  2.6688
  143OSM    H7G15741   2.379   3.583   7.437 -0.4510 -0.3046  0.1771
  143OSM    C8F15742   2.495   3.396   7.457 -0.0612 -0.4749 -0.5622
  143OSM    H8F15743   2.593   3.433   7.420  0.6650 -1.7961 -0.0359
  143OSM    H8G15744   2.489   3.288   7.433 -1.8002 -0.4495 -0.3314
  143OSM    C9F15745   2.494   3.407   7.611  0.2531  0.1291 -0.3082
  143OSM    H9F15746   2.394   3.399   7.657  1.1711  0.5222  1.8849
  143OSM   C10F15747   2.589   3.449   7.694 -0.4891  0.0245  0.3940
  143OSM   H10F15748   2.557   3.462   7.799 -0.4851 -1.7366  0.6515
  143OSM   C11F15749   2.731   3.478   7.657 -0.2051  0.3230  0.4910
  143OSM   H11F15750   2.738   3.582   7.618 -0.1357  0.1098 -0.0891
  143OSM   H11G15751   2.759   3.412   7.571  1.2525  0.2759  0.9749
  143OSM   C12F15752   2.838   3.471   7.766 -1.0487  0.5600 -0.6521
  143OSM   H12F15753   2.940   3.497   7.730  0.2490 -0.3809  2.0676
  143OSM   H12G15754   2.844   3.366   7.800  0.0046  1.0895  0.9051
  143OSM   C13F15755   2.805   3.568   7.881  0.3599  0.2529  0.5204
  143OSM   H13F15756   2.700   3.555   7.916  0.9078 -1.1664  1.7603
  143OSM   H13G15757   2.813   3.673   7.847  0.1434  1.0012  2.6393
  143OSM   C14F15758   2.907   3.547   7.996  0.5231  0.1668 -1.1428
  143OSM   H14F15759   3.009   3.563   7.955  1.0791  0.6001  0.3268
  143OSM   H14G15760   2.884   3.442   8.022 -0.2261 -0.4124 -3.8673
  143OSM   C15F15761   2.886   3.648   8.113 -0.6861 -0.0056 -0.7089
  143OSM   H15F15762   2.862   3.748   8.069  0.1527 -0.9354 -3.5331
  143OSM   H15G15763   2.987   3.664   8.158 -1.9083  1.0217  1.8848
  143OSM   C16F15764   2.793   3.608   8.227 -0.0484  0.3019 -0.3824
  143OSM   H16F15765   2.687   3.602   8.193  0.1914  1.1897 -1.3658
  143OSM   H16G15766   2.798   3.687   8.305 -0.0241 -0.5994  0.5384
  143OSM   C17F15767   2.826   3.472   8.301 -0.5667  0.6471  0.1611
  143OSM   H17F15768   2.788   3.389   8.238  0.7621 -1.0111  1.4307
  143OSM   H17G15769   2.756   3.464   8.388 -1.0213 -0.7628 -0.3092
  143OSM   C18F15770   2.967   3.433   8.342 -0.0534  0.0306  0.2595
  143OSM   H18F15771   2.956   3.334   8.392 -1.7716 -0.4135 -0.8777
  143OSM   H18G15772   3.017   3.509   8.405 -0.8295  0.8261 -0.0693
  143OSM   H18H15773   3.033   3.428   8.253 -0.8613  0.6877 -0.3952
  144OSM      N15774   1.633   2.288   5.945  0.6389 -0.0996  0.4405
  144OSM    C1515775   1.540   2.175   5.979 -0.7777 -0.2224 -0.2708
  144OSM   H15A15776   1.576   2.080   5.943  0.9942 -0.4339  1.8221
  144OSM   H15B15777   1.445   2.182   5.929 -1.2968 -1.8561  0.4058
  144OSM   H15C15778   1.529   2.167   6.086 -0.1704 -0.3641 -0.2155
  144OSM    C1415779   1.671   2.281   5.801 -0.1994  0.3296 -0.6224
  144OSM   H14A15780   1.728   2.193   5.774 -1.0371 -0.7190  0.8681
  144OSM   H14B15781   1.736   2.362   5.774 -0.0566  0.2310 -0.5785
  144OSM   H14C15782   1.583   2.270   5.740 -1.5312 -2.5701  1.5305
  144OSM    C1315783   1.544   2.416   5.962 -0.2568 -0.0019 -0.0737
  144OSM   H13A15784   1.519   2.434   6.065 -0.6527  4.4122 -0.7788
  144OSM   H13B15785   1.449   2.404   5.911 -0.0151 -0.3672 -0.4554
  144OSM   H13C15786   1.597   2.504   5.929 -1.6059 -0.0042 -2.4909
  144OSM    C1215787   1.750   2.292   6.035  0.0353  0.1302  0.0317
  144OSM   H12A15788   1.724   2.280   6.139  0.6180  1.2268  0.3072
  144OSM   H12B15789   1.802   2.386   6.029 -2.1868  1.4537  0.3855
  144OSM    C1115790   1.853   2.182   6.018  0.6830 -0.1339  0.2356
  144OSM   H11A15791   1.875   2.167   5.910 -0.5785  0.4634 -0.1159
  144OSM   H11B15792   1.810   2.089   6.060  0.7542  0.3079  1.3313
  144OSM      P15793   2.088   2.131   6.123 -0.2069  0.2859  0.2705
  144OSM    O1315794   2.081   2.001   6.058  0.4257 -0.6780 -0.0113
  144OSM    O1415795   2.210   2.203   6.106 -0.8406  0.5222 -0.6039
  144OSM    O1115796   2.078   2.098   6.276 -0.3670 -0.2314 -0.3826
  144OSM    O1215797   1.967   2.224   6.085 -0.3708  0.3628 -0.5548
  144OSM    C1S15798   1.967   2.126   6.355  0.1254 -0.4214 -0.1771
  144OSM    H1S15799   1.886   2.050   6.349  1.2022 -1.4693 -3.4000
  144OSM    H1T15800   1.922   2.226   6.338 -1.2118 -1.3161 -2.2710
  144OSM     NF15801   1.907   2.083   6.601  0.3862  0.5101 -1.0873
  144OSM    HNF15802   1.871   2.159   6.654 -0.2151 -0.2883 -0.3179
  144OSM    C2S15803   2.016   2.107   6.511  0.1150 -0.4779 -0.1175
  144OSM    H2S15804   2.077   2.014   6.512  0.0462 -0.6024 -2.6795
  144OSM    C3S15805   2.098   2.233   6.552 -0.6186  0.4405  0.0540
  144OSM    H3S15806   2.028   2.319   6.551 -1.6479 -0.3529 -2.2732
  144OSM     O315807   2.212   2.252   6.464  0.3458 -0.0112  0.6723
  144OSM    HO315808   2.205   2.174   6.408 -0.9027 -1.3270  2.5676
  144OSM    C4S15809   2.161   2.227   6.690  0.2490  0.1636 -0.4087
  144OSM    H4S15810   2.255   2.172   6.704  1.0673  2.0501  2.2831
  144OSM    C5S15811   2.118   2.292   6.799 -0.3027  0.4396 -0.7998
  144OSM    H5S15812   2.024   2.349   6.802  0.4849  1.7505  0.6897
  144OSM    C6S15813   2.180   2.291   6.937  0.1348  0.2880 -0.1237
  144OSM    H6S15814   2.091   2.303   7.003  0.2639  2.1550 -0.2209
  144OSM    H6T15815   2.237   2.386   6.943  0.8538 -0.2203  1.5687
  144OSM    C7S15816   2.272   2.174   6.964 -0.0756 -0.2524  0.8509
  144OSM    H7S15817   2.365   2.196   6.908 -0.2302 -0.2979  0.5766
  144OSM    H7T15818   2.221   2.079   6.935 -1.7235  1.0207 -0.6202
  144OSM    C8S15819   2.310   2.151   7.111  0.2045 -0.1297 -1.0050
  144OSM    H8S15820   2.373   2.237   7.144  0.2028 -0.3478 -0.4109
  144OSM    H8T15821   2.369   2.058   7.123 -2.2851 -1.5947  0.9496
  144OSM    C9S15822   2.187   2.143   7.202 -0.2383  0.4880  0.8071
  144OSM    H9S15823   2.111   2.070   7.165  1.6311 -0.3146 -1.7540
  144OSM    H9T15824   2.149   2.247   7.195 -1.6020  0.0052  0.5618
  144OSM   C10S15825   2.230   2.126   7.347 -0.0449  0.9779  0.2422
  144OSM   H10S15826   2.312   2.194   7.378 -3.3200  5.2111  0.5274
  144OSM   H10T15827   2.257   2.021   7.367  0.0124  0.9790  0.1720
  144OSM   C11S15828   2.114   2.180   7.444  0.0166  0.1252 -0.1941
  144OSM   H11S15829   2.016   2.145   7.406 -0.3944  0.8758  0.1638
  144OSM   H11T15830   2.103   2.291   7.443 -0.6570  0.0895 -2.5319
  144OSM   C12S15831   2.148   2.142   7.588 -0.9785  0.2519  0.3123
  144OSM   H12S15832   2.132   2.032   7.597  1.5715 -0.0645  2.1084
  144OSM   H12T15833   2.076   2.202   7.646 -1.0775  1.5295 -1.0932
  144OSM   C13S15834   2.286   2.177   7.650 -0.2974 -0.1096  0.3612
  144OSM   H13S15835   2.304   2.284   7.625 -2.0059 -0.4546 -2.7553
  144OSM   H13T15836   2.373   2.127   7.602 -0.5076 -1.1658  1.0393
  144OSM   C14S15837   2.294   2.141   7.798 -0.4931  0.0608  0.5602
  144OSM   H14S15838   2.298   2.030   7.807 -0.4223  0.1211  1.3069
  144OSM   H14T15839   2.210   2.183   7.856  0.4320  0.6315  1.5079
  144OSM   C15S15840   2.422   2.194   7.870 -0.0092  0.7645  0.8895
  144OSM   H15S15841   2.404   2.301   7.893 -0.0280  0.4431  2.5162
  144OSM   H15T15842   2.512   2.184   7.805  0.4701  1.6227  1.4056
  144OSM   C16S15843   2.449   2.112   8.002 -0.2450 -1.0243  0.2380
  144OSM   H16S15844   2.436   2.002   7.986 -1.9356 -0.8716  0.4044
  144OSM   H16T15845   2.367   2.150   8.065  0.7614  2.8389 -0.5402
  144OSM   C17S15846   2.578   2.152   8.073  0.5153  0.0084 -0.1565
  144OSM   H17S15847   2.567   2.257   8.109  2.8505  0.4002 -0.4370
  144OSM   H17T15848   2.654   2.159   7.992 -1.2862 -1.1577 -2.0475
  144OSM   C18S15849   2.615   2.050   8.184 -0.1137 -0.0334  0.0506
  144OSM   H18S15850   2.602   1.952   8.135 -1.2518 -0.0759  0.4261
  144OSM   H18T15851   2.547   2.086   8.264 -0.3271  0.2827 -0.2695
  144OSM   H18U15852   2.719   2.066   8.221  0.2896  2.7092 -1.9264
  144OSM    C1F15853   1.846   1.969   6.606  0.7670  0.3969  0.2701
  144OSM     OF15854   1.871   1.885   6.514  0.0140 -0.8836 -0.7340
  144OSM    C2F15855   1.740   1.942   6.711  0.5834  0.4022 -0.5848
  144OSM    H2F15856   1.715   1.834   6.721 -2.3281  1.0273 -0.0879
  144OSM    H2G15857   1.648   1.994   6.679  0.1578  0.8510  1.2449
  144OSM    C3F15858   1.783   1.977   6.860 -0.0651 -0.2512  0.4734
  144OSM    H3F15859   1.831   2.077   6.863 -1.2472  0.3915 -0.7352
  144OSM    H3G15860   1.859   1.905   6.897  1.3803  0.1000 -1.6059
  144OSM    C4F15861   1.660   1.973   6.957  0.0552  0.1332  0.2520
  144OSM    H4F15862   1.654   1.867   6.987 -1.7319 -0.4800 -1.9906
  144OSM    H4G15863   1.569   1.993   6.897 -0.0510 -1.6290 -0.2183
  144OSM    C5F15864   1.699   2.068   7.069  0.3944 -0.0520 -0.8536
  144OSM    H5F15865   1.694   2.173   7.035  3.8736  0.3951 -0.3022
  144OSM    H5G15866   1.802   2.051   7.105  0.0600  0.8037  0.5778
  144OSM    C6F15867   1.620   2.040   7.196 -0.6552  0.4225 -0.1668
  144OSM    H6F15868   1.607   1.931   7.216  1.8987  0.0656 -0.1588
  144OSM    H6G15869   1.515   2.075   7.184 -1.3505 -0.9336  1.5546
  144OSM    C7F15870   1.677   2.111   7.314  0.2164  0.2382 -0.2033
  144OSM    H7F15871   1.709   2.216   7.295 -0.0323  0.0528 -1.8332
  144OSM    H7G15872   1.771   2.059   7.343 -0.5233 -1.0169  0.0023
  144OSM    C8F15873   1.579   2.114   7.433  0.1990 -0.9659  0.0567
  144OSM    H8F15874   1.475   2.114   7.392 -0.0503 -0.1197  0.6667
  144OSM    H8G15875   1.588   2.204   7.497 -1.8006  0.3607 -1.4002
  144OSM    C9F15876   1.582   1.986   7.509 -0.2167 -0.5092  0.0285
  144OSM    H9F15877   1.513   1.904   7.484  0.0027 -1.3600  1.9835
  144OSM   C10F15878   1.662   1.955   7.613 -0.4963  0.2314  0.7315
  144OSM   H10F15879   1.658   1.858   7.665  2.0654 -0.0956  0.4790
  144OSM   C11F15880   1.763   2.044   7.679  0.0615  0.0102  0.1182
  144OSM   H11F15881   1.764   2.152   7.653  1.4287 -0.0363 -0.0796
  144OSM   H11G15882   1.869   2.024   7.654  0.6890  2.9846  0.0154
  144OSM   C12F15883   1.742   2.042   7.831 -0.0675 -0.1908  0.3887
  144OSM   H12F15884   1.740   1.934   7.857 -1.4555 -0.9611 -2.4645
  144OSM   H12G15885   1.646   2.089   7.863 -0.5961 -0.5225 -0.6655
  144OSM   C13F15886   1.866   2.110   7.894  0.3169 -0.5022  0.1740
  144OSM   H13F15887   1.868   2.219   7.871  2.6700 -0.4372  0.4526
  144OSM   H13G15888   1.958   2.066   7.850  1.7910  1.4825  1.1455
  144OSM   C14F15889   1.881   2.099   8.050  0.2531  0.5794 -0.1409
  144OSM   H14F15890   1.922   1.996   8.058  0.5525  0.7278  0.2832
  144OSM   H14G15891   1.779   2.098   8.095  0.5445 -0.0512  0.5328
  144OSM   C15F15892   1.969   2.201   8.124  0.4772  0.2237  0.1738
  144OSM   H15F15893   1.921   2.301   8.138  0.2968 -0.0751  1.9365
  144OSM   H15G15894   2.056   2.228   8.061 -0.8009  1.0348 -1.3095
  144OSM   C16F15895   2.022   2.148   8.262 -0.3406  0.0238  0.0787
  144OSM   H16F15896   2.096   2.074   8.225  0.5905  1.7823 -1.7190
  144OSM   H16G15897   1.944   2.099   8.324 -0.1815  2.7175  2.6414
  144OSM   C17F15898   2.081   2.252   8.359  0.2249 -0.5000  0.6785
  144OSM   H17F15899   2.118   2.188   8.442 -1.3764 -2.7535 -0.2307
  144OSM   H17G15900   2.008   2.324   8.401  1.8538  1.6578 -0.0402
  144OSM   C18F15901   2.194   2.328   8.292  0.3498 -0.1257 -0.2358
  144OSM   H18F15902   2.270   2.263   8.244 -2.3403 -2.0066 -2.2752
  144OSM   H18G15903   2.234   2.402   8.365  0.7316 -3.4750  3.2769
  144OSM   H18H15904   2.159   2.390   8.207 -2.3343  2.3411  2.4096
  145SAPE     N15905   3.996   3.695  10.718 -0.5393 -0.3062  0.0432
  145SAPE   HN115906   3.952   3.601  10.716 -0.2826 -0.4237 -0.8715
  145SAPE   HN215907   4.044   3.706  10.809 -1.0399  0.1459  0.2606
  145SAPE   HN315908   3.922   3.765  10.700 -1.9989 -1.6551  0.5877
  145SAPE   C1215909   4.114   3.704  10.616  0.8424  0.0499  0.4373
  145SAPE  H12A15910   4.164   3.799  10.644 -1.2610  0.8062  1.8540
  145SAPE  H12B15911   4.078   3.707  10.511  1.7417  0.4732  0.1276
  145SAPE   C1115912   4.193   3.573  10.634  0.1258  0.1952 -0.1137
  145SAPE  H11A15913   4.247   3.571  10.730 -2.6527 -0.2051  1.5703
  145SAPE  H11B15914   4.270   3.560  10.555  1.4985 -2.9007  1.5398
  145SAPE     P15915   4.150   3.316  10.688 -0.2691 -0.1341  0.6788
  145SAPE   O1315916   4.247   3.329  10.798 -0.0208  0.8466 -0.1252
  145SAPE   O1415917   4.034   3.230  10.720  0.0482 -0.3819  0.1203
  145SAPE   O1215918   4.106   3.459  10.641  0.0083 -0.3374  0.0328
  145SAPE   O1115919   4.228   3.261  10.563 -0.0676  0.0710  0.5769
  145SAPE    C115920   4.314   3.152  10.570  0.2684  0.7064  0.2317
  145SAPE    HA15921   4.408   3.181  10.519  0.4385  1.7025  1.0551
  145SAPE    HB15922   4.346   3.131  10.675  0.5738 -4.2244 -0.6221
  145SAPE    C215923   4.263   3.015  10.503  0.6186 -0.0125  0.0328
  145SAPE    HS15924   4.350   2.958  10.465  1.1193  0.1661  0.8843
  145SAPE   O2115925   4.169   3.043  10.396 -0.2889  0.3552 -0.1412
  145SAPE   C2115926   4.217   3.121  10.300 -0.4896  0.2183 -0.1163
  145SAPE   O2215927   4.334   3.160  10.292  0.2847  0.4589  0.1315
  145SAPE   C2215928   4.099   3.160  10.221  0.5456  0.5688 -0.0510
  145SAPE   H2R15929   4.042   3.229  10.286 -0.0790 -1.0715  1.1969
  145SAPE   H2S15930   4.132   3.214  10.129 -0.6710  0.4216 -0.5894
  145SAPE    C315931   4.197   2.927  10.617 -0.4074  0.2490  0.1480
  145SAPE    HX15932   4.117   2.989  10.662 -0.6753  0.1105 -0.1404
  145SAPE    HY15933   4.281   2.910  10.688  1.7227  0.4178 -2.2023
  145SAPE   O3115934   4.158   2.803  10.555  0.0921  0.1148  0.1984
  145SAPE   C3115935   4.028   2.781  10.554 -0.0761  0.8108 -0.4676
  145SAPE   O3215936   3.945   2.859  10.601 -0.3340 -0.1457  0.0073
  145SAPE   C3215937   3.980   2.654  10.486 -1.1137 -0.2387 -0.2923
  145SAPE   H2X15938   3.900   2.613  10.550 -0.2049 -1.5773  0.0326
  145SAPE   H2Y15939   4.066   2.584  10.482  0.5383  1.5863  0.8779
  145SAPE   C2315940   4.015   3.034  10.174 -0.6708  0.2420  0.8147
  145SAPE   H3R15941   3.967   2.986  10.262 -0.3787  0.3479  1.0363
  145SAPE   H3S15942   4.074   2.956  10.122  0.2857 -0.0133  2.2184
  145SAPE   C2415943   3.914   3.088  10.063 -1.0699 -0.0002  0.0170
  145SAPE   H4R15944   3.880   3.002  10.001  1.1325 -0.1794 -1.0601
  145SAPE   H4S15945   3.967   3.152   9.990  0.8515  0.1965  1.4834
  145SAPE   C2515946   3.801   3.166  10.119  0.7461 -0.5795  0.3583
  145SAPE   H5R15947   3.742   3.109  10.193  1.9530 -0.8530  1.1276
  145SAPE   C2615948   3.745   3.291  10.086  0.1886 -0.1981 -0.5183
  145SAPE   H6R15949   3.660   3.340  10.134  1.0059  1.4668 -0.6778
  145SAPE   C2715950   3.800   3.372   9.973  0.0069 -0.0457  0.1631
  145SAPE   H7R15951   3.877   3.332   9.903 -0.5822  1.6111 -1.4900
  145SAPE   H7S15952   3.843   3.470  10.001 -0.7004  1.0636 -2.3419
  145SAPE   C2815953   3.681   3.414   9.890 -0.0002  0.7413 -0.6781
  145SAPE   H8R15954   3.599   3.455   9.951 -0.1946  0.2015 -0.5660
  145SAPE   C2915955   3.660   3.413   9.758 -0.1146  0.7270  0.3807
  145SAPE   H9R15956   3.560   3.445   9.726 -1.3364 -1.8087  1.3997
  145SAPE  C21015957   3.758   3.378   9.648  0.7029 -0.1689  0.1831
  145SAPE  H10R15958   3.845   3.446   9.659 -0.4444  1.2320  1.1559
  145SAPE  H10S15959   3.715   3.421   9.555  2.5835  0.0605 -0.6260
  145SAPE  C21115960   3.798   3.233   9.621  0.1953 -0.1540 -0.1784
  145SAPE  H11R15961   3.890   3.211   9.678 -0.6237 -0.9476  0.8896
  145SAPE  C21215962   3.726   3.138   9.557  0.3529  0.0544 -0.3641
  145SAPE  H12R15963   3.753   3.031   9.552 -1.3014 -0.5365  1.9036
  145SAPE  C21315964   3.589   3.157   9.498  0.2321 -0.2768  0.1969
  145SAPE  H13R15965   3.594   3.256   9.447  0.9478 -0.7639 -0.7043
  145SAPE  H13S15966   3.510   3.153   9.576 -1.2980 -0.1845 -1.2627
  145SAPE  C21415967   3.561   3.051   9.392  0.0428 -0.2962 -0.2687
  145SAPE  H14R15968   3.486   2.973   9.411  0.5765 -0.6761  0.3509
  145SAPE  C21515969   3.633   3.043   9.278 -0.0205 -0.1325  0.0690
  145SAPE  H15R15970   3.628   2.952   9.217 -1.0455  0.4575 -0.7773
  145SAPE  C21615971   3.738   3.141   9.228  0.1570  0.8916 -0.4539
  145SAPE  H16R15972   3.837   3.093   9.243  1.9201  3.8410 -1.6973
  145SAPE  H16S15973   3.750   3.236   9.284 -0.6205  0.2872  0.7902
  145SAPE  C21715974   3.722   3.172   9.084  0.0567 -0.5488  0.0280
  145SAPE  H17R15975   3.688   3.082   9.028 -2.8015 -0.2402  1.0915
  145SAPE  H17S15976   3.825   3.197   9.051  0.1102 -1.2784 -0.3745
  145SAPE  C21815977   3.625   3.289   9.057 -0.3680  0.4815 -0.4347
  145SAPE  H18R15978   3.687   3.375   9.093  3.0660 -1.3860 -1.4772
  145SAPE  H18S15979   3.525   3.268   9.101 -0.1587 -1.0171 -0.6453
  145SAPE  C21915980   3.593   3.323   8.909  0.0954  0.7979 -0.6669
  145SAPE  H19R15981   3.510   3.396   8.919 -1.8592 -1.5385  1.6927
  145SAPE  H19S15982   3.553   3.233   8.858 -0.2313  1.2018 -1.1358
  145SAPE  C22015983   3.704   3.369   8.818 -0.5448  0.0426 -0.5397
  145SAPE  H20R15984   3.786   3.295   8.810  1.8040  2.5019 -0.6552
  145SAPE  H20S15985   3.749   3.467   8.846  1.4728 -1.1158  0.5082
  145SAPE  H20T15986   3.663   3.382   8.716 -2.5174 -0.5442  0.1124
  145SAPE   C3315987   3.917   2.669  10.342  0.5152 -0.5197  0.1287
  145SAPE   H3X15988   3.859   2.764  10.341  1.6504  0.2273  1.6822
  145SAPE   H3Y15989   3.849   2.583  10.319  0.1231 -0.0248 -0.6405
  145SAPE   C3415990   4.026   2.683  10.234  0.6448 -0.2388  0.1648
  145SAPE   H4X15991   4.079   2.585  10.234 -1.6490 -1.5952 -1.6149
  145SAPE   H4Y15992   4.091   2.772  10.247  1.4692 -0.9201  0.7682
  145SAPE   C3515993   3.957   2.690  10.094  0.8128 -0.4581  0.1093
  145SAPE   H5X15994   3.891   2.779  10.089  1.4095  0.0353  0.7553
  145SAPE   H5Y15995   3.895   2.598  10.083 -0.9977  0.9229 -1.8817
  145SAPE   C3615996   4.057   2.702   9.974 -0.3261  0.7065  0.2320
  145SAPE   H6X15997   4.109   2.604   9.961 -1.9789  0.0187 -1.6063
  145SAPE   H6Y15998   4.120   2.790   9.999 -0.3895  0.8819 -0.2265
  145SAPE   C3715999   3.984   2.720   9.840  0.1952  0.0553  0.1687
  145SAPE   H7X16000   3.910   2.803   9.849  0.3912  0.6515 -2.6847
  145SAPE   H7Y16001   3.915   2.634   9.827 -1.4074  1.1625  1.0625
  145SAPE   C3816002   4.062   2.731   9.714  0.1965  0.0432 -0.4647
  145SAPE   H8X16003   3.996   2.700   9.630 -2.4279  1.6544  0.8687
  145SAPE   H8Y16004   4.142   2.654   9.714  1.1983  1.0279  0.9475
  145SAPE   C3916005   4.142   2.859   9.683  0.3116 -0.5646  0.3868
  145SAPE   H9X16006   4.210   2.842   9.597 -0.5966  0.4050 -0.5596
  145SAPE   H9Y16007   4.200   2.876   9.775 -0.1084 -0.0824  0.5693
  145SAPE  C31016008   4.057   2.980   9.656  0.1290 -0.3413 -0.1107
  145SAPE  H10X16009   3.987   3.014   9.735  1.1185 -0.9833  1.0720
  145SAPE  H10Y16010   3.987   2.966   9.570  0.5691 -0.6663 -0.4156
  145SAPE  C31116011   4.138   3.108   9.623 -0.1878  0.5500 -0.6194
  145SAPE  H11X16012   4.207   3.124   9.708 -0.7243  1.8179 -0.3984
  145SAPE  H11Y16013   4.066   3.193   9.614 -1.8709 -0.6162  1.1573
  145SAPE  C31216014   4.226   3.098   9.502 -0.4177  0.2551  0.4925
  145SAPE  H12X16015   4.296   3.012   9.513 -3.2918 -2.2509  0.5618
  145SAPE  H12Y16016   4.288   3.189   9.485  1.5014 -1.6151 -3.7159
  145SAPE  C31316017   4.134   3.081   9.380 -0.3743 -0.2864 -0.2359
  145SAPE  H13X16018   4.049   3.151   9.395 -0.0763  0.1854 -0.7181
  145SAPE  H13Y16019   4.098   2.976   9.374  1.6098 -1.1259  1.1243
  145SAPE  C31416020   4.202   3.109   9.243 -0.3476  0.8444 -0.1120
  145SAPE  H14X16021   4.270   3.029   9.207  0.0117  1.1958 -0.2352
  145SAPE  H14Y16022   4.267   3.198   9.256  2.1745 -1.1269  1.6599
  145SAPE  C31516023   4.102   3.127   9.131 -0.4569 -0.3407 -0.3273
  145SAPE  H15X16024   4.050   3.222   9.153  0.6592  0.1661  0.1760
  145SAPE  H15Y16025   4.031   3.042   9.142 -1.3449  0.4987  0.4992
  145SAPE  C31616026   4.165   3.141   8.997 -0.4169  0.4600  1.4951
  145SAPE  H16X16027   4.224   3.050   8.970  1.5689  2.2169 -0.4561
  145SAPE  H16Y16028   4.241   3.222   9.004 -0.1400  0.3028  0.4807
  145SAPE  C31716029   4.062   3.165   8.884 -0.2613  0.3000 -0.4312
  145SAPE  H17X16030   3.994   3.248   8.911 -2.6777 -1.1415 -1.7356
  145SAPE  H17Y16031   3.992   3.078   8.887 -0.6044  0.4665 -2.4512
  145SAPE  C31816032   4.122   3.183   8.754  0.5241  0.8969  0.0438
  145SAPE  H18X16033   4.036   3.190   8.684 -0.8033 -0.1037  1.4987
  145SAPE  H18Y16034   4.187   3.098   8.725  1.0687  0.3977  2.4960
  145SAPE  H18Z16035   4.175   3.281   8.752  2.9348 -0.2799  1.2235
  146SAPE     N16036   2.841   4.727  11.112 -0.0768 -0.7750  0.2391
  146SAPE   HN116037   2.887   4.635  11.094  0.1631 -0.3202 -1.7208
  146SAPE   HN216038   2.809   4.750  11.208 -0.7710  2.4155 -0.6400
  146SAPE   HN316039   2.754   4.726  11.056  1.5872 -0.7858 -2.4995
  146SAPE   C1216040   2.929   4.846  11.068  0.0940  0.5464  0.4571
  146SAPE  H12A16041   2.999   4.860  11.154 -0.2841 -0.7779  1.0120
  146SAPE  H12B16042   2.858   4.929  11.046 -1.2825 -0.9035 -0.8221
  146SAPE   C1116043   3.006   4.794  10.947 -0.0111 -0.4098  0.2469
  146SAPE  H11A16044   3.077   4.869  10.907 -0.1360  1.4176  3.2218
  146SAPE  H11B16045   2.923   4.780  10.874  0.2144  0.4753 -0.1914
  146SAPE     P16046   3.130   4.589  10.849 -0.0769 -0.2726 -0.1625
  146SAPE   O1316047   3.266   4.642  10.820  0.4594 -0.1238 -0.3631
  146SAPE   O1416048   3.118   4.451  10.879 -0.0823 -0.1652 -0.7948
  146SAPE   O1216049   3.069   4.671  10.972 -0.5849  0.9275 -0.2237
  146SAPE   O1116050   3.037   4.619  10.727  0.8524  0.7393 -0.5572
  146SAPE    C116051   2.904   4.560  10.716 -0.3851  0.8378  0.2443
  146SAPE    HA16052   2.900   4.451  10.734 -2.1038  0.7656 -0.3473
  146SAPE    HB16053   2.829   4.593  10.791 -1.0402  1.2999 -0.5942
  146SAPE    C216054   2.858   4.603  10.577  0.6692 -0.3899 -0.0731
  146SAPE    HS16055   2.762   4.556  10.547  0.2344  0.5305 -0.1594
  146SAPE   O2116056   2.956   4.584  10.473 -0.0088  0.1368 -0.1443
  146SAPE   C2116057   2.984   4.456  10.455 -0.8140 -0.1053 -0.5866
  146SAPE   O2216058   2.922   4.357  10.495 -0.1658 -0.4423  0.0826
  146SAPE   C2216059   3.111   4.458  10.362 -0.2319 -0.3353  0.4899
  146SAPE   H2R16060   3.102   4.542  10.290  0.7533 -2.0624 -1.7565
  146SAPE   H2S16061   3.197   4.472  10.432 -1.6893  0.7892  2.1544
  146SAPE    C316062   2.833   4.760  10.577  0.2841  0.5369 -0.4284
  146SAPE    HX16063   2.910   4.815  10.635 -2.6839  2.4313  2.0322
  146SAPE    HY16064   2.746   4.757  10.646  0.6459 -1.8921  0.0311
  146SAPE   O3116065   2.823   4.820  10.445  0.5486 -0.1885 -1.0470
  146SAPE   C3116066   2.698   4.818  10.395 -0.7551  0.5364  1.0601
  146SAPE   O3216067   2.614   4.737  10.438  0.1748  0.8324 -0.0224
  146SAPE   C3216068   2.686   4.916  10.282  0.0300  0.3854 -0.2895
  146SAPE   H2X16069   2.771   4.894  10.213  0.3836 -1.0449  0.5478
  146SAPE   H2Y16070   2.699   5.019  10.320  0.9737 -0.2712  1.2614
  146SAPE   C2316071   3.129   4.329  10.272 -0.3272 -0.5061  0.2414
  146SAPE   H3R16072   3.137   4.241  10.339  0.4625  1.6986  3.2776
  146SAPE   H3S16073   3.219   4.341  10.209 -0.0908 -1.9213  0.2910
  146SAPE   C2416074   3.008   4.309  10.164 -0.3005 -0.0322  0.2310
  146SAPE   H4R16075   2.984   4.409  10.120  0.8806  0.7560  1.3091
  146SAPE   H4S16076   2.926   4.278  10.232  0.2664  0.8431  1.3536
  146SAPE   C2516077   3.041   4.200  10.063  0.3156  0.0449  1.3370
  146SAPE   H5R16078   3.097   4.114  10.101  1.1572 -0.4532 -0.9072
  146SAPE   C2616079   3.025   4.199   9.929  0.1262  0.4757  0.3028
  146SAPE   H6R16080   3.042   4.107   9.872  3.6455  1.4508 -0.5059
  146SAPE   C2716081   2.963   4.309   9.847  0.2707  0.2206  0.1733
  146SAPE   H7R16082   3.029   4.325   9.759  0.1882 -0.8806 -0.1096
  146SAPE   H7S16083   2.962   4.406   9.901  0.9159  0.6815 -0.6191
  146SAPE   C2816084   2.819   4.274   9.813 -0.2672  0.1553  0.1314
  146SAPE   H8R16085   2.752   4.280   9.900  1.7752 -0.0425  1.8061
  146SAPE   C2916086   2.775   4.232   9.689 -0.1862 -0.2012  0.2786
  146SAPE   H9R16087   2.671   4.197   9.681 -0.1181 -0.5138  0.7120
  146SAPE  C21016088   2.865   4.204   9.571  0.2493  0.3036 -0.2113
  146SAPE  H10R16089   2.908   4.105   9.597 -0.4350 -0.1906 -0.9337
  146SAPE  H10S16090   2.950   4.276   9.577  1.5125 -1.0238 -1.5317
  146SAPE  C21116091   2.804   4.208   9.432  0.0178 -0.1624 -0.8997
  146SAPE  H11R16092   2.831   4.119   9.374  0.0959 -1.6352  1.3076
  146SAPE  C21216093   2.731   4.302   9.373 -1.3414 -0.3976  0.7061
  146SAPE  H12R16094   2.703   4.303   9.267 -0.8436  2.3535  0.5246
  146SAPE  C21316095   2.699   4.436   9.445 -0.3080  0.4568 -0.0116
  146SAPE  H13R16096   2.703   4.519   9.372 -0.4699  1.3804  0.9935
  146SAPE  H13S16097   2.775   4.468   9.520  0.8170 -0.6161 -0.6540
  146SAPE  C21416098   2.550   4.431   9.498  0.1533 -0.0899 -0.1126
  146SAPE  H14R16099   2.501   4.333   9.487 -0.2640  0.2359 -1.3130
  146SAPE  C21516100   2.500   4.533   9.570  0.1179  0.7494 -0.1180
  146SAPE  H15R16101   2.401   4.515   9.615  0.2110 -1.0411 -0.5374
  146SAPE  C21616102   2.569   4.656   9.597 -0.2704  0.5476  0.0050
  146SAPE  H16R16103   2.501   4.741   9.577 -2.1097 -1.1783 -1.5875
  146SAPE  H16S16104   2.649   4.682   9.524 -0.1011  1.4955  0.5124
  146SAPE  C21716105   2.623   4.657   9.736 -0.6291  0.1594 -0.2417
  146SAPE  H17R16106   2.648   4.763   9.757 -0.1406  0.6861 -3.0691
  146SAPE  H17S16107   2.720   4.604   9.734 -0.2249  0.8662 -2.3418
  146SAPE  C21816108   2.540   4.600   9.848  0.0863 -0.3605 -0.2315
  146SAPE  H18R16109   2.514   4.493   9.832  1.7619 -0.9785  0.9936
  146SAPE  H18S16110   2.439   4.648   9.841  0.4792  0.3437 -1.3666
  146SAPE  C21916111   2.593   4.628   9.987 -0.9201 -0.1351  0.0339
  146SAPE  H19R16112   2.510   4.638  10.060 -1.3713  0.3933 -0.5384
  146SAPE  H19S16113   2.636   4.730   9.981 -0.7520 -0.1923  0.2590
  146SAPE  C22016114   2.698   4.530  10.030 -0.1104 -0.6647  0.6611
  146SAPE  H20R16115   2.659   4.427  10.046  1.8584 -2.0131 -2.3521
  146SAPE  H20S16116   2.749   4.565  10.123  1.0583  0.3543 -0.3273
  146SAPE  H20T16117   2.772   4.514   9.950  1.6701  0.0528  2.0872
  146SAPE   C3316118   2.566   4.913  10.193 -0.9944  0.0578 -0.4748
  146SAPE   H3X16119   2.526   4.810  10.199  0.5997 -0.6376 -1.4108
  146SAPE   H3Y16120   2.593   4.941  10.089  0.6627  4.1331  0.8282
  146SAPE   C3416121   2.461   5.018  10.226  0.5502 -0.0427 -0.0791
  146SAPE   H4X16122   2.505   5.119  10.214  0.0490 -0.0299 -2.1004
  146SAPE   H4Y16123   2.442   5.008  10.335  0.1828  0.2630 -0.1098
  146SAPE   C3516124   2.327   5.004  10.149  0.3433  0.4492  0.0472
  146SAPE   H5X16125   2.274   5.100  10.164 -1.2185 -0.3118 -0.4248
  146SAPE   H5Y16126   2.255   4.934  10.195  1.0267  0.9351  1.9372
  146SAPE   C3616127   2.345   4.995   9.995 -0.0826 -0.4686  0.2515
  146SAPE   H6X16128   2.367   4.900   9.942  1.8373  0.0878 -0.0476
  146SAPE   H6Y16129   2.418   5.074   9.968 -2.1177  1.8500  1.1344
  146SAPE   C3716130   2.213   5.035   9.923 -0.0631 -0.2555 -0.1773
  146SAPE   H7X16131   2.173   5.133   9.958  1.2842  0.3310 -0.1961
  146SAPE   H7Y16132   2.139   4.958   9.952  2.2938 -1.8499  2.0397
  146SAPE   C3816133   2.223   5.048   9.770  0.2248  0.3965  0.1665
  146SAPE   H8X16134   2.285   4.961   9.739 -2.7527 -2.0633  0.5896
  146SAPE   H8Y16135   2.287   5.129   9.730 -0.6171  1.4690  0.9427
  146SAPE   C3916136   2.089   5.037   9.703  0.1786  0.4959  0.2699
  146SAPE   H9X16137   2.039   5.132   9.731  1.1998  1.4217 -0.9541
  146SAPE   H9Y16138   2.036   4.949   9.746  5.2667 -2.6042  1.0220
  146SAPE  C31016139   2.101   5.021   9.550  0.1382 -0.3948  0.3390
  146SAPE  H10X16140   2.158   4.927   9.533 -3.1818 -2.5093  0.1404
  146SAPE  H10Y16141   2.163   5.103   9.506 -2.0374 -0.0922 -2.4674
  146SAPE  C31116142   1.962   5.005   9.488  0.3279 -0.4524  0.3664
  146SAPE  H11X16143   1.913   5.100   9.518 -0.3070 -0.8804  0.7057
  146SAPE  H11Y16144   1.918   4.908   9.520  2.5220 -1.7776 -0.3880
  146SAPE  C31216145   1.949   5.019   9.336 -0.8301 -0.1385 -0.0835
  146SAPE  H12X16146   2.030   4.963   9.285 -1.3399 -1.1037  0.1553
  146SAPE  H12Y16147   1.977   5.126   9.322 -0.1474 -0.4199 -0.9540
  146SAPE  C31316148   1.809   5.016   9.270  0.3429  0.2004 -0.3014
  146SAPE  H13X16149   1.748   5.073   9.343  1.0577  0.0543  0.4305
  146SAPE  H13Y16150   1.762   4.915   9.273  1.2998 -0.2592  2.7186
  146SAPE  C31416151   1.795   5.081   9.132 -0.3094 -0.1223  0.0207
  146SAPE  H14X16152   1.814   5.189   9.152  1.6163 -0.5482  0.7243
  146SAPE  H14Y16153   1.690   5.070   9.099 -0.6635  0.0413  1.0752
  146SAPE  C31516154   1.888   5.024   9.032 -0.0005 -0.3142  0.5147
  146SAPE  H15X16155   1.874   4.914   9.042  1.9603 -0.5671  0.7994
  146SAPE  H15Y16156   1.986   5.052   9.075  1.0662  1.6190 -2.7929
  146SAPE  C31616157   1.872   5.086   8.887 -0.1122 -0.1047 -0.0015
  146SAPE  H16X16158   1.885   5.197   8.883  1.3681 -0.2397  0.5744
  146SAPE  H16Y16159   1.768   5.062   8.857 -0.1433 -1.0297  0.7927
  146SAPE  C31716160   1.956   5.013   8.778  0.5255 -0.2069  0.1843
  146SAPE  H17X16161   1.951   4.903   8.793  1.0295 -0.3743 -0.8088
  146SAPE  H17Y16162   2.063   5.033   8.798  1.0426 -3.1840  0.8420
  146SAPE  C31816163   1.922   5.056   8.639 -0.4338  0.2190 -0.1632
  146SAPE  H18X16164   1.977   4.994   8.565  0.7805 -1.0701  1.7258
  146SAPE  H18Y16165   1.934   5.167   8.631 -1.0791  0.2844 -0.2872
  146SAPE  H18Z16166   1.815   5.038   8.616 -0.0650 -0.9477 -1.0249
  147SAPE     N16167   5.879   5.231  11.110 -0.4143  0.4070  0.0832
  147SAPE   HN116168   5.892   5.176  11.023  1.9795  0.3776  0.3973
  147SAPE   HN216169   5.970   5.274  11.133 -0.1068  0.2587 -0.8446
  147SAPE   HN316170   5.866   5.163  11.188  1.1429  1.2273  1.1280
  147SAPE   C1216171   5.765   5.323  11.119 -0.5099  0.4633 -0.5940
  147SAPE  H12A16172   5.762   5.366  11.222 -0.4332  1.3840 -0.9722
  147SAPE  H12B16173   5.669   5.270  11.097  0.0837 -0.6721 -0.5134
  147SAPE   C1116174   5.771   5.427  11.001  0.7169  1.2587 -1.0151
  147SAPE  H11A16175   5.680   5.488  11.017 -0.2176 -0.6847  1.8918
  147SAPE  H11B16176   5.759   5.375  10.903 -1.4812  0.0039 -0.1638
  147SAPE     P16177   5.922   5.628  10.927 -0.1414  0.1890  0.1850
  147SAPE   O1316178   5.804   5.722  10.928 -1.4030 -0.2786 -0.2723
  147SAPE   O1416179   6.049   5.678  10.973 -0.0767  0.2513  0.9203
  147SAPE   O1216180   5.888   5.507  11.013  0.4747  0.6609  0.7451
  147SAPE   O1116181   5.958   5.571  10.777 -0.5416  0.0578 -0.2314
  147SAPE    C116182   6.028   5.447  10.761  0.1811  0.3382  0.1137
  147SAPE    HA16183   6.136   5.465  10.781 -0.3594  1.4916  2.4120
  147SAPE    HB16184   5.994   5.368  10.832 -1.6632  2.7438  2.0642
  147SAPE    C216185   5.993   5.383  10.623  0.4166 -0.3816  0.0126
  147SAPE    HS16186   6.033   5.280  10.613 -0.3315 -0.6477 -0.3578
  147SAPE   O2116187   6.039   5.466  10.523  0.0994 -0.2363  0.2159
  147SAPE   C2116188   6.171   5.477  10.492 -0.0700  0.2207  1.1701
  147SAPE   O2216189   6.261   5.420  10.550  0.1865  0.0749 -0.1076
  147SAPE   C2216190   6.189   5.588  10.379  0.3405  0.7596 -0.5684
  147SAPE   H2R16191   6.132   5.680  10.404  1.7409  1.8556 -1.2576
  147SAPE   H2S16192   6.295   5.620  10.390  0.4220  0.2641  0.1860
  147SAPE    C316193   5.834   5.380  10.608  0.2829  0.1825 -0.6515
  147SAPE    HX16194   5.801   5.482  10.636  0.9974  0.7453 -1.7544
  147SAPE    HY16195   5.800   5.298  10.675  1.0254  1.8101  1.8429
  147SAPE   O3116196   5.793   5.344  10.473  0.2050 -0.1641 -0.0587
  147SAPE   C3116197   5.675   5.385  10.436  0.0883 -0.7539  0.4770
  147SAPE   O3216198   5.593   5.436  10.513  0.3359 -0.2882  0.2272
  147SAPE   C3216199   5.661   5.353  10.284 -0.5148 -0.4474  1.0748
  147SAPE   H2X16200   5.705   5.252  10.274 -1.5882 -1.0349  2.0709
  147SAPE   H2Y16201   5.722   5.426  10.226 -3.4960  1.0930 -0.3889
  147SAPE   C2316202   6.159   5.543  10.240 -0.2145 -0.4099 -0.2065
  147SAPE   H3R16203   6.224   5.458  10.212  0.7951  0.3558 -0.2498
  147SAPE   H3S16204   6.190   5.623  10.169  1.0221 -1.6086 -1.0493
  147SAPE   C2416205   6.006   5.528  10.220  0.2137 -0.3575 -0.0706
  147SAPE   H4R16206   5.964   5.461  10.297 -2.4133  1.4337  0.1707
  147SAPE   H4S16207   5.994   5.474  10.123  1.7968 -0.0786 -0.4646
  147SAPE   C2516208   5.929   5.661  10.226 -1.0543  0.1325  0.1425
  147SAPE   H5R16209   5.898   5.698  10.324 -2.9244 -1.4029  0.1790
  147SAPE   C2616210   5.889   5.734  10.118 -1.3101 -0.0174  0.6023
  147SAPE   H6R16211   5.835   5.829  10.130  1.8343  1.6590  3.3147
  147SAPE   C2716212   5.912   5.699   9.969  0.0188 -0.2906  0.2326
  147SAPE   H7R16213   6.000   5.633   9.955 -0.8406 -1.6998  1.2266
  147SAPE   H7S16214   5.925   5.791   9.909 -1.0239 -1.9704 -2.7638
  147SAPE   C2816215   5.789   5.623   9.912  0.4957  0.1091  0.7491
  147SAPE   H8R16216   5.714   5.604   9.990  2.0790 -1.8427  1.8977
  147SAPE   C2916217   5.767   5.582   9.790  0.0853 -0.6022  0.6340
  147SAPE   H9R16218   5.669   5.549   9.754  0.3910 -0.0365 -0.7750
  147SAPE  C21016219   5.871   5.599   9.680  0.1907  0.5357 -0.5590
  147SAPE  H10R16220   5.865   5.515   9.608 -2.6959  0.6300 -0.5244
  147SAPE  H10S16221   5.971   5.615   9.727  0.5829  0.6862 -1.4248
  147SAPE  C21116222   5.843   5.731   9.609  0.1487 -0.0329 -0.1091
  147SAPE  H11R16223   5.837   5.822   9.670  0.5871  1.3314 -1.9962
  147SAPE  C21216224   5.837   5.745   9.477 -0.1033 -0.2120  0.1893
  147SAPE  H12R16225   5.826   5.846   9.434  0.9534  0.7059  1.9675
  147SAPE  C21316226   5.846   5.634   9.377  0.4186  0.5083 -0.5104
  147SAPE  H13R16227   5.778   5.655   9.291  0.5641  0.3932 -0.6546
  147SAPE  H13S16228   5.798   5.544   9.420 -0.8599  0.4191 -2.0125
  147SAPE  C21416229   5.985   5.596   9.332  0.0638 -0.1334  0.2514
  147SAPE  H14R16230   6.060   5.595   9.413  0.5424  2.3049 -0.0888
  147SAPE  C21516231   6.022   5.577   9.205  0.1566 -1.2566  0.0484
  147SAPE  H15R16232   6.125   5.540   9.198  1.0815  1.1750 -0.1384
  147SAPE  C21616233   5.920   5.584   9.088 -0.2015 -0.3578  0.2366
  147SAPE  H16R16234   5.876   5.686   9.082  3.6515  1.4045 -2.1165
  147SAPE  H16S16235   5.837   5.510   9.092  0.6059 -1.2369  3.1966
  147SAPE  C21716236   6.004   5.565   8.956 -0.1068  0.9400 -0.9550
  147SAPE  H17R16237   6.041   5.460   8.955 -2.3672  0.0980 -0.7958
  147SAPE  H17S16238   6.092   5.634   8.959  0.3095  0.3814 -0.0352
  147SAPE  C21816239   5.930   5.568   8.820  0.5293  0.0472  0.4713
  147SAPE  H18R16240   5.891   5.672   8.814 -0.9348 -0.4486  0.8125
  147SAPE  H18S16241   5.836   5.510   8.836 -0.2562  0.8664 -0.9554
  147SAPE  C21916242   6.003   5.535   8.693 -0.9005  0.2221  0.7752
  147SAPE  H19R16243   5.948   5.544   8.597  0.6953  4.3333  0.0697
  147SAPE  H19S16244   6.032   5.429   8.712 -2.1484 -0.4647 -0.9252
  147SAPE  C22016245   6.138   5.619   8.675  0.7041 -0.3290  0.5640
  147SAPE  H20R16246   6.113   5.727   8.670 -2.7638 -0.9403  1.5099
  147SAPE  H20S16247   6.172   5.592   8.573  0.7485  1.4765  0.0611
  147SAPE  H20T16248   6.217   5.620   8.753  0.3998  1.5445  0.9102
  147SAPE   C3316249   5.518   5.371  10.231  0.1323 -1.0311  0.0528
  147SAPE   H3X16250   5.492   5.475  10.201  2.1434 -0.9611 -1.6739
  147SAPE   H3Y16251   5.449   5.341  10.313  0.4111 -0.7272  0.4014
  147SAPE   C3416252   5.484   5.289  10.103  0.4996  0.4111  0.8600
  147SAPE   H4X16253   5.511   5.184  10.126  2.1799  0.6335  0.0727
  147SAPE   H4Y16254   5.554   5.329  10.026 -0.7740 -0.7704 -0.9556
  147SAPE   C3516255   5.351   5.302  10.034  0.2936 -0.6202 -0.2015
  147SAPE   H5X16256   5.330   5.408  10.008  1.0869 -0.2998  0.4338
  147SAPE   H5Y16257   5.272   5.270  10.105 -0.6223  1.3505 -0.2592
  147SAPE   C3616258   5.338   5.208   9.915 -0.2556  0.1168  0.9021
  147SAPE   H6X16259   5.233   5.216   9.878  0.6730 -0.1759 -2.0588
  147SAPE   H6Y16260   5.346   5.103   9.953 -0.9048 -0.8827 -1.5205
  147SAPE   C3716261   5.435   5.226   9.796 -0.4132  0.0208  0.4515
  147SAPE   H7X16262   5.420   5.141   9.727  0.5704  0.3572 -0.1840
  147SAPE   H7Y16263   5.531   5.194   9.842 -0.5589 -0.3094  0.5319
  147SAPE   C3816264   5.440   5.353   9.713  0.0057 -0.0135 -0.4980
  147SAPE   H8X16265   5.543   5.390   9.697 -0.2586  1.2838  0.6025
  147SAPE   H8Y16266   5.389   5.435   9.768 -1.1331 -0.8608 -0.2423
  147SAPE   C3916267   5.357   5.340   9.584  0.2427 -1.0083  1.0847
  147SAPE   H9X16268   5.253   5.367   9.609  0.5856  0.1963  1.2559
  147SAPE   H9Y16269   5.345   5.236   9.546 -0.6305 -0.7392  0.6147
  147SAPE  C31016270   5.403   5.429   9.462  0.2202  0.4392  0.2965
  147SAPE  H10X16271   5.416   5.534   9.497  1.7479  0.8180 -1.2344
  147SAPE  H10Y16272   5.324   5.419   9.384  2.9965 -1.6966 -2.5011
  147SAPE  C31116273   5.527   5.370   9.387  0.1797  0.0204 -0.3820
  147SAPE  H11X16274   5.499   5.262   9.378  1.4490 -0.3889  0.3817
  147SAPE  H11Y16275   5.630   5.377   9.429  2.0469  0.7026 -4.6352
  147SAPE  C31216276   5.546   5.432   9.249  0.4627 -0.3543 -0.8028
  147SAPE  H12X16277   5.594   5.532   9.262  1.9257 -1.3190  2.0722
  147SAPE  H12Y16278   5.447   5.464   9.209 -0.2647 -0.1235  1.0836
  147SAPE  C31316279   5.605   5.330   9.157  0.0215  0.0514 -0.5126
  147SAPE  H13X16280   5.679   5.264   9.208 -0.0381 -2.2662 -3.2211
  147SAPE  H13Y16281   5.663   5.391   9.085 -2.1180  2.7364 -0.0918
  147SAPE  C31416282   5.509   5.230   9.079  0.3237 -0.1428 -0.0305
  147SAPE  H14X16283   5.437   5.175   9.143  0.7650 -0.7328 -0.0364
  147SAPE  H14Y16284   5.579   5.156   9.034 -1.0290 -2.2144  1.1176
  147SAPE  C31516285   5.435   5.313   8.972  0.1437 -0.3610 -0.7216
  147SAPE  H15X16286   5.494   5.405   8.954 -0.4552  0.1736 -0.0088
  147SAPE  H15Y16287   5.337   5.348   9.011  0.5725  2.0464 -1.6593
  147SAPE  C31616288   5.423   5.235   8.843 -0.5451 -0.3522 -0.1284
  147SAPE  H16X16289   5.374   5.140   8.871 -0.4069  0.0526  1.6434
  147SAPE  H16Y16290   5.525   5.206   8.810 -0.4510 -1.0147  0.7099
  147SAPE  C31716291   5.350   5.301   8.719 -0.6175 -0.2613 -0.1997
  147SAPE  H17X16292   5.250   5.339   8.747 -0.6872  2.0644 -3.0940
  147SAPE  H17Y16293   5.334   5.238   8.629 -2.1856  0.9025 -0.7751
  147SAPE  C31816294   5.433   5.423   8.678 -0.2713  0.1422  0.1370
  147SAPE  H18X16295   5.430   5.490   8.767 -1.0111 -1.3430  1.2826
  147SAPE  H18Y16296   5.398   5.465   8.581  1.4001 -2.6510 -1.8118
  147SAPE  H18Z16297   5.539   5.398   8.661 -0.2260  1.0496 -1.0171
  148SAPE     N16298   6.245   2.866  10.929 -0.6226  0.3203  0.2871
  148SAPE   HN116299   6.162   2.855  10.868 -0.5296 -0.5245  0.3077
  148SAPE   HN216300   6.245   2.806  11.014  0.7620 -2.4235 -1.5169
  148SAPE   HN316301   6.240   2.960  10.975 -1.1058 -0.3841  1.7496
  148SAPE   C1216302   6.378   2.842  10.858 -0.5769  0.4918  0.7927
  148SAPE  H12A16303   6.445   2.798  10.935 -0.8399 -0.9157  0.2539
  148SAPE  H12B16304   6.425   2.941  10.838  2.9418 -0.8041  1.7822
  148SAPE   C1116305   6.365   2.745  10.733 -0.5072 -0.2122  0.7041
  148SAPE  H11A16306   6.465   2.704  10.711 -1.3660 -2.6414  1.0234
  148SAPE  H11B16307   6.326   2.817  10.658 -1.1439 -0.3539  0.8910
  148SAPE     P16308   6.133   2.603  10.722  0.4049 -0.4113 -0.4230
  148SAPE   O1316309   6.095   2.463  10.747  0.3793 -0.0423  0.5974
  148SAPE   O1416310   6.060   2.708  10.797  0.3469 -0.4738  0.3240
  148SAPE   O1216311   6.286   2.628  10.752  0.1589 -0.0398  0.1793
  148SAPE   O1116312   6.119   2.625  10.574  0.2086 -0.2639  0.3516
  148SAPE    C116313   6.203   2.589  10.460  0.0103  0.8218 -0.5498
  148SAPE    HA16314   6.306   2.629  10.472  0.0884  0.3514  0.4303
  148SAPE    HB16315   6.217   2.480  10.443  1.6756  1.1391 -1.4528
  148SAPE    C216316   6.148   2.649  10.329 -0.0015 -0.0453 -0.0962
  148SAPE    HS16317   6.220   2.631  10.246 -0.8116 -1.5598 -0.5117
  148SAPE   O2116318   6.122   2.794  10.343 -1.0833  0.1700 -0.3006
  148SAPE   C2116319   6.233   2.869  10.353  0.2467 -0.2484 -0.3675
  148SAPE   O2216320   6.350   2.833  10.341  0.4906 -0.1020  0.1128
  148SAPE   C2216321   6.197   3.014  10.387  0.8331 -0.7362  0.1995
  148SAPE   H2R16322   6.091   3.040  10.363  0.2712 -1.3742  1.8342
  148SAPE   H2S16323   6.212   3.021  10.497 -0.7407 -0.3313  0.4163
  148SAPE    C316324   6.009   2.582  10.306  0.1136 -0.6892 -0.5290
  148SAPE    HX16325   5.955   2.596  10.402  0.1214  0.3092 -0.6550
  148SAPE    HY16326   6.027   2.472  10.302 -0.0640 -0.6755 -2.2043
  148SAPE   O3116327   5.941   2.628  10.190  0.2811 -0.2793 -0.4303
  148SAPE   C3116328   5.812   2.670  10.208 -0.4595  0.1817 -0.3810
  148SAPE   O3216329   5.754   2.658  10.314  0.5513 -0.3770 -0.3957
  148SAPE   C3216330   5.773   2.745  10.082  0.2563 -0.3254  0.2979
  148SAPE   H2X16331   5.742   2.668  10.009 -3.5087  1.0594  0.1883
  148SAPE   H2Y16332   5.864   2.791  10.037  1.3204 -3.4878 -1.0067
  148SAPE   C2316333   6.290   3.116  10.311 -0.7541 -0.4073  0.4384
  148SAPE   H3R16334   6.397   3.086  10.306 -0.2330  1.4773 -2.1919
  148SAPE   H3S16335   6.283   3.200  10.382  2.2145  1.4774 -1.2736
  148SAPE   C2416336   6.222   3.149  10.173 -0.2975 -0.4798  0.1342
  148SAPE   H4R16337   6.269   3.241  10.132 -2.8741  0.4975 -0.7721
  148SAPE   H4S16338   6.115   3.175  10.177  0.1158  1.4405 -0.6154
  148SAPE   C2516339   6.249   3.041  10.076 -0.0538  0.1402 -0.0098
  148SAPE   H5R16340   6.316   2.958  10.105  1.4428  0.9104 -1.1262
  148SAPE   C2616341   6.188   3.029   9.954  0.5620 -0.2959 -0.0473
  148SAPE   H6R16342   6.214   2.941   9.893 -1.5508 -0.8737 -0.1826
  148SAPE   C2716343   6.091   3.123   9.882  0.1870 -0.6899 -0.4947
  148SAPE   H7R16344   6.121   3.119   9.775 -1.9117  1.4639 -1.2681
  148SAPE   H7S16345   6.117   3.226   9.915 -2.9315  0.1127 -0.2959
  148SAPE   C2816346   5.944   3.099   9.908 -0.2137  0.3963 -0.7814
  148SAPE   H8R16347   5.912   3.151   9.999  1.1649 -1.3416  0.7750
  148SAPE   C2916348   5.864   3.027   9.829  0.7817  0.3970 -0.1847
  148SAPE   H9R16349   5.759   3.014   9.861  0.5879 -0.6619 -1.2223
  148SAPE  C21016350   5.890   2.956   9.698  0.1411  0.4969  0.4359
  148SAPE  H10R16351   5.968   3.016   9.645 -0.8285  0.4833 -1.0714
  148SAPE  H10S16352   5.798   2.965   9.635 -0.8158 -0.6714  1.6264
  148SAPE  C21116353   5.920   2.807   9.697  0.3296 -0.1828 -0.1624
  148SAPE  H11R16354   5.917   2.757   9.795  0.8694 -2.6786 -1.3521
  148SAPE  C21216355   5.960   2.739   9.586  0.0164 -0.3365  1.0574
  148SAPE  H12R16356   5.986   2.632   9.586 -0.7574 -0.5571 -0.7382
  148SAPE  C21316357   5.976   2.802   9.447  0.2797  0.0405  0.1906
  148SAPE  H13R16358   6.076   2.786   9.402  0.6567 -0.1405  1.0880
  148SAPE  H13S16359   5.957   2.911   9.447  0.6936  0.1484  2.2713
  148SAPE  C21416360   5.859   2.739   9.376  0.0846  0.1302 -0.6034
  148SAPE  H14R16361   5.763   2.741   9.430  0.2534 -1.5652 -0.1740
  148SAPE  C21516362   5.868   2.694   9.252  0.1281 -0.4453 -0.5786
  148SAPE  H15R16363   5.778   2.663   9.196 -0.8765  1.3537 -0.0175
  148SAPE  C21616364   5.998   2.689   9.173  0.3999 -0.2415  0.6174
  148SAPE  H16R16365   6.072   2.639   9.240  0.6074  0.5024  0.9522
  148SAPE  H16S16366   6.028   2.791   9.140  0.2062 -0.6222 -0.8090
  148SAPE  C21716367   5.995   2.600   9.042  0.4378  0.4125  0.2088
  148SAPE  H17R16368   5.974   2.495   9.072  0.4817  0.4586  0.3961
  148SAPE  H17S16369   6.096   2.602   8.996  0.5171 -1.3949  0.2320
  148SAPE  C21816370   5.899   2.643   8.928  0.2535  0.0324  0.4542
  148SAPE  H18R16371   5.804   2.675   8.976  0.2621  0.3940  0.2275
  148SAPE  H18S16372   5.885   2.558   8.857  2.9819 -1.3077  1.3619
  148SAPE  C21916373   5.961   2.757   8.844  0.1394 -0.3593  0.0623
  148SAPE  H19R16374   6.061   2.726   8.805 -0.0882 -0.6038 -0.3360
  148SAPE  H19S16375   5.975   2.849   8.905 -0.5993  1.3842 -2.2509
  148SAPE  C22016376   5.882   2.787   8.714  0.5277  0.4440 -0.4740
  148SAPE  H20R16377   5.832   2.701   8.664  0.8720  1.1017 -2.0040
  148SAPE  H20S16378   5.942   2.839   8.636 -0.9528  2.0586 -0.6118
  148SAPE  H20T16379   5.793   2.849   8.741  0.3353  1.1760 -2.5655
  148SAPE   C3316380   5.653   2.845  10.096  1.2670 -0.5833 -0.5130
  148SAPE   H3X16381   5.562   2.808  10.146  1.4599 -1.7861 -0.9982
  148SAPE   H3Y16382   5.627   2.882   9.994  0.8988 -0.5355 -0.4008
  148SAPE   C3416383   5.693   2.960  10.190 -0.8316 -0.2908  0.3062
  148SAPE   H4X16384   5.779   3.015  10.144  0.5358 -1.4212  1.4188
  148SAPE   H4Y16385   5.724   2.931  10.292 -1.6583  1.8823  1.2376
  148SAPE   C3516386   5.577   3.064  10.234 -0.1155  0.2128 -0.0492
  148SAPE   H5X16387   5.615   3.153  10.288 -0.8783  1.6903 -1.8145
  148SAPE   H5Y16388   5.512   2.998  10.296  1.0011 -2.1809 -1.2741
  148SAPE   C3616389   5.484   3.118  10.119 -0.1018 -0.3935 -0.0006
  148SAPE   H6X16390   5.407   3.188  10.160 -1.7493 -1.5712 -0.9636
  148SAPE   H6Y16391   5.426   3.034  10.075  2.4581 -1.8494 -0.7697
  148SAPE   C3716392   5.559   3.203  10.015  0.0501  0.4784 -0.4648
  148SAPE   H7X16393   5.643   3.149   9.965  1.0784  1.4040  0.2168
  148SAPE   H7Y16394   5.609   3.275  10.083 -0.6306 -1.3818  2.1388
  148SAPE   C3816395   5.471   3.275   9.910  0.0373 -0.2338  0.0236
  148SAPE   H8X16396   5.402   3.345   9.962 -0.8954 -0.8897 -0.3094
  148SAPE   H8Y16397   5.401   3.206   9.858 -0.6606  0.1731  0.4104
  148SAPE   C3916398   5.549   3.348   9.796  0.1071  0.7324  0.7905
  148SAPE   H9X16399   5.600   3.267   9.739 -1.7746 -1.0916  1.5922
  148SAPE   H9Y16400   5.627   3.413   9.841  0.1695 -0.2150  2.1093
  148SAPE  C31016401   5.459   3.412   9.696 -0.0413 -0.1924  0.4030
  148SAPE  H10X16402   5.439   3.518   9.725  1.7557  0.7975 -1.7112
  148SAPE  H10Y16403   5.366   3.352   9.697 -0.1376 -0.0436  0.8264
  148SAPE  C31116404   5.530   3.426   9.562  0.2761 -0.8432  0.0857
  148SAPE  H11X16405   5.456   3.435   9.480 -1.3197 -1.9849  1.3587
  148SAPE  H11Y16406   5.583   3.331   9.539  1.1291 -0.6751  1.2839
  148SAPE  C31216407   5.628   3.547   9.546  0.0987 -0.3169 -0.3159
  148SAPE  H12X16408   5.717   3.525   9.610  0.2624 -1.2556 -0.8464
  148SAPE  H12Y16409   5.574   3.641   9.573 -2.3681 -1.1532 -2.0583
  148SAPE  C31316410   5.676   3.576   9.406 -0.2054 -0.0060 -0.7369
  148SAPE  H13X16411   5.723   3.485   9.363  0.6191  0.1461 -0.1797
  148SAPE  H13Y16412   5.751   3.657   9.418 -0.6374  0.0103  2.7602
  148SAPE  C31416413   5.568   3.622   9.309 -0.0010 -0.1894  0.0577
  148SAPE  H14X16414   5.498   3.678   9.374  1.3301 -0.3856  1.7407
  148SAPE  H14Y16415   5.518   3.533   9.267  1.2010 -0.5463 -0.6691
  148SAPE  C31516416   5.624   3.705   9.194 -0.6634 -0.1035 -0.3374
  148SAPE  H15X16417   5.685   3.638   9.129 -0.7298  0.8451 -1.4200
  148SAPE  H15Y16418   5.691   3.789   9.221  1.4836 -2.7358  3.2790
  148SAPE  C31616419   5.511   3.753   9.100  0.0675 -0.0191  0.3328
  148SAPE  H16X16420   5.439   3.814   9.159  2.3002  2.7414  0.4183
  148SAPE  H16Y16421   5.459   3.662   9.064 -0.0471  0.5270 -0.9526
  148SAPE  C31716422   5.559   3.848   8.984  0.6110 -0.0033 -0.7871
  148SAPE  H17X16423   5.652   3.817   8.933  1.8576  1.8574  0.2165
  148SAPE  H17Y16424   5.584   3.945   9.034 -0.6740  0.9326 -1.8834
  148SAPE  C31816425   5.456   3.874   8.880  0.4662 -0.2139  0.0717
  148SAPE  H18X16426   5.404   3.777   8.861  0.8685 -0.6939  1.3091
  148SAPE  H18Y16427   5.493   3.919   8.786 -1.9361 -0.7170 -1.2121
  148SAPE  H18Z16428   5.380   3.941   8.924  1.8670  0.2864  1.8240
  149SAPE     N16429   1.836   5.200  11.298  0.3035  0.5764  0.3358
  149SAPE   HN116430   1.864   5.107  11.337  2.2081  2.2016  3.2025
  149SAPE   HN216431   1.922   5.218  11.242 -0.2632 -1.0126 -1.1558
  149SAPE   HN316432   1.831   5.264  11.379  1.5131  1.4209 -0.2274
  149SAPE   C1216433   1.713   5.201  11.222 -0.4293 -0.5157  0.4671
  149SAPE  H12A16434   1.718   5.301  11.174  2.8900 -0.6418  0.3425
  149SAPE  H12B16435   1.622   5.193  11.286  0.1292  1.3825  1.6146
  149SAPE   C1116436   1.710   5.088  11.121  0.0776  0.4064 -0.4066
  149SAPE  H11A16437   1.793   5.097  11.047  0.1098 -0.3912 -0.4822
  149SAPE  H11B16438   1.615   5.095  11.063 -0.3617  1.5843  0.4354
  149SAPE     P16439   1.608   4.889  11.240 -0.0870  0.2934 -0.0100
  149SAPE   O1316440   1.658   4.805  11.354  0.5270 -0.4005 -0.5749
  149SAPE   O1416441   1.505   4.987  11.265  0.1502  0.3153 -0.0056
  149SAPE   O1216442   1.734   4.965  11.190  0.7692  0.5944 -0.2114
  149SAPE   O1116443   1.570   4.788  11.128  0.6088 -0.3680  0.7499
  149SAPE    C116444   1.666   4.688  11.091  0.1178 -0.0760 -0.0875
  149SAPE    HA16445   1.772   4.721  11.094  0.5078 -1.3254  0.9285
  149SAPE    HB16446   1.671   4.604  11.164  1.4472 -0.8371 -1.0098
  149SAPE    C216447   1.623   4.623  10.956  0.0437  0.5430 -0.0069
  149SAPE    HS16448   1.700   4.546  10.929 -0.3869  0.5615 -1.3865
  149SAPE   O2116449   1.610   4.715  10.850  0.2255 -0.9024  0.0133
  149SAPE   C2116450   1.723   4.770  10.814 -0.2161 -0.4503  0.4314
  149SAPE   O2216451   1.836   4.728  10.831  0.3758 -0.1329  0.0660
  149SAPE   C2216452   1.699   4.889  10.720 -0.9458 -0.4914 -0.4270
  149SAPE   H2R16453   1.664   4.975  10.780 -1.9047 -1.1386 -0.0385
  149SAPE   H2S16454   1.800   4.925  10.689 -1.0400  0.0958 -0.0562
  149SAPE    C316455   1.479   4.542  10.969  0.2629  0.1024 -0.3292
  149SAPE    HX16456   1.411   4.619  11.013  1.1285  1.8459 -1.8987
  149SAPE    HY16457   1.483   4.451  11.032 -1.0055  0.6186  0.5463
  149SAPE   O3116458   1.435   4.492  10.852  0.0251  0.0626  0.6819
  149SAPE   C3116459   1.346   4.564  10.782 -0.2809 -0.1135  0.4927
  149SAPE   O3216460   1.312   4.679  10.804  0.5706 -0.3788 -0.0569
  149SAPE   C3216461   1.313   4.471  10.658 -0.0899 -0.2531  0.7748
  149SAPE   H2X16462   1.279   4.373  10.697  2.9316 -1.1409  1.4165
  149SAPE   H2Y16463   1.408   4.465  10.601 -0.5745  0.3548 -0.1314
  149SAPE   C2316464   1.613   4.871  10.598  0.6913  0.6864 -0.1067
  149SAPE   H3R16465   1.575   4.967  10.557  3.3910  1.3939 -1.2259
  149SAPE   H3S16466   1.516   4.824  10.623 -0.9680  2.8782 -1.9047
  149SAPE   C2416467   1.683   4.793  10.486 -0.1144  0.1316  0.3156
  149SAPE   H4R16468   1.722   4.700  10.531 -2.2884 -1.3393 -0.7027
  149SAPE   H4S16469   1.774   4.839  10.441 -1.3012  1.7751 -0.4985
  149SAPE   C2516470   1.579   4.782  10.376 -0.1548  0.8615 -0.6447
  149SAPE   H5R16471   1.514   4.694  10.390 -1.0614  1.6434  0.2297
  149SAPE   C2616472   1.566   4.865  10.276 -0.3446 -0.1942 -0.0910
  149SAPE   H6R16473   1.482   4.844  10.207 -0.4051 -2.1793  0.5360
  149SAPE   C2716474   1.662   4.974  10.243 -0.2568 -0.6159 -0.1396
  149SAPE   H7R16475   1.721   4.996  10.333  1.1085 -2.4525 -0.5251
  149SAPE   H7S16476   1.601   5.065  10.223 -1.4296 -1.3021  0.1885
  149SAPE   C2816477   1.766   4.941  10.137  0.1322 -0.4095  0.0586
  149SAPE   H8R16478   1.866   4.975  10.167  0.3162 -2.4162  1.9673
  149SAPE   C2916479   1.748   4.879  10.016 -0.7133  0.8380 -0.2628
  149SAPE   H9R16480   1.843   4.858   9.965 -2.0658 -2.2701 -1.7795
  149SAPE  C21016481   1.625   4.830   9.947  0.3249  0.7764 -0.3419
  149SAPE  H10R16482   1.535   4.849  10.009 -0.2237 -3.0142  0.2519
  149SAPE  H10S16483   1.627   4.719   9.948 -0.9054  0.6646 -2.7642
  149SAPE  C21116484   1.619   4.901   9.813 -0.3237  0.4649 -0.5160
  149SAPE  H11R16485   1.604   5.010   9.819 -0.6627  0.3625  0.7870
  149SAPE  C21216486   1.641   4.856   9.690  0.4083  0.3476  0.0735
  149SAPE  H12R16487   1.639   4.927   9.605  2.0835  1.9600  1.3013
  149SAPE  C21316488   1.679   4.716   9.665  0.0978  0.0106  0.2490
  149SAPE  H13R16489   1.725   4.666   9.753 -2.4638 -0.7209  1.2760
  149SAPE  H13S16490   1.754   4.733   9.585 -0.6857  1.3590 -0.2321
  149SAPE  C21416491   1.561   4.639   9.617 -0.4095  0.1865  0.2238
  149SAPE  H14R16492   1.497   4.594   9.696 -0.7358  1.1360  0.5101
  149SAPE  C21516493   1.537   4.616   9.486 -0.1098 -0.5757 -0.2560
  149SAPE  H15R16494   1.473   4.530   9.461  1.4235 -1.1252 -2.5845
  149SAPE  C21616495   1.622   4.673   9.376  0.7545  0.2395  0.2365
  149SAPE  H16R16496   1.713   4.611   9.368 -1.1975 -2.5231 -3.0438
  149SAPE  H16S16497   1.639   4.782   9.392 -0.8469  0.7760 -1.3216
  149SAPE  C21716498   1.560   4.662   9.235 -0.4988 -0.2205  0.5241
  149SAPE  H17R16499   1.635   4.709   9.167 -0.7288  2.8123  2.2053
  149SAPE  H17S16500   1.466   4.723   9.230 -0.3294 -0.0395 -1.0746
  149SAPE  C21816501   1.526   4.525   9.181 -0.6360 -0.0548 -0.7879
  149SAPE  H18R16502   1.433   4.500   9.237 -1.5590  0.5768 -2.0001
  149SAPE  H18S16503   1.609   4.455   9.205 -0.0444  0.2887 -1.7839
  149SAPE  C21916504   1.491   4.520   9.036 -0.1111 -0.3275 -0.1499
  149SAPE  H19R16505   1.576   4.564   8.981 -0.0819 -0.8346 -0.5217
  149SAPE  H19S16506   1.403   4.588   9.029 -0.7067 -1.1732 -1.3434
  149SAPE  C22016507   1.446   4.386   8.967 -0.9465  0.4619 -0.2394
  149SAPE  H20R16508   1.353   4.344   9.011 -1.4278 -0.5275 -2.0678
  149SAPE  H20S16509   1.525   4.309   8.969  0.3860  1.6746 -2.1895
  149SAPE  H20T16510   1.420   4.392   8.859  0.2706 -1.7153 -0.7165
  149SAPE   C3316511   1.199   4.515  10.567 -0.5464  0.1152 -0.2883
  149SAPE   H3X16512   1.234   4.606  10.515  2.7816 -0.1519  1.2243
  149SAPE   H3Y16513   1.102   4.513  10.622 -0.2712 -0.5696  0.1991
  149SAPE   C3416514   1.178   4.420  10.450  0.0078  0.4432  0.4445
  149SAPE   H4X16515   1.172   4.317  10.491  0.5894  0.5130  0.7248
  149SAPE   H4Y16516   1.266   4.421  10.383  1.1719 -0.1738  1.9065
  149SAPE   C3516517   1.049   4.459  10.376 -0.4045 -0.0398 -0.3444
  149SAPE   H5X16518   1.053   4.553  10.317 -1.1116  0.9107  1.0640
  149SAPE   H5Y16519   0.966   4.479  10.447 -0.1543  0.5272 -0.2057
  149SAPE   C3616520   0.988   4.352  10.277  0.2932  0.2787  0.0030
  149SAPE   H6X16521   0.899   4.391  10.224  1.4355  0.1692 -2.1105
  149SAPE   H6Y16522   0.964   4.267  10.343 -0.1490  1.0327  0.8322
  149SAPE   C3716523   1.076   4.303  10.164  0.1262 -0.2076  0.9994
  149SAPE   H7X16524   1.013   4.243  10.095  0.2610 -0.3593  1.0084
  149SAPE   H7Y16525   1.164   4.240  10.191 -0.2848 -0.7583  1.0515
  149SAPE   C3816526   1.141   4.426  10.096 -0.9962 -0.0422 -0.3738
  149SAPE   H8X16527   1.201   4.479  10.173 -1.0311  1.8719 -1.5988
  149SAPE   H8Y16528   1.075   4.506  10.056 -0.7409 -0.9010 -2.6701
  149SAPE   C3916529   1.225   4.386   9.976 -0.6108 -0.1636 -0.4935
  149SAPE   H9X16530   1.297   4.313  10.020  1.0241  1.5345 -0.2064
  149SAPE   H9Y16531   1.280   4.473   9.933 -1.4956  0.2489 -0.8040
  149SAPE  C31016532   1.154   4.319   9.856 -0.2833 -0.3376  0.3074
  149SAPE  H10X16533   1.124   4.213   9.871 -1.5822 -0.4535 -2.4541
  149SAPE  H10Y16534   1.228   4.299   9.775  0.8538 -0.1578  1.2811
  149SAPE  C31116535   1.033   4.394   9.802 -0.3262 -0.5165  0.4543
  149SAPE  H11X16536   1.044   4.503   9.783  1.6415 -1.0101 -1.6560
  149SAPE  H11Y16537   0.947   4.396   9.872 -0.4185  1.2069  0.3199
  149SAPE  C31216538   0.983   4.337   9.671 -0.0375  0.3249 -0.6050
  149SAPE  H12X16539   0.881   4.373   9.648 -0.2325  0.5708  0.6154
  149SAPE  H12Y16540   0.980   4.226   9.678 -2.2352  0.2429 -1.9329
  149SAPE  C31316541   1.065   4.359   9.538  0.2861  0.0074 -0.0079
  149SAPE  H13X16542   1.169   4.321   9.549  0.3972  0.3210  0.0349
  149SAPE  H13Y16543   1.058   4.469   9.522 -2.4482 -0.0836  0.1740
  149SAPE  C31416544   1.001   4.277   9.427 -1.1003 -0.4026  0.1166
  149SAPE  H14X16545   0.901   4.317   9.398 -0.9695  0.9501  1.3817
  149SAPE  H14Y16546   0.994   4.170   9.453  3.7064 -0.4568  2.2094
  149SAPE  C31516547   1.088   4.268   9.298  0.2904 -0.1979  0.1684
  149SAPE  H15X16548   1.196   4.274   9.324  0.6465  0.5457 -1.3887
  149SAPE  H15Y16549   1.051   4.346   9.229 -0.5138  0.4084  1.2551
  149SAPE  C31616550   1.065   4.124   9.245 -0.1861 -1.8281  0.3467
  149SAPE  H16X16551   0.957   4.105   9.225 -0.5160  0.3503 -0.2407
  149SAPE  H16Y16552   1.109   4.063   9.327 -0.3993  0.6749  2.4738
  149SAPE  C31716553   1.144   4.093   9.114 -0.6656  0.3978  0.3545
  149SAPE  H17X16554   1.147   3.983   9.100 -1.1869  0.1796  1.8748
  149SAPE  H17Y16555   1.253   4.115   9.116 -0.6243  0.7549 -2.2145
  149SAPE  C31816556   1.093   4.164   8.989  0.8043 -0.4087  0.2766
  149SAPE  H18X16557   1.105   4.274   8.996  2.7257 -0.4967 -0.9766
  149SAPE  H18Y16558   0.986   4.153   8.960  0.6798  3.7034 -1.4498
  149SAPE  H18Z16559   1.149   4.131   8.898  0.0947 -0.2407 -0.2306
  150SAPE     N16560   3.529   4.740  10.845 -0.8283 -0.0255 -0.2442
  150SAPE   HN116561   3.484   4.817  10.899  0.4189  1.9282 -1.8327
  150SAPE   HN216562   3.458   4.664  10.839 -0.5029 -0.3132 -0.5122
  150SAPE   HN316563   3.601   4.700  10.910  0.0195 -0.1196 -1.2140
  150SAPE   C1216564   3.589   4.797  10.720  0.8795 -0.2653  0.5483
  150SAPE  H12A16565   3.510   4.783  10.643  0.0539 -2.7513  1.7468
  150SAPE  H12B16566   3.674   4.731  10.689  1.0658  1.1445 -2.2285
  150SAPE   C1116567   3.647   4.938  10.732  0.4139  0.2577  0.2030
  150SAPE  H11A16568   3.559   5.003  10.747  0.5580 -0.2309  4.2352
  150SAPE  H11B16569   3.716   4.960  10.648  0.1899 -2.1999 -0.7117
  150SAPE     P16570   3.791   5.072  10.890 -0.2381  0.1100  0.1515
  150SAPE   O1316571   3.692   5.173  10.935 -0.2356 -0.0001  0.0865
  150SAPE   O1416572   3.901   5.048  10.988  0.5472 -0.0337  0.5627
  150SAPE   O1216573   3.723   4.938  10.852  0.0625 -0.1701 -0.5155
  150SAPE   O1116574   3.864   5.133  10.762  0.4267  0.3142  0.3888
  150SAPE    C116575   3.973   5.061  10.702 -0.2422 -0.5556  0.1935
  150SAPE    HA16576   4.063   5.102  10.753 -0.9889  0.6877  0.5541
  150SAPE    HB16577   3.967   4.951  10.709  0.8442 -0.5549  1.6063
  150SAPE    C216578   3.981   5.088  10.550  0.1307  0.4930  0.0912
  150SAPE    HS16579   3.970   5.197  10.534 -0.9770  0.3293 -0.3044
  150SAPE   O2116580   3.870   5.022  10.488  0.2078 -0.6869 -0.4862
  150SAPE   C2116581   3.820   5.066  10.383  0.1716 -0.6444  0.0185
  150SAPE   O2216582   3.849   5.170  10.324  0.1111 -0.7321 -0.2509
  150SAPE   C2216583   3.723   4.960  10.327  0.1599 -0.5132  0.0239
  150SAPE   H2R16584   3.711   4.868  10.388  0.8476  0.4683  1.7332
  150SAPE   H2S16585   3.626   5.014  10.338  1.4276  1.6225  1.5734
  150SAPE    C316586   4.119   5.045  10.479  0.4272 -0.4455 -0.3230
  150SAPE    HX16587   4.126   4.935  10.496  0.9282 -0.4783 -0.7158
  150SAPE    HY16588   4.209   5.073  10.537  0.5906 -0.8425 -0.3776
  150SAPE   O3116589   4.120   5.087  10.340 -0.2837  0.1068 -0.1847
  150SAPE   C3116590   4.139   5.216  10.327  0.4104  0.0337 -0.5162
  150SAPE   O3216591   4.153   5.295  10.421 -0.2003  0.3242  0.8491
  150SAPE   C3216592   4.123   5.249  10.178  0.2321 -0.2249 -0.2907
  150SAPE   H2X16593   4.017   5.263  10.149  0.5963 -0.7656 -2.0077
  150SAPE   H2Y16594   4.150   5.164  10.112 -1.8414 -1.1312 -0.0574
  150SAPE   C2316595   3.752   4.916  10.181 -0.4178 -0.1057  0.1423
  150SAPE   H3R16596   3.811   4.998  10.133  0.6979  0.5179  2.4465
  150SAPE   H3S16597   3.661   4.928  10.119 -0.5508  0.6271  0.4670
  150SAPE   C2416598   3.827   4.785  10.164  0.6385  0.7834 -0.3149
  150SAPE   H4R16599   3.812   4.767  10.055  0.0071  2.2473 -0.4969
  150SAPE   H4S16600   3.776   4.710  10.228 -1.2954  2.1635 -0.1621
  150SAPE   C2516601   3.970   4.802  10.214  0.4556  0.0733 -0.5970
  150SAPE   H5R16602   3.981   4.808  10.324 -0.6335  1.9066 -0.5477
  150SAPE   C2616603   4.080   4.826  10.144 -0.6220  0.8031 -0.4109
  150SAPE   H6R16604   4.173   4.843  10.200  0.5517 -3.2775 -0.8305
  150SAPE   C2716605   4.087   4.842   9.993  0.3844 -1.0637 -0.2419
  150SAPE   H7R16606   3.989   4.873   9.953  0.7052 -0.9838 -0.9780
  150SAPE   H7S16607   4.108   4.741   9.951  0.6100 -0.8082 -0.7454
  150SAPE   C2816608   4.209   4.921   9.937  0.5914  0.0057  0.2595
  150SAPE   H8R16609   4.297   4.916  10.002  0.8061 -0.7468 -0.0851
  150SAPE   C2916610   4.218   4.990   9.819 -0.2612 -0.5832 -0.2852
  150SAPE   H9R16611   4.312   5.036   9.787 -0.6644 -1.5569 -3.0744
  150SAPE  C21016612   4.111   4.996   9.717 -0.0950  0.3704 -0.0251
  150SAPE  H10R16613   4.090   5.096   9.674 -0.9211 -0.2401 -1.0821
  150SAPE  H10S16614   4.012   4.960   9.751  0.5701 -0.0273  1.5918
  150SAPE  C21116615   4.152   4.914   9.608 -0.7234 -0.4971  0.2927
  150SAPE  H11R16616   4.165   4.809   9.638 -1.6533 -0.3017  1.4784
  150SAPE  C21216617   4.178   4.950   9.479  0.1952  0.3290 -0.3052
  150SAPE  H12R16618   4.214   4.866   9.417  0.4118 -0.9057  1.4144
  150SAPE  C21316619   4.184   5.087   9.420  0.6004  0.0875  0.2039
  150SAPE  H13R16620   4.271   5.082   9.352  1.8875 -0.9520  1.8584
  150SAPE  H13S16621   4.202   5.167   9.495  1.9355  0.8515 -0.8893
  150SAPE  C21416622   4.055   5.121   9.339 -0.1723  0.5781 -0.2197
  150SAPE  H14R16623   3.971   5.172   9.389 -0.6913  1.9723 -2.3725
  150SAPE  C21516624   4.032   5.083   9.215  0.4329  0.2703  0.0327
  150SAPE  H15R16625   3.943   5.113   9.157  0.6672  1.8076  0.4068
  150SAPE  C21616626   4.119   5.002   9.132 -0.4062 -0.3088  0.3778
  150SAPE  H16R16627   4.199   4.946   9.185  0.1278 -1.1754 -1.2562
  150SAPE  H16S16628   4.172   5.069   9.062 -0.8914 -0.8661 -0.5461
  150SAPE  C21716629   4.046   4.890   9.062 -0.2982 -0.2161  0.5745
  150SAPE  H17R16630   3.979   4.831   9.128 -1.9461  0.8011 -0.1255
  150SAPE  H17S16631   4.120   4.821   9.015 -0.7643  0.6884 -1.6214
  150SAPE  C21816632   3.964   4.939   8.934 -0.0538 -0.2397 -0.3461
  150SAPE  H18R16633   4.032   4.988   8.861 -1.0545  2.7966  0.5966
  150SAPE  H18S16634   3.893   5.016   8.972  0.3060  0.6083 -1.3493
  150SAPE  C21916635   3.877   4.833   8.865  0.1836  0.7289  0.9599
  150SAPE  H19R16636   3.784   4.874   8.820  0.8725  0.6923 -0.5828
  150SAPE  H19S16637   3.845   4.760   8.942  1.5865 -1.7694 -0.6792
  150SAPE  C22016638   3.957   4.752   8.762  0.2110 -0.0017 -0.6421
  150SAPE  H20R16639   3.902   4.659   8.737  0.8307 -0.9252  1.2825
  150SAPE  H20S16640   4.059   4.728   8.800  0.1128 -1.6206 -1.3104
  150SAPE  H20T16641   3.963   4.815   8.671 -1.0064  0.0048 -0.7351
  150SAPE   C3316642   4.211   5.375  10.138  0.6828 -0.1294 -0.1988
  150SAPE   H3X16643   4.309   5.369  10.190 -0.6341 -1.3362  2.3298
  150SAPE   H3Y16644   4.148   5.460  10.173 -0.6675 -0.0571 -2.6069
  150SAPE   C3416645   4.218   5.374   9.989 -0.2982 -0.5971  0.3516
  150SAPE   H4X16646   4.271   5.279   9.965 -0.5772 -0.6223 -0.1771
  150SAPE   H4Y16647   4.282   5.459   9.959  1.8750 -1.8422  1.2145
  150SAPE   C3516648   4.089   5.376   9.910  0.6030  0.0537  0.0058
  150SAPE   H5X16649   4.010   5.447   9.943 -1.6622 -2.3122 -0.0213
  150SAPE   H5Y16650   4.049   5.274   9.923  0.0637  0.3293  0.5540
  150SAPE   C3616651   4.111   5.398   9.764 -0.3481 -0.2538  0.3571
  150SAPE   H6X16652   4.017   5.381   9.706  0.7319 -1.5815 -1.0902
  150SAPE   H6Y16653   4.169   5.313   9.722 -0.5196 -0.9986  1.5888
  150SAPE   C3716654   4.156   5.535   9.722  0.4164 -0.3686 -0.1899
  150SAPE   H7X16655   4.237   5.574   9.788  0.3109 -0.0983 -0.2171
  150SAPE   H7Y16656   4.074   5.610   9.732  0.8506 -0.2000  3.3961
  150SAPE   C3816657   4.188   5.556   9.567 -0.4511 -0.4895 -0.6355
  150SAPE   H8X16658   4.191   5.664   9.541  0.5498 -0.5240 -0.6736
  150SAPE   H8Y16659   4.112   5.503   9.505 -2.5730 -0.8583  2.0502
  150SAPE   C3916660   4.328   5.507   9.536  0.3167  0.1972  0.4300
  150SAPE   H9X16661   4.352   5.399   9.551  1.1057 -0.0057 -1.8902
  150SAPE   H9Y16662   4.398   5.571   9.594  0.7810  0.7018 -0.6563
  150SAPE  C31016663   4.365   5.538   9.387  0.3070 -0.4175 -0.7038
  150SAPE  H10X16664   4.476   5.544   9.379  0.4339  1.0856  1.2419
  150SAPE  H10Y16665   4.317   5.637   9.374  0.1942 -0.0465  1.9307
  150SAPE  C31116666   4.305   5.439   9.291  0.0051 -0.3957 -0.1982
  150SAPE  H11X16667   4.196   5.438   9.309  0.0192 -1.4380 -0.1297
  150SAPE  H11Y16668   4.347   5.337   9.309 -0.6886 -0.3537  1.9695
  150SAPE  C31216669   4.333   5.481   9.139 -0.0286 -0.1149 -0.1039
  150SAPE  H12X16670   4.437   5.446   9.123  0.4448  1.3389 -0.4338
  150SAPE  H12Y16671   4.328   5.592   9.136 -2.4117 -0.0483  2.3663
  150SAPE  C31316672   4.237   5.423   9.032  0.0857  0.3555  0.2149
  150SAPE  H13X16673   4.139   5.475   9.031 -0.1394  0.0501  2.4564
  150SAPE  H13Y16674   4.221   5.317   9.061  0.4904  0.2183 -0.0569
  150SAPE  C31416675   4.274   5.430   8.879  0.5899 -0.3061 -0.0507
  150SAPE  H14X16676   4.206   5.361   8.825  0.2386 -0.8172  1.0169
  150SAPE  H14Y16677   4.376   5.390   8.858  0.4906 -0.7659  0.3270
  150SAPE  C31516678   4.263   5.573   8.823  0.1397  0.6524  0.8283
  150SAPE  H15X16679   4.318   5.651   8.881  0.6974  1.3078 -0.5553
  150SAPE  H15Y16680   4.153   5.592   8.830 -0.1818 -0.2942 -1.2208
  150SAPE  C31616681   4.311   5.583   8.676  0.1971 -0.6883  0.3973
  150SAPE  H16X16682   4.292   5.685   8.636 -1.3575 -1.0487  0.1322
  150SAPE  H16Y16683   4.233   5.523   8.625  0.2611  0.2441 -0.8163
  150SAPE  C31716684   4.450   5.531   8.645 -0.4098  0.7299 -0.1418
  150SAPE  H17X16685   4.462   5.549   8.536  0.8993 -2.0245 -0.5209
  150SAPE  H17Y16686   4.450   5.420   8.655  0.0623  0.7234 -0.1741
  150SAPE  C31816687   4.572   5.594   8.717 -0.4161 -0.2748 -0.4265
  150SAPE  H18X16688   4.669   5.560   8.676 -0.1108 -2.5289  1.9260
  150SAPE  H18Y16689   4.562   5.579   8.827  1.1739  0.9335 -0.0800
  150SAPE  H18Z16690   4.571   5.704   8.697  0.9318 -0.7270 -3.3961
  151SAPE     N16691   2.285   1.236  10.625  0.2793  0.3785  0.1849
  151SAPE   HN116692   2.215   1.174  10.670  0.5504 -0.3751 -0.4023
  151SAPE   HN216693   2.381   1.197  10.632  0.4768  1.1608  4.1873
  151SAPE   HN316694   2.290   1.310  10.698 -1.1993  0.2196  0.4697
  151SAPE   C1216695   2.272   1.289  10.484 -0.1165 -0.5092 -0.0987
  151SAPE  H12A16696   2.169   1.330  10.472 -0.7368 -0.3466  4.3275
  151SAPE  H12B16697   2.288   1.198  10.421 -2.4046 -0.4375 -0.8810
  151SAPE   C1116698   2.369   1.385  10.431  0.5199  0.4467  0.4046
  151SAPE  H11A16699   2.386   1.469  10.502 -1.3984  3.8320 -2.8012
  151SAPE  H11B16700   2.337   1.438  10.339  0.9800  0.2611  0.1334
  151SAPE     P16701   2.611   1.288  10.512  0.0484  0.0837 -0.0653
  151SAPE   O1316702   2.670   1.405  10.576  0.3874 -0.0944 -0.0320
  151SAPE   O1416703   2.550   1.189  10.600 -0.9179 -0.1016 -0.5119
  151SAPE   O1216704   2.498   1.326  10.408 -0.5071  0.0850  0.4658
  151SAPE   O1116705   2.718   1.217  10.415  0.2221  0.5369  0.3378
  151SAPE    C116706   2.690   1.084  10.372  0.4184  0.5473  0.3829
  151SAPE    HA16707   2.789   1.034  10.378  1.2475  2.2795  1.6125
  151SAPE    HB16708   2.642   1.022  10.451 -0.2234 -0.1027 -0.4871
  151SAPE    C216709   2.630   1.053  10.232 -0.0206 -1.0831 -0.1781
  151SAPE    HS16710   2.703   0.993  10.174  1.0257 -0.2818  0.2688
  151SAPE   O2116711   2.598   1.184  10.165 -0.0722  0.3219  0.2822
  151SAPE   C2116712   2.706   1.263  10.141  0.2795 -0.0455  0.4264
  151SAPE   O2216713   2.819   1.225  10.135  0.5639  0.1441  0.1878
  151SAPE   C2216714   2.651   1.409  10.111  0.0541  0.8550 -0.1197
  151SAPE   H2R16715   2.558   1.393  10.052  1.6887 -0.9885 -2.4011
  151SAPE   H2S16716   2.624   1.450  10.210  1.5709  2.5060 -0.3536
  151SAPE    C316717   2.496   0.974  10.250  0.2889 -0.3762  0.1755
  151SAPE    HX16718   2.429   1.052  10.294  0.4218 -0.6673  0.9088
  151SAPE    HY16719   2.509   0.895  10.327  0.2447 -0.8319 -0.2753
  151SAPE   O3116720   2.437   0.924  10.126  0.9360  0.4139  0.2969
  151SAPE   C3116721   2.476   0.800  10.086 -0.1172  0.6071 -0.3437
  151SAPE   O3216722   2.560   0.736  10.147  0.3022  0.9926 -0.3566
  151SAPE   C3216723   2.400   0.746   9.970  0.1518  0.0528 -0.6746
  151SAPE   H2X16724   2.299   0.792   9.963 -0.6976 -1.5878  0.1859
  151SAPE   H2Y16725   2.391   0.637   9.992 -1.1782  0.4765  1.1093
  151SAPE   C2316726   2.754   1.501  10.050  0.1264  0.5926  0.3761
  151SAPE   H3R16727   2.851   1.474  10.096 -0.0204 -1.5854 -0.4690
  151SAPE   H3S16728   2.724   1.608  10.059  0.3494  0.7950 -1.0224
  151SAPE   C2416729   2.762   1.483   9.896  0.2407  0.5155  0.6295
  151SAPE   H4R16730   2.662   1.515   9.862  0.6490  1.4930  0.3059
  151SAPE   H4S16731   2.780   1.377   9.868 -1.9136  0.0029  1.0450
  151SAPE   C2516732   2.862   1.572   9.833 -0.4374  0.5101  0.5510
  151SAPE   H5R16733   2.931   1.635   9.891  1.5417 -0.7964 -0.2844
  151SAPE   C2616734   2.878   1.573   9.695  0.1343 -0.4212  0.5359
  151SAPE   H6R16735   2.944   1.653   9.659 -1.6728  0.6167 -0.5986
  151SAPE   C2716736   2.810   1.493   9.582 -0.7737 -0.3085  0.0247
  151SAPE   H7R16737   2.792   1.392   9.624  0.0594  0.0873  1.3788
  151SAPE   H7S16738   2.890   1.470   9.509 -0.3694  0.3011  0.2716
  151SAPE   C2816739   2.681   1.551   9.524  0.1503  0.0173  1.0398
  151SAPE   H8R16740   2.597   1.573   9.590 -0.7472 -1.4236  0.4307
  151SAPE   C2916741   2.667   1.585   9.396 -0.2370  0.0337 -0.3191
  151SAPE   H9R16742   2.574   1.635   9.368 -0.4492 -0.8228 -1.1685
  151SAPE  C21016743   2.770   1.593   9.282 -0.1901 -0.6082  0.1888
  151SAPE  H10R16744   2.867   1.606   9.335 -0.5807  0.8250  0.6149
  151SAPE  H10S16745   2.758   1.684   9.218  1.2672 -1.8884 -2.0413
  151SAPE  C21116746   2.772   1.468   9.201 -0.4112 -0.2855 -0.1119
  151SAPE  H11R16747   2.787   1.376   9.260  0.8423  0.6091  1.0338
  151SAPE  C21216748   2.778   1.451   9.068 -0.0252 -0.6212 -0.2445
  151SAPE  H12R16749   2.755   1.354   9.023 -2.0295 -0.8726  1.1896
  151SAPE  C21316750   2.768   1.560   8.961 -0.0096  0.7509  0.5846
  151SAPE  H13R16751   2.797   1.503   8.871  0.6188 -1.7166  2.2424
  151SAPE  H13S16752   2.850   1.634   8.976  0.5671  0.0391  1.0123
  151SAPE  C21416753   2.642   1.639   8.944  0.7208  0.6842  0.7392
  151SAPE  H14R16754   2.606   1.701   9.028  1.0775  3.9628 -1.3494
  151SAPE  C21516755   2.574   1.641   8.826 -0.1055  0.8007 -0.4534
  151SAPE  H15R16756   2.480   1.698   8.824 -0.5246  0.2397  1.3935
  151SAPE  C21616757   2.596   1.575   8.689 -0.3861  0.1767  0.2402
  151SAPE  H16R16758   2.686   1.509   8.686 -0.4964 -0.1407  2.5064
  151SAPE  H16S16759   2.609   1.667   8.628 -1.5051  0.4511  0.4081
  151SAPE  C21716760   2.476   1.498   8.636 -0.1636 -0.3573 -0.1986
  151SAPE  H17R16761   2.475   1.493   8.525  0.8250  1.9923 -0.3737
  151SAPE  H17S16762   2.380   1.553   8.648  0.5153  1.3525 -2.0130
  151SAPE  C21816763   2.456   1.369   8.711 -0.1871  0.7106 -1.0309
  151SAPE  H18R16764   2.421   1.381   8.816 -1.7905  2.6161 -1.7148
  151SAPE  H18S16765   2.555   1.318   8.716 -0.3433  0.4205 -0.9024
  151SAPE  C21916766   2.365   1.277   8.642  0.0506 -0.3479  0.7437
  151SAPE  H19R16767   2.361   1.181   8.698 -1.4572 -0.1234  1.0794
  151SAPE  H19S16768   2.401   1.273   8.538 -1.5118  0.7706  0.1139
  151SAPE  C22016769   2.224   1.327   8.631  0.0091  0.2595  0.3498
  151SAPE  H20R16770   2.223   1.432   8.595  1.7684  0.4638  0.8338
  151SAPE  H20S16771   2.157   1.313   8.719  0.5356 -0.3270  0.6618
  151SAPE  H20T16772   2.172   1.271   8.550 -0.6125  0.4468  0.6138
  151SAPE   C3316773   2.469   0.772   9.842  0.6912 -0.1371  0.1795
  151SAPE   H3X16774   2.417   0.699   9.776  3.2686 -1.1056 -0.9184
  151SAPE   H3Y16775   2.578   0.751   9.845  0.7758  0.3162  0.4364
  151SAPE   C3416776   2.462   0.925   9.792  0.0622 -0.0909 -0.3847
  151SAPE   H4X16777   2.515   0.984   9.869  0.9284 -0.2148 -0.8706
  151SAPE   H4Y16778   2.357   0.961   9.801 -0.5578 -1.8124 -0.2095
  151SAPE   C3516779   2.513   0.937   9.651  0.3541 -0.1032  0.2057
  151SAPE   H5X16780   2.437   0.896   9.581 -0.6711  4.0593 -1.4273
  151SAPE   H5Y16781   2.603   0.876   9.635 -1.3421 -2.3537 -1.3668
  151SAPE   C3616782   2.539   1.083   9.601 -0.4290  0.2668 -0.0723
  151SAPE   H6X16783   2.612   1.118   9.678 -0.1104 -0.8109  0.1355
  151SAPE   H6Y16784   2.449   1.144   9.621 -0.9732 -1.0466  1.7242
  151SAPE   C3716785   2.592   1.087   9.460  0.2282  0.0199 -0.0859
  151SAPE   H7X16786   2.634   1.188   9.441  0.0929 -0.2826 -2.1586
  151SAPE   H7Y16787   2.507   1.074   9.390 -0.0644 -1.7692  0.5435
  151SAPE   C3816788   2.702   0.989   9.426 -0.4592 -0.3398 -0.1656
  151SAPE   H8X16789   2.657   0.887   9.421 -2.0865  0.3834 -1.4465
  151SAPE   H8Y16790   2.774   0.997   9.509  0.0793  3.1180 -0.8187
  151SAPE   C3916791   2.779   1.030   9.301  0.7047  0.3054 -0.7265
  151SAPE   H9X16792   2.873   0.971   9.297 -0.9068 -2.4717 -0.4045
  151SAPE   H9Y16793   2.832   1.123   9.331  1.3426  0.4785 -2.3028
  151SAPE  C31016794   2.694   1.021   9.182  0.3101 -0.1486  0.0631
  151SAPE  H10X16795   2.594   1.067   9.194  0.4890  0.1392  0.4579
  151SAPE  H10Y16796   2.669   0.916   9.158  0.9569 -0.3143  0.0885
  151SAPE  C31116797   2.767   1.081   9.060 -0.7072  0.0679  0.1307
  151SAPE  H11X16798   2.869   1.038   9.048 -0.5353 -0.9139  3.8461
  151SAPE  H11Y16799   2.794   1.180   9.103  3.4708 -0.3082 -1.1855
  151SAPE  C31216800   2.693   1.085   8.925  0.3299  0.3861  1.0015
  151SAPE  H12X16801   2.750   1.146   8.852 -0.2422 -0.4843 -0.2154
  151SAPE  H12Y16802   2.593   1.131   8.943  0.3751  0.6928  0.4775
  151SAPE  C31316803   2.677   0.949   8.855  0.4830  0.0434 -0.8801
  151SAPE  H13X16804   2.605   0.891   8.917  0.6642  0.2454 -0.4785
  151SAPE  H13Y16805   2.768   0.885   8.864 -0.5122 -1.4528 -0.9984
  151SAPE  C31416806   2.646   0.967   8.709 -0.2670  0.1002 -0.7397
  151SAPE  H14X16807   2.737   1.013   8.665  2.4129 -3.9863 -0.0219
  151SAPE  H14Y16808   2.554   1.028   8.693  0.2481  0.3163 -3.3834
  151SAPE  C31516809   2.636   0.834   8.624 -0.0012 -1.1728  0.0253
  151SAPE  H15X16810   2.557   0.768   8.668 -0.7750 -0.0187  0.4279
  151SAPE  H15Y16811   2.731   0.779   8.635  0.7396  0.3692  1.9413
  151SAPE  C31616812   2.598   0.858   8.475 -0.2414  0.2044  0.0290
  151SAPE  H16X16813   2.680   0.916   8.429  0.1606 -1.2342 -1.1616
  151SAPE  H16Y16814   2.510   0.926   8.474 -0.7389 -0.4095  0.6330
  151SAPE  C31716815   2.585   0.728   8.394  0.8134 -0.3763 -0.0709
  151SAPE  H17X16816   2.672   0.663   8.418 -0.0808 -1.1753  1.1461
  151SAPE  H17Y16817   2.575   0.748   8.286  0.7821 -0.5151 -0.0931
  151SAPE  C31816818   2.464   0.646   8.440  0.5068  0.1532 -0.0831
  151SAPE  H18X16819   2.369   0.701   8.426  0.2836 -0.3289 -0.4972
  151SAPE  H18Y16820   2.469   0.619   8.547  0.1725  1.6273  0.3277
  151SAPE  H18Z16821   2.458   0.549   8.385  0.4971 -0.2975  0.7019
  152SAPE     N16822   2.845   1.452  10.776  0.1997  0.0192 -0.1892
  152SAPE   HN116823   2.772   1.510  10.823  2.0913  0.9800  1.7334
  152SAPE   HN216824   2.934   1.506  10.780  0.3855 -0.2963 -0.0524
  152SAPE   HN316825   2.808   1.447  10.679 -1.8278  2.9785  0.2875
  152SAPE   C1216826   2.853   1.311  10.830  0.5825  0.2415 -0.6410
  152SAPE  H12A16827   2.749   1.274  10.824  0.0318  1.2456  1.5277
  152SAPE  H12B16828   2.870   1.310  10.940  0.5807 -1.7844 -0.6316
  152SAPE   C1116829   2.958   1.223  10.749  0.1355 -0.3869 -0.3199
  152SAPE  H11A16830   2.928   1.220  10.642  0.0433 -1.8434 -0.2837
  152SAPE  H11B16831   2.943   1.115  10.772  1.9944 -1.0357 -1.8843
  152SAPE     P16832   3.195   1.331  10.681 -0.3366 -0.0171 -0.3574
  152SAPE   O1316833   3.138   1.469  10.670  0.4860 -0.2965 -0.2926
  152SAPE   O1416834   3.332   1.314  10.732 -0.2245 -0.6144 -0.4324
  152SAPE   O1216835   3.097   1.252  10.781 -0.5400 -0.2671 -0.4580
  152SAPE   O1116836   3.171   1.249  10.552 -0.0222  0.0840  0.7718
  152SAPE    C116837   3.253   1.145  10.498  0.0623  0.2123 -0.2532
  152SAPE    HA16838   3.337   1.197  10.447  1.0436 -1.3337 -0.2750
  152SAPE    HB16839   3.309   1.081  10.569 -0.2418 -0.7637 -0.8788
  152SAPE    C216840   3.181   1.059  10.393 -0.1787  1.0407  0.1354
  152SAPE    HS16841   3.249   0.973  10.373 -0.5024 -0.0667  3.1532
  152SAPE   O2116842   3.141   1.141  10.276  0.7423  0.4060  0.1453
  152SAPE   C2116843   3.237   1.147  10.180  0.4938 -0.0676 -0.6034
  152SAPE   O2216844   3.350   1.111  10.200  0.2836  0.1134 -0.0498
  152SAPE   C2216845   3.175   1.212  10.049  1.2487 -0.5660  0.2173
  152SAPE   H2R16846   3.075   1.251  10.080  2.1246  1.1298  1.0724
  152SAPE   H2S16847   3.223   1.309  10.022 -0.1429  0.2968  0.7209
  152SAPE    C316848   3.048   1.003  10.443 -0.3055 -0.1292 -0.1095
  152SAPE    HX16849   2.971   1.084  10.447 -0.8094 -0.5492 -1.0549
  152SAPE    HY16850   3.053   0.962  10.546  0.7988  0.0907 -0.0651
  152SAPE   O3116851   2.981   0.910  10.349  0.1511  0.4526  0.6639
  152SAPE   C3116852   3.012   0.781  10.378 -0.0188  0.2386 -1.0147
  152SAPE   O3216853   3.077   0.748  10.475 -0.4400  0.7733  0.1654
  152SAPE   C3216854   2.954   0.684  10.271 -0.1111 -0.1561  0.6540
  152SAPE   H2X16855   2.843   0.680  10.266 -0.0918  0.6590 -0.7344
  152SAPE   H2Y16856   2.991   0.583  10.298  1.4968 -0.0630 -1.0487
  152SAPE   C2316857   3.167   1.119   9.924 -0.1541  0.1321 -0.7393
  152SAPE   H3R16858   3.154   1.019   9.970 -1.5928  0.9831  0.8320
  152SAPE   H3S16859   3.255   1.124   9.856  1.7684 -0.0637  1.6092
  152SAPE   C2416860   3.043   1.169   9.847  0.0348  0.4476  0.5055
  152SAPE   H4R16861   2.954   1.197   9.906  0.8628  1.0312  1.5047
  152SAPE   H4S16862   3.000   1.091   9.781 -1.3624 -0.8723  2.8667
  152SAPE   C2516863   3.077   1.285   9.766 -0.1425 -0.9319 -0.2081
  152SAPE   H5R16864   3.082   1.383   9.813 -0.5388 -0.2808 -1.4739
  152SAPE   C2616865   3.112   1.283   9.639  0.9587 -0.0260  0.4550
  152SAPE   H6R16866   3.144   1.379   9.595  0.7509 -0.8650 -1.6118
  152SAPE   C2716867   3.122   1.164   9.549 -0.8172 -0.1643  0.2933
  152SAPE   H7R16868   3.034   1.097   9.563 -2.2044  1.5448 -0.0127
  152SAPE   H7S16869   3.223   1.119   9.566 -0.2808  1.6401  2.2080
  152SAPE   C2816870   3.111   1.215   9.407 -0.1763  0.3607  0.8788
  152SAPE   H8R16871   3.007   1.236   9.376 -0.4335  3.9417  3.4863
  152SAPE   C2916872   3.207   1.239   9.318  0.2054  0.5410 -0.0813
  152SAPE   H9R16873   3.180   1.255   9.213  0.1682 -1.5923 -0.4402
  152SAPE  C21016874   3.354   1.213   9.348  0.3330 -0.5816  0.1977
  152SAPE  H10R16875   3.381   1.209   9.456  0.0430  2.6706  0.5012
  152SAPE  H10S16876   3.399   1.300   9.296  1.4062 -1.2942 -0.0898
  152SAPE  C21116877   3.417   1.093   9.295 -0.3649 -0.1775 -0.2226
  152SAPE  H11R16878   3.393   1.008   9.361  1.2787  1.3551  2.5781
  152SAPE  C21216879   3.506   1.086   9.198  0.2628  0.1811  0.2026
  152SAPE  H12R16880   3.534   0.984   9.166 -2.8484 -0.5943 -0.3668
  152SAPE  C21316881   3.557   1.206   9.113  0.0780 -0.1661  0.1306
  152SAPE  H13R16882   3.578   1.296   9.174  0.9027 -0.1823 -0.1083
  152SAPE  H13S16883   3.483   1.227   9.034  0.2154 -1.6445 -0.4381
  152SAPE  C21416884   3.684   1.167   9.046 -0.0800 -0.1131 -0.0950
  152SAPE  H14R16885   3.753   1.115   9.114 -0.8761  1.5961  2.1363
  152SAPE  C21516886   3.718   1.193   8.918  0.8043  0.1386  0.5372
  152SAPE  H15R16887   3.810   1.141   8.888  0.3851 -0.2184 -0.1372
  152SAPE  C21616888   3.641   1.261   8.810  0.9742  0.2791 -0.6373
  152SAPE  H16R16889   3.543   1.304   8.839  0.7775  0.2415 -1.2283
  152SAPE  H16S16890   3.630   1.175   8.740  1.7226 -2.1535  2.0094
  152SAPE  C21716891   3.722   1.370   8.741 -0.1063  0.0909 -0.4325
  152SAPE  H17R16892   3.792   1.326   8.667  0.0727  2.3806 -1.7148
  152SAPE  H17S16893   3.776   1.430   8.816 -0.0144  1.8059 -1.8097
  152SAPE  C21816894   3.648   1.472   8.663  0.4572  0.1586  0.5692
  152SAPE  H18R16895   3.586   1.418   8.589 -0.2566  3.1073 -1.1547
  152SAPE  H18S16896   3.717   1.541   8.610  1.6254 -0.3713  1.3708
  152SAPE  C21916897   3.545   1.564   8.740  0.2541  0.1354  0.1140
  152SAPE  H19R16898   3.470   1.504   8.794 -1.0557  1.1858 -0.4640
  152SAPE  H19S16899   3.490   1.614   8.657  1.7786 -1.8282 -2.1878
  152SAPE  C22016900   3.608   1.684   8.803  0.2108  0.0051 -0.8131
  152SAPE  H20R16901   3.649   1.648   8.900 -0.2676 -1.2393 -1.0546
  152SAPE  H20S16902   3.538   1.768   8.823  0.2456  0.3274 -1.9776
  152SAPE  H20T16903   3.695   1.716   8.743  1.8680 -0.0384  1.4299
  152SAPE   C3316904   2.984   0.717  10.131  0.7381 -1.0520  0.2851
  152SAPE   H3X16905   3.094   0.700  10.130  1.3726  2.4160  0.0789
  152SAPE   H3Y16906   2.984   0.825  10.103  0.6370 -1.3581 -0.9758
  152SAPE   C3416907   2.922   0.618  10.030 -0.6960  0.4904 -0.8549
  152SAPE   H4X16908   2.812   0.628  10.025 -0.8097  2.2554  2.2969
  152SAPE   H4Y16909   2.940   0.510  10.054  1.4832  0.9395 -0.2462
  152SAPE   C3516910   2.972   0.638   9.884 -0.2796 -0.3598  0.5801
  152SAPE   H5X16911   2.919   0.569   9.815 -0.0081 -0.2286  0.2350
  152SAPE   H5Y16912   3.078   0.605   9.872 -0.3951 -1.0852  1.5125
  152SAPE   C3616913   2.973   0.783   9.835  0.0326 -0.4894 -0.5028
  152SAPE   H6X16914   3.070   0.830   9.864 -0.1237 -0.8568  0.6549
  152SAPE   H6Y16915   2.896   0.844   9.885 -1.0657 -1.3447 -1.1174
  152SAPE   C3716916   2.946   0.792   9.686  0.0263 -0.2168  0.0381
  152SAPE   H7X16917   2.944   0.901   9.662 -2.4032 -0.2895 -0.3547
  152SAPE   H7Y16918   2.845   0.757   9.656  0.3583 -0.7343 -0.4977
  152SAPE   C3816919   3.058   0.747   9.602 -0.6143 -0.2213  0.3634
  152SAPE   H8X16920   3.077   0.640   9.625 -0.6818 -0.2561  0.2584
  152SAPE   H8Y16921   3.146   0.810   9.624 -1.5387  2.1304 -2.1419
  152SAPE   C3916922   3.018   0.768   9.459 -0.2918 -0.5433 -0.6089
  152SAPE   H9X16923   2.989   0.872   9.436 -1.1276 -0.6036  0.1084
  152SAPE   H9Y16924   2.945   0.693   9.422  1.4593 -1.9385 -1.4152
  152SAPE  C31016925   3.127   0.731   9.355  0.1645 -1.2707  0.1118
  152SAPE  H10X16926   3.130   0.621   9.343  2.7146 -1.1434 -1.0509
  152SAPE  H10Y16927   3.230   0.746   9.395  0.4781 -3.4769  0.2613
  152SAPE  C31116928   3.115   0.793   9.216  0.4670  0.7356 -0.1480
  152SAPE  H11X16929   3.109   0.904   9.214  0.0209  0.7254  0.4353
  152SAPE  H11Y16930   3.013   0.766   9.182 -0.4042  2.5085  0.9120
  152SAPE  C31216931   3.231   0.752   9.128  0.5621 -0.4487  0.3845
  152SAPE  H12X16932   3.242   0.641   9.122  0.8356 -0.3890 -0.3409
  152SAPE  H12Y16933   3.314   0.782   9.195 -0.3458 -0.1834  1.4106
  152SAPE  C31316934   3.233   0.828   8.997  0.4974 -0.4899 -0.1953
  152SAPE  H13X16935   3.235   0.938   9.014  1.8213 -0.0412 -2.7994
  152SAPE  H13Y16936   3.147   0.795   8.935  0.3807  0.0485 -0.3262
  152SAPE  C31416937   3.363   0.798   8.919  0.8658 -0.0816 -0.0133
  152SAPE  H14X16938   3.353   0.695   8.879  2.6260 -0.0048 -0.7384
  152SAPE  H14Y16939   3.453   0.805   8.983 -0.2199  0.8451  1.4825
  152SAPE  C31516940   3.375   0.892   8.801  0.5132 -0.5516 -0.2067
  152SAPE  H15X16941   3.421   0.985   8.841 -0.5717  0.3683 -1.0129
  152SAPE  H15Y16942   3.280   0.929   8.758  0.6764  0.0312 -0.0764
  152SAPE  C31616943   3.457   0.841   8.677 -0.8060  0.1704  0.0749
  152SAPE  H16X16944   3.435   0.734   8.662 -2.9950  0.5342  0.3171
  152SAPE  H16Y16945   3.557   0.855   8.724  1.0578 -0.7683 -3.3016
  152SAPE  C31716946   3.444   0.940   8.558 -0.4082  0.2507  0.3890
  152SAPE  H17X16947   3.480   1.043   8.577  1.6415 -0.3646  0.0205
  152SAPE  H17Y16948   3.337   0.951   8.527 -0.2120  1.4650  0.0773
  152SAPE  C31816949   3.522   0.897   8.438 -0.3377  0.1295  0.4917
  152SAPE  H18X16950   3.493   0.965   8.356  1.0535 -0.0269 -0.1536
  152SAPE  H18Y16951   3.477   0.798   8.414 -1.5145  0.4711  1.1856
  152SAPE  H18Z16952   3.631   0.901   8.459 -0.3099  0.6129  0.2638
  153SAPE     N16953   0.141   1.678  10.743  0.3222  0.0282  0.2274
  153SAPE   HN116954   0.157   1.777  10.715  1.5698 -0.2996 -0.3013
  153SAPE   HN216955   0.040   1.666  10.764 -0.3492  1.8354 -1.5756
  153SAPE   HN316956   0.192   1.662  10.832  0.0002 -2.1797  0.0731
  153SAPE   C1216957   0.179   1.582  10.631  0.1564  0.5025 -0.8015
  153SAPE  H12A16958   0.103   1.593  10.550 -1.0365 -0.6634  0.1056
  153SAPE  H12B16959   0.179   1.479  10.672  2.2686  1.8727  3.1156
  153SAPE   C1116960   0.320   1.606  10.579 -0.0585  0.2273  0.5455
  153SAPE  H11A16961   0.331   1.714  10.554  0.7671 -0.6444 -3.8078
  153SAPE  H11B16962   0.336   1.542  10.489 -0.2994  1.5335 -0.4635
  153SAPE     P16963   0.487   1.428  10.690  0.1694  0.1146 -0.1509
  153SAPE   O1316964   0.608   1.453  10.768 -0.2038  0.4067 -0.0220
  153SAPE   O1416965   0.389   1.332  10.752 -0.4908 -0.4615 -0.2140
  153SAPE   O1216966   0.419   1.571  10.679  0.0507 -0.2044  0.5870
  153SAPE   O1116967   0.524   1.384  10.544  0.4512  0.0541  0.0346
  153SAPE    C116968   0.658   1.414  10.491 -0.1590  0.6998 -0.4978
  153SAPE    HA16969   0.740   1.385  10.559 -0.9143 -0.8734 -0.2076
  153SAPE    HB16970   0.666   1.356  10.396 -2.5082  2.9440 -2.2088
  153SAPE    C216971   0.670   1.559  10.440 -0.0020  0.4739  0.1413
  153SAPE    HS16972   0.676   1.618  10.534  2.2363  0.2942  0.1696
  153SAPE   O2116973   0.561   1.596  10.347 -0.1336 -0.1110 -0.5530
  153SAPE   C2116974   0.533   1.722  10.330 -0.0712 -1.0261 -0.4290
  153SAPE   O2216975   0.560   1.808  10.411  0.1289 -0.1776  0.1338
  153SAPE   C2216976   0.457   1.744  10.205  0.1087  0.7400  0.2313
  153SAPE   H2R16977   0.527   1.807  10.146  2.0702  0.0830  1.7447
  153SAPE   H2S16978   0.451   1.643  10.157 -2.8309  0.2480  1.3970
  153SAPE    C316979   0.805   1.572  10.371 -0.6281 -0.0628 -0.6335
  153SAPE    HX16980   0.814   1.498  10.288  1.8924 -1.3654  0.7027
  153SAPE    HY16981   0.877   1.529  10.443 -1.9190 -2.4489 -0.6762
  153SAPE   O3116982   0.830   1.702  10.318  0.0032 -0.2245 -0.4235
  153SAPE   C3116983   0.945   1.718  10.252  0.1061 -0.6866  0.2624
  153SAPE   O3216984   1.034   1.644  10.249  0.1868  0.3833  0.3618
  153SAPE   C3216985   0.951   1.855  10.180  0.0488  0.2480  0.3068
  153SAPE   H2X16986   1.055   1.892  10.168 -0.6281  1.3718 -3.4956
  153SAPE   H2Y16987   0.914   1.927  10.257 -1.9775  1.5954 -1.7805
  153SAPE   C2316988   0.320   1.819  10.224  0.1404  0.1425  0.0387
  153SAPE   H3R16989   0.327   1.914  10.282  2.2339 -1.5746  2.8567
  153SAPE   H3S16990   0.245   1.757  10.277 -2.2299  0.0116 -3.1812
  153SAPE   C2416991   0.257   1.852  10.081  0.2972  0.3457 -0.0166
  153SAPE   H4R16992   0.264   1.760  10.021  0.5833 -1.0894  2.0939
  153SAPE   H4S16993   0.331   1.915  10.026  0.9079  1.4502  1.9391
  153SAPE   C2516994   0.124   1.927  10.085  0.3268  0.6929 -0.2226
  153SAPE   H5R16995   0.084   1.983  10.171 -0.7614  2.7428 -1.9408
  153SAPE   C2616996   0.044   1.940   9.976 -0.3432  0.6464 -0.3475
  153SAPE   H6R16997  -0.056   1.982   9.992 -0.5508  0.8448 -1.9526
  153SAPE   C2716998   0.074   1.877   9.837 -0.3691  0.3024  0.4253
  153SAPE   H7R16999  -0.023   1.861   9.785 -0.7806 -0.3198  1.3565
  153SAPE   H7S17000   0.107   1.772   9.851 -1.5873  0.0386  1.4513
  153SAPE   C2817001   0.164   1.959   9.746  0.1336 -0.0293 -0.2901
  153SAPE   H8R17002   0.256   2.005   9.785 -0.1777  0.9964 -0.7278
  153SAPE   C2917003   0.149   1.984   9.611  0.3840 -0.6178 -0.3618
  153SAPE   H9R17004   0.227   2.051   9.573 -1.4128  0.6147 -2.0870
  153SAPE  C21017005   0.035   1.934   9.524  0.0341  0.4864 -0.2695
  153SAPE  H10R17006  -0.038   1.864   9.570  0.6567 -1.4688 -2.1409
  153SAPE  H10S17007   0.076   1.868   9.445 -1.7199  0.0469 -0.8538
  153SAPE  C21117008  -0.051   2.039   9.459 -0.1495 -0.3599  0.1683
  153SAPE  H11R17009  -0.144   2.062   9.513 -0.1983  0.1834 -0.1455
  153SAPE  C21217010  -0.017   2.112   9.352  0.7334  0.0905  0.6491
  153SAPE  H12R17011  -0.082   2.188   9.306  0.3268 -2.5379 -3.7085
  153SAPE  C21317012   0.109   2.096   9.272  0.8114  0.0888  0.2568
  153SAPE  H13R17013   0.160   1.999   9.290  0.2867 -0.2132  0.1069
  153SAPE  H13S17014   0.180   2.173   9.311  2.0613 -1.3858  0.9896
  153SAPE  C21417015   0.075   2.113   9.122 -0.0206  0.0136 -1.1189
  153SAPE  H14R17016  -0.033   2.123   9.102 -0.2573 -1.4075 -0.6400
  153SAPE  C21517017   0.161   2.119   9.022  0.3562 -0.1721 -1.0086
  153SAPE  H15R17018   0.115   2.141   8.924 -0.0274 -0.0566 -0.8057
  153SAPE  C21617019   0.316   2.108   9.043 -0.0843  0.0700  0.8192
  153SAPE  H16R17020   0.334   2.070   9.146 -0.0681  3.7799  2.3445
  153SAPE  H16S17021   0.351   2.212   9.028  1.7574 -0.6369  0.0052
  153SAPE  C21717022   0.381   2.029   8.926  0.4827 -0.0608 -0.5483
  153SAPE  H17R17023   0.490   2.031   8.948  0.8976  1.5151 -2.4233
  153SAPE  H17S17024   0.346   2.071   8.829  2.0869 -0.7727 -1.4808
  153SAPE  C21817025   0.355   1.873   8.929  0.2004 -0.0870  0.2058
  153SAPE  H18R17026   0.248   1.853   8.908  0.1429  1.3735 -1.0478
  153SAPE  H18S17027   0.384   1.833   9.029 -1.8597 -1.2194  0.3975
  153SAPE  C21917028   0.440   1.795   8.829 -0.9009  0.3723 -0.5703
  153SAPE  H19R17029   0.422   1.688   8.849 -1.4028  0.8808  2.1904
  153SAPE  H19S17030   0.546   1.804   8.862 -0.5756 -2.9778 -0.4063
  153SAPE  C22017031   0.407   1.817   8.684  0.1118  1.0182  0.2641
  153SAPE  H20R17032   0.311   1.777   8.647  0.7896 -1.1570  0.7129
  153SAPE  H20S17033   0.486   1.764   8.626 -0.2440  0.4733  0.2663
  153SAPE  H20T17034   0.402   1.924   8.655 -0.1174  1.6540  2.5345
  153SAPE   C3317035   0.881   1.851  10.035  0.0643  0.4626  0.2688
  153SAPE   H3X17036   0.915   1.946   9.987  2.3083  0.5038  1.7646
  153SAPE   H3Y17037   0.774   1.833  10.055  0.3853 -1.1720  0.6857
  153SAPE   C3417038   0.926   1.742   9.946  0.0008 -0.0660  0.0904
  153SAPE   H4X17039   0.880   1.648   9.982 -0.6971  0.1341 -0.2619
  153SAPE   H4Y17040   1.036   1.725   9.954 -0.2109 -0.6938  2.1476
  153SAPE   C3517041   0.878   1.754   9.797 -0.1372 -0.3913  0.0844
  153SAPE   H5X17042   0.914   1.670   9.734 -0.3748 -0.3575 -0.0979
  153SAPE   H5Y17043   0.917   1.845   9.746 -1.3922  0.1941  0.1288
  153SAPE   C3617044   0.724   1.761   9.786  0.2582  0.4842  0.9182
  153SAPE   H6X17045   0.680   1.858   9.817 -1.3030 -0.2210  1.0120
  153SAPE   H6Y17046   0.675   1.685   9.850  1.2668 -1.8790 -0.9549
  153SAPE   C3717047   0.674   1.730   9.648  0.3013  0.5389 -0.6288
  153SAPE   H7X17048   0.564   1.734   9.662  0.5938  0.9729  1.9190
  153SAPE   H7Y17049   0.699   1.626   9.617 -1.4661 -0.8455  2.1654
  153SAPE   C3817050   0.720   1.832   9.546 -0.4244  0.2215  0.6901
  153SAPE   H8X17051   0.743   1.920   9.611  2.8477 -0.8927  1.2583
  153SAPE   H8Y17052   0.633   1.855   9.481  0.9821  0.2827 -1.2591
  153SAPE   C3917053   0.834   1.790   9.452 -0.5622 -0.0617  0.2109
  153SAPE   H9X17054   0.809   1.698   9.395  0.2354 -0.3455  0.3066
  153SAPE   H9Y17055   0.933   1.773   9.500  0.4843 -0.4437 -1.9159
  153SAPE  C31017056   0.852   1.896   9.335  0.0247 -0.4466  0.2508
  153SAPE  H10X17057   0.951   1.879   9.286 -1.2859  0.0940 -2.8582
  153SAPE  H10Y17058   0.853   2.001   9.372  1.2296 -0.6692  0.9014
  153SAPE  C31117059   0.746   1.884   9.222 -1.0052  0.4408 -0.4384
  153SAPE  H11X17060   0.653   1.928   9.264 -1.4784  0.6439 -1.6502
  153SAPE  H11Y17061   0.737   1.778   9.187  1.5423  0.2678 -0.7505
  153SAPE  C31217062   0.773   1.960   9.085 -0.0648  0.2215  0.1365
  153SAPE  H12X17063   0.795   2.068   9.099  0.8664  0.2761 -1.5054
  153SAPE  H12Y17064   0.669   1.954   9.046  0.2121  0.3298 -0.6412
  153SAPE  C31317065   0.863   1.888   8.985  0.2627  0.3225  0.1351
  153SAPE  H13X17066   0.803   1.802   8.951 -0.9326  0.1795  2.3861
  153SAPE  H13Y17067   0.948   1.843   9.040  0.1735 -1.5284 -1.1513
  153SAPE  C31417068   0.907   1.959   8.858 -0.2453 -0.3770 -0.5613
  153SAPE  H14X17069   0.971   1.894   8.794  2.9063  0.7653  1.2266
  153SAPE  H14Y17070   0.983   2.039   8.869  0.9062 -1.6836  1.5533
  153SAPE  C31517071   0.786   2.005   8.769 -0.4064 -0.0418  0.2504
  153SAPE  H15X17072   0.715   2.055   8.838 -1.2063 -1.5254  0.5357
  153SAPE  H15Y17073   0.723   1.920   8.735 -1.8380  1.2516 -0.4662
  153SAPE  C31617074   0.817   2.109   8.660  0.4085  0.1595 -0.5861
  153SAPE  H16X17075   0.891   2.061   8.592  0.9285  1.8887 -1.2798
  153SAPE  H16Y17076   0.867   2.198   8.704 -0.5783 -0.5055  2.0538
  153SAPE  C31717077   0.691   2.147   8.574 -0.2781  0.1402  0.5061
  153SAPE  H17X17078   0.716   2.238   8.516  1.2082  0.9776  2.3461
  153SAPE  H17Y17079   0.617   2.173   8.653 -2.2821  0.6376 -1.4438
  153SAPE  C31817080   0.642   2.041   8.482 -0.0205  0.2071 -0.3044
  153SAPE  H18X17081   0.600   1.958   8.543  0.3351  0.8555  0.8524
  153SAPE  H18Y17082   0.713   2.005   8.404 -1.5489 -2.6124 -0.5414
  153SAPE  H18Z17083   0.558   2.077   8.418 -0.9675 -2.4924 -0.7048
  154SAPE     N17084   5.113   0.671  11.309  0.4903 -0.2908 -0.6366
  154SAPE   HN117085   5.164   0.650  11.397 -1.9212 -1.3592  0.6019
  154SAPE   HN217086   5.121   0.767  11.269 -0.6861  0.8307  1.6495
  154SAPE   HN317087   5.014   0.644  11.322  0.9823 -1.0978  2.0521
  154SAPE   C1217088   5.160   0.590  11.193 -0.1891  0.9415  0.4764
  154SAPE  H12A17089   5.134   0.484  11.217  1.7317  0.3718  0.2567
  154SAPE  H12B17090   5.268   0.610  11.172 -0.4060 -0.1961 -2.2151
  154SAPE   C1117091   5.079   0.635  11.069  0.0461 -0.4369 -0.7060
  154SAPE  H11A17092   5.118   0.574  10.985  2.2704 -1.3547  0.8864
  154SAPE  H11B17093   5.109   0.741  11.054  0.1588 -0.3669 -0.0170
  154SAPE     P17094   4.826   0.697  11.052  0.1785 -0.6743 -0.1782
  154SAPE   O1317095   4.699   0.647  11.116 -0.0676 -0.5795  0.0254
  154SAPE   O1417096   4.862   0.841  11.066  0.0442  0.0899  0.7760
  154SAPE   O1217097   4.944   0.616  11.110  0.2815 -0.0810 -0.1494
  154SAPE   O1117098   4.823   0.655  10.902  0.4133  0.3917  0.4633
  154SAPE    C117099   4.777   0.525  10.862 -0.5136 -0.4944 -0.6285
  154SAPE    HA17100   4.847   0.452  10.908  0.5175  0.8770  0.0390
  154SAPE    HB17101   4.684   0.496  10.915  0.4705 -0.1210  1.3740
  154SAPE    C217102   4.738   0.518  10.718  0.0760  0.5176  0.8513
  154SAPE    HS17103   4.713   0.415  10.685  0.3151  0.7251  0.0075
  154SAPE   O2117104   4.857   0.569  10.649  0.6388  0.1714  0.2149
  154SAPE   C2117105   4.944   0.482  10.597  1.1621 -0.2176  0.3017
  154SAPE   O2217106   4.945   0.362  10.610 -0.2112 -0.1990 -0.0713
  154SAPE   C2217107   5.034   0.563  10.499 -0.2098 -0.2203  0.3625
  154SAPE   H2R17108   4.969   0.624  10.433 -0.4660 -1.9033 -1.0162
  154SAPE   H2S17109   5.090   0.635  10.562  1.3801  0.3885 -1.6468
  154SAPE    C317110   4.616   0.597  10.675 -0.0414  0.8361 -0.1994
  154SAPE    HX17111   4.638   0.703  10.698 -1.1854  0.6963  1.8046
  154SAPE    HY17112   4.522   0.571  10.729  1.2641 -3.8852  0.2662
  154SAPE   O3117113   4.602   0.586  10.530  0.4399  0.3525  0.3797
  154SAPE   C3117114   4.529   0.489  10.483  0.7971 -0.8511  0.2349
  154SAPE   O3217115   4.487   0.391  10.545 -0.6834 -0.6152  0.1250
  154SAPE   C3217116   4.512   0.517  10.335  0.7111  0.6333 -0.4185
  154SAPE   H2X17117   4.505   0.625  10.307 -1.1412  1.1093  1.6017
  154SAPE   H2Y17118   4.421   0.463  10.304  0.5705  0.8966 -0.4639
  154SAPE   C2317119   5.124   0.488  10.395  0.1642  0.1586 -0.6578
  154SAPE   H3R17120   5.159   0.398  10.451 -3.3043 -0.9000  0.0375
  154SAPE   H3S17121   5.210   0.552  10.367  2.5025 -2.7619 -0.7029
  154SAPE   C2417122   5.046   0.461  10.274 -0.1099 -0.0806  0.6282
  154SAPE   H4R17123   5.045   0.552  10.211  0.7349  0.6294  1.5925
  154SAPE   H4S17124   4.937   0.442  10.287 -0.2533 -0.1674 -0.6178
  154SAPE   C2517125   5.110   0.344  10.200  0.2534  0.2506 -0.1189
  154SAPE   H5R17126   5.105   0.249  10.255  2.3371  0.6918  0.9169
  154SAPE   C2617127   5.176   0.345  10.089  0.2627  1.0020  0.5878
  154SAPE   H6R17128   5.212   0.251  10.045  0.7368  1.1628  0.6251
  154SAPE   C2717129   5.218   0.473  10.014  0.3256 -0.1431  0.0177
  154SAPE   H7R17130   5.327   0.472   9.992  0.3140  1.4968 -0.2330
  154SAPE   H7S17131   5.206   0.563  10.077 -1.1656  1.2404 -2.1217
  154SAPE   C2817132   5.126   0.495   9.897  0.5643 -0.2444 -0.2870
  154SAPE   H8R17133   5.029   0.540   9.923  1.3368  0.0235  2.4109
  154SAPE   C2917134   5.156   0.491   9.767 -0.1648  0.4783 -0.0089
  154SAPE   H9R17135   5.089   0.536   9.692  0.7163 -0.5960 -1.5203
  154SAPE  C21017136   5.293   0.454   9.710  0.2964  0.0021  0.0865
  154SAPE  H10R17137   5.359   0.422   9.794  1.1617  0.7826 -0.2792
  154SAPE  H10S17138   5.337   0.542   9.659  0.0909 -0.4193 -0.8299
  154SAPE  C21117139   5.287   0.343   9.609  0.3635 -0.4093  0.2191
  154SAPE  H11R17140   5.292   0.240   9.648 -1.1832 -0.2381  0.9350
  154SAPE  C21217141   5.261   0.359   9.474 -0.2928 -0.6449 -0.5989
  154SAPE  H12R17142   5.269   0.265   9.417 -0.4957 -1.3856  0.5660
  154SAPE  C21317143   5.235   0.485   9.399  1.1418  0.3857  0.3506
  154SAPE  H13R17144   5.268   0.572   9.461 -2.1897  0.4078  2.3026
  154SAPE  H13S17145   5.127   0.510   9.399  1.2922  1.5267  3.4757
  154SAPE  C21417146   5.309   0.486   9.263 -0.1056 -0.0479 -0.1857
  154SAPE  H14R17147   5.419   0.490   9.272 -0.0886  0.5638 -0.5884
  154SAPE  C21517148   5.253   0.467   9.149  0.6243  0.0730 -0.4897
  154SAPE  H15R17149   5.309   0.441   9.057 -2.3425 -1.7632 -1.9329
  154SAPE  C21617150   5.105   0.438   9.136 -0.6651 -0.5035  0.4957
  154SAPE  H16R17151   5.057   0.536   9.117 -0.6656 -0.8297 -1.3788
  154SAPE  H16S17152   5.057   0.401   9.229  0.0576 -0.3942  0.9219
  154SAPE  C21717153   5.061   0.343   9.013 -0.1082 -0.1366 -0.5237
  154SAPE  H17R17154   5.118   0.383   8.926  3.1165  0.1081  1.5209
  154SAPE  H17S17155   4.951   0.351   8.997  0.0404  0.5027 -1.2801
  154SAPE  C21817156   5.092   0.195   9.031 -0.2030 -0.2979  0.0663
  154SAPE  H18R17157   5.060   0.157   9.130  0.5648 -1.0964  0.0271
  154SAPE  H18S17158   5.202   0.184   9.016 -0.0329 -1.0155  1.6385
  154SAPE  C21917159   5.028   0.106   8.916 -0.1744 -1.3070 -0.6833
  154SAPE  H19R17160   5.045   0.155   8.818 -1.1457  3.8016  1.4042
  154SAPE  H19S17161   4.919   0.111   8.936 -0.1775 -1.3448 -0.6888
  154SAPE  C22017162   5.078  -0.040   8.911 -0.2423 -0.3179 -0.0727
  154SAPE  H20R17163   5.188  -0.035   8.921 -0.0575 -0.7922 -1.5947
  154SAPE  H20S17164   5.052  -0.090   8.815 -0.3268 -1.2894  0.4450
  154SAPE  H20T17165   5.036  -0.105   8.990  0.0150  0.1681  0.4655
  154SAPE   C3317166   4.624   0.453  10.244  0.0334 -0.3120 -0.5603
  154SAPE   H3X17167   4.717   0.450  10.304 -0.3910  1.9453  0.3081
  154SAPE   H3Y17168   4.644   0.516  10.155 -0.7794  2.4691  1.0962
  154SAPE   C3417169   4.581   0.312  10.207 -0.5904 -0.3893  0.1920
  154SAPE   H4X17170   4.490   0.319  10.143  1.1537 -0.5567 -2.5021
  154SAPE   H4Y17171   4.552   0.247  10.292 -0.5561 -1.0067 -0.2665
  154SAPE   C3517172   4.679   0.240  10.120 -0.6525 -0.0933 -0.1593
  154SAPE   H5X17173   4.641   0.138  10.098 -1.9923 -0.0334  1.6014
  154SAPE   H5Y17174   4.779   0.225  10.166 -1.3223 -2.6148  0.6122
  154SAPE   C3617175   4.709   0.319   9.998 -0.5787 -0.6316  0.4208
  154SAPE   H6X17176   4.776   0.404  10.021  1.6412 -1.9073 -0.9728
  154SAPE   H6Y17177   4.618   0.347   9.940  0.3303 -0.9644 -1.2591
  154SAPE   C3717178   4.775   0.231   9.887 -0.1738  0.2791  0.0934
  154SAPE   H7X17179   4.698   0.155   9.864 -0.9392  1.1005 -0.1202
  154SAPE   H7Y17180   4.859   0.173   9.933 -1.5388 -0.8338  1.2880
  154SAPE   C3817181   4.811   0.307   9.760  0.5335 -0.1226  0.2549
  154SAPE   H8X17182   4.860   0.405   9.782  1.8415 -0.2784 -1.6533
  154SAPE   H8Y17183   4.711   0.327   9.716 -0.2227 -1.7735  1.1762
  154SAPE   C3917184   4.893   0.247   9.642  0.1997 -0.0773  0.0445
  154SAPE   H9X17185   4.848   0.147   9.624 -1.7600  0.6051  0.9407
  154SAPE   H9Y17186   4.996   0.225   9.679  0.0136 -0.2675  0.4554
  154SAPE  C31017187   4.911   0.334   9.517 -0.3435  0.1465 -0.2503
  154SAPE  H10X17188   5.011   0.309   9.477 -0.1508 -3.0705  1.9176
  154SAPE  H10Y17189   4.919   0.443   9.536  1.7779  0.3672 -2.0455
  154SAPE  C31117190   4.798   0.317   9.411  0.5240 -0.4915 -0.0639
  154SAPE  H11X17191   4.824   0.380   9.323 -1.1978 -0.1865 -0.3973
  154SAPE  H11Y17192   4.701   0.350   9.454  0.1299 -1.2853 -0.3237
  154SAPE  C31217193   4.788   0.170   9.369 -0.9520 -0.0064 -0.5527
  154SAPE  H12X17194   4.736   0.113   9.448  1.2009  0.1214  1.0460
  154SAPE  H12Y17195   4.889   0.130   9.344 -1.4819 -0.8990 -1.3346
  154SAPE  C31317196   4.716   0.152   9.235  0.2513 -0.2106  0.4919
  154SAPE  H13X17197   4.773   0.216   9.163  0.1001  0.0238  0.5790
  154SAPE  H13Y17198   4.611   0.188   9.227  0.0133 -0.9979  0.0076
  154SAPE  C31417199   4.725   0.009   9.174 -0.1924  0.9064  0.3066
  154SAPE  H14X17200   4.687  -0.067   9.247  0.7905  0.3016  0.2003
  154SAPE  H14Y17201   4.832  -0.018   9.164  0.2355  2.7265 -0.3881
  154SAPE  C31517202   4.632   0.003   9.052  0.3929 -0.8028 -0.4596
  154SAPE  H15X17203   4.683   0.068   8.978  0.9144 -1.4008 -0.6292
  154SAPE  H15Y17204   4.531   0.042   9.078  0.7711 -1.6375  2.6528
  154SAPE  C31617205   4.616  -0.139   9.007 -1.0259 -0.7092 -0.3125
  154SAPE  H16X17206   4.575  -0.200   9.090 -2.0496 -0.7568 -0.8385
  154SAPE  H16Y17207   4.718  -0.182   8.994  0.1801  2.4116 -2.4783
  154SAPE  C31717208   4.548  -0.153   8.874  0.7457  0.2107 -0.3525
  154SAPE  H17X17209   4.596  -0.090   8.796  0.9721 -0.4512 -0.7594
  154SAPE  H17Y17210   4.443  -0.123   8.890  1.1685  0.9790  1.2051
  154SAPE  C31817211   4.539  -0.299   8.815 -0.4072  1.1874  0.3596
  154SAPE  H18X17212   4.452  -0.312   8.747 -0.7332 -2.6202  1.2802
  154SAPE  H18Y17213   4.534  -0.381   8.890 -0.3509 -0.1717 -1.0646
  154SAPE  H18Z17214   4.635  -0.308   8.759  0.3756  1.6066  1.6004
  155SAPE     N17215   3.124   4.192  10.850 -0.4921 -0.6330  0.0796
  155SAPE   HN117216   3.189   4.138  10.910 -0.8207 -1.1728 -0.0483
  155SAPE   HN217217   3.147   4.292  10.868 -1.4937 -0.3469 -0.2123
  155SAPE   HN317218   3.026   4.171  10.875 -0.0585 -1.1233  1.4821
  155SAPE   C1217219   3.152   4.162  10.706  0.8958  0.1215 -1.0580
  155SAPE  H12A17220   3.251   4.207  10.685  0.8939  0.2589 -0.7778
  155SAPE  H12B17221   3.077   4.211  10.640  1.1325 -0.2301 -1.5960
  155SAPE   C1117222   3.145   4.005  10.671  0.2844 -0.2996  0.2232
  155SAPE  H11A17223   3.173   3.989  10.564  2.3665  0.8417  0.5330
  155SAPE  H11B17224   3.039   3.979  10.691  0.1373  0.2873  0.2217
  155SAPE     P17225   3.208   3.783  10.777  0.5983  0.1347  0.5083
  155SAPE   O1317226   3.330   3.720  10.841 -0.7802 -0.2249  0.1504
  155SAPE   O1417227   3.076   3.762  10.845 -0.3421  0.0324 -0.2604
  155SAPE   O1217228   3.236   3.936  10.748  0.3625  0.5762 -0.3898
  155SAPE   O1117229   3.206   3.716  10.637 -0.2921  0.4464  0.3823
  155SAPE    C117230   3.324   3.729  10.550  0.6359 -0.0037  0.1465
  155SAPE    HA17231   3.290   3.711  10.446  0.2904 -0.6520  0.3638
  155SAPE    HB17232   3.379   3.825  10.558  1.5751 -0.7001  3.0346
  155SAPE    C217233   3.438   3.622  10.568 -0.5384 -0.4218 -0.1134
  155SAPE    HS17234   3.494   3.657  10.657  0.9709  1.2863 -1.6501
  155SAPE   O2117235   3.527   3.614  10.453  0.2617 -0.2180  0.2433
  155SAPE   C2117236   3.638   3.545  10.467  0.3272 -0.1436  0.0017
  155SAPE   O2217237   3.675   3.498  10.570 -0.0230 -0.3623  0.1059
  155SAPE   C2217238   3.703   3.529  10.334 -0.1416  0.0194 -0.3083
  155SAPE   H2R17239   3.741   3.425  10.341 -0.7753 -0.3231 -1.6062
  155SAPE   H2S17240   3.626   3.527  10.254 -0.5251 -3.6823 -0.0250
  155SAPE    C317241   3.380   3.483  10.588 -0.0430  0.5500 -0.2593
  155SAPE    HX17242   3.326   3.486  10.685 -0.1194 -0.5911 -0.2572
  155SAPE    HY17243   3.457   3.408  10.616 -0.2141  0.8626  1.1496
  155SAPE   O3117244   3.281   3.450  10.490 -0.5552  0.2236  0.5809
  155SAPE   C3117245   3.330   3.377  10.380 -0.0297  0.3360 -0.2171
  155SAPE   O3217246   3.443   3.336  10.379 -0.2688  0.2768  0.2952
  155SAPE   C3217247   3.225   3.354  10.278 -0.1523  0.5110  0.5770
  155SAPE   H2X17248   3.137   3.415  10.305 -0.0950  0.8860 -0.0716
  155SAPE   H2Y17249   3.188   3.251  10.297  0.0903  0.5511  1.2953
  155SAPE   C2317250   3.818   3.625  10.296  0.2155  0.2535 -0.2659
  155SAPE   H3R17251   3.858   3.593  10.197  0.2349 -3.1160  0.6948
  155SAPE   H3S17252   3.900   3.611  10.370  0.8294  0.8269 -0.8166
  155SAPE   C2417253   3.780   3.770  10.295 -0.5623  0.2447  0.5004
  155SAPE   H4R17254   3.710   3.799  10.376 -0.1693  1.9264  0.2862
  155SAPE   H4S17255   3.714   3.778  10.206 -0.7397 -0.0219  0.6067
  155SAPE   C2517256   3.893   3.872  10.296 -0.3001  0.3364  0.7029
  155SAPE   H5R17257   3.931   3.897  10.396 -0.7449 -1.3834  1.3274
  155SAPE   C2617258   3.938   3.935  10.188  1.0496 -1.7474 -0.7708
  155SAPE   H6R17259   4.018   4.008  10.209 -1.0318 -0.2507  2.8595
  155SAPE   C2717260   3.874   3.917  10.052 -0.0313  0.0837  1.0562
  155SAPE   H7R17261   3.890   4.008   9.990 -2.0642  0.2471  0.7216
  155SAPE   H7S17262   3.765   3.910  10.071 -0.0673  0.6346  1.0783
  155SAPE   C2817263   3.919   3.809   9.960 -0.5040  0.2755 -0.6454
  155SAPE   H8R17264   4.012   3.758   9.989  0.0786  0.5431 -1.9863
  155SAPE   C2917265   3.852   3.766   9.858 -0.0169  0.9540  0.3559
  155SAPE   H9R17266   3.892   3.685   9.795  1.5470  0.6277  1.6907
  155SAPE  C21017267   3.721   3.815   9.797  0.1872 -0.0820  0.6711
  155SAPE  H10R17268   3.692   3.911   9.844  0.0368 -0.1192  0.6532
  155SAPE  H10S17269   3.638   3.748   9.829  0.9878 -1.8223 -0.7168
  155SAPE  C21117270   3.719   3.814   9.640 -0.0585 -0.9765 -0.3515
  155SAPE  H11R17271   3.654   3.732   9.603 -0.2886 -1.6190  1.3835
  155SAPE  C21217272   3.790   3.896   9.553  0.2356 -0.0519 -0.2944
  155SAPE  H12R17273   3.775   3.888   9.445 -1.0358  0.4546 -0.1718
  155SAPE  C21317274   3.891   4.001   9.591  0.1660  0.4480 -0.0640
  155SAPE  H13R17275   3.900   4.004   9.702 -1.3947 -2.6976  0.2693
  155SAPE  H13S17276   3.841   4.100   9.587  1.4482  1.3164  2.6978
  155SAPE  C21417277   4.016   4.003   9.508 -0.3120  0.1316 -0.6403
  155SAPE  H14R17278   3.993   4.035   9.405  1.4398  1.2364 -0.7354
  155SAPE  C21517279   4.143   3.987   9.552 -0.2146 -0.0365  0.3602
  155SAPE  H15R17280   4.232   3.994   9.487 -1.5061 -4.4615 -2.2859
  155SAPE  C21617281   4.183   3.951   9.690 -0.2883  0.2391 -0.0500
  155SAPE  H16R17282   4.245   3.859   9.683 -0.8765 -0.1761  0.1951
  155SAPE  H16S17283   4.099   3.931   9.758 -0.5828 -0.7562 -0.6911
  155SAPE  C21717284   4.290   4.049   9.753  0.5328  0.2325 -0.0112
  155SAPE  H17R17285   4.253   4.151   9.778 -1.3464 -0.2042 -0.8115
  155SAPE  H17S17286   4.384   4.061   9.696  0.8457  0.7251  0.5963
  155SAPE  C21817287   4.331   3.983   9.885  0.2724  1.0541 -0.6567
  155SAPE  H18R17288   4.364   3.879   9.865 -1.7272  0.3607 -0.5753
  155SAPE  H18S17289   4.233   3.975   9.936  0.5659  0.9216 -0.1051
  155SAPE  C21917290   4.445   4.047   9.964 -0.0545  0.2372 -0.5194
  155SAPE  H19R17291   4.404   4.144   9.998 -1.7585 -0.8986  0.8272
  155SAPE  H19S17292   4.540   4.056   9.906  2.2813 -3.1235  2.3551
  155SAPE  C22017293   4.480   3.972  10.094 -0.0854  0.4494 -0.5093
  155SAPE  H20R17294   4.573   4.019  10.135 -0.6848 -0.2298  1.7384
  155SAPE  H20S17295   4.502   3.865  10.074  0.8593  0.7290 -1.0356
  155SAPE  H20T17296   4.403   3.987  10.172  0.0420  0.8609 -0.4595
  155SAPE   C3317297   3.266   3.368  10.134 -0.2967 -0.2373 -0.0447
  155SAPE   H3X17298   3.191   3.313  10.073 -0.5959  0.4908 -0.3323
  155SAPE   H3Y17299   3.367   3.328  10.110 -0.6012 -0.1432 -1.5261
  155SAPE   C3417300   3.255   3.514  10.085  0.0833  0.0736 -0.3156
  155SAPE   H4X17301   3.336   3.570  10.137  0.6742 -0.6105 -0.4727
  155SAPE   H4Y17302   3.153   3.555  10.103 -0.8841 -2.8924  1.7623
  155SAPE   C3517303   3.282   3.526   9.932  0.3840  0.6995  0.0429
  155SAPE   H5X17304   3.388   3.503   9.907 -0.0049 -0.9184 -0.2254
  155SAPE   H5Y17305   3.264   3.632   9.903  2.7931  0.9344 -0.8125
  155SAPE   C3617306   3.188   3.448   9.838 -0.0291  0.2170 -0.0089
  155SAPE   H6X17307   3.085   3.487   9.831 -0.0670  0.2230  0.5239
  155SAPE   H6Y17308   3.192   3.340   9.864 -1.5009  0.4850  1.5014
  155SAPE   C3717309   3.254   3.448   9.694  0.4928  0.0699  0.6773
  155SAPE   H7X17310   3.173   3.410   9.628  0.9307 -1.4442  0.9647
  155SAPE   H7Y17311   3.337   3.375   9.694 -2.1688 -3.2227 -0.1008
  155SAPE   C3817312   3.303   3.586   9.643 -0.4238 -0.4332  0.5801
  155SAPE   H8X17313   3.384   3.613   9.714 -0.5532 -1.3441  1.0860
  155SAPE   H8Y17314   3.223   3.661   9.632  0.1754  0.3272  1.3106
  155SAPE   C3917315   3.383   3.578   9.510  0.1434 -0.7271  0.5956
  155SAPE   H9X17316   3.455   3.493   9.511  0.0325 -0.8570 -0.6508
  155SAPE   H9Y17317   3.444   3.670   9.497 -0.1678 -0.5106  0.6559
  155SAPE  C31017318   3.283   3.576   9.384 -0.7254 -0.1921 -0.4197
  155SAPE  H10X17319   3.200   3.646   9.406 -1.0327  0.1595 -2.5226
  155SAPE  H10Y17320   3.247   3.471   9.381 -1.7229  0.0427  1.6593
  155SAPE  C31117321   3.355   3.606   9.253 -0.2414  0.2348 -0.5323
  155SAPE  H11X17322   3.302   3.557   9.168 -1.1887  0.4818 -0.0924
  155SAPE  H11Y17323   3.450   3.551   9.265 -0.6081 -0.5316 -1.0582
  155SAPE  C31217324   3.385   3.757   9.218  0.4498  0.5747 -0.6060
  155SAPE  H12X17325   3.418   3.816   9.306  2.7958 -2.1795  0.5291
  155SAPE  H12Y17326   3.289   3.807   9.194 -0.1352 -0.4101 -0.3477
  155SAPE  C31317327   3.478   3.779   9.090  0.1760  0.3797  0.5931
  155SAPE  H13X17328   3.581   3.743   9.105 -0.0021 -1.8753 -2.6388
  155SAPE  H13Y17329   3.490   3.886   9.062  0.4688  1.3399  3.9015
  155SAPE  C31417330   3.414   3.713   8.965 -0.5802  0.6717  0.3005
  155SAPE  H14X17331   3.430   3.603   8.975  1.0589  0.9225  0.7789
  155SAPE  H14Y17332   3.475   3.748   8.880  1.3989 -0.8317  1.0232
  155SAPE  C31517333   3.275   3.750   8.932 -0.0759  0.1313 -0.5326
  155SAPE  H15X17334   3.244   3.854   8.951  0.0923  0.0218  0.3947
  155SAPE  H15Y17335   3.218   3.680   8.996 -1.9753  0.5311 -1.7325
  155SAPE  C31617336   3.253   3.711   8.784  0.3015 -0.2267  0.2103
  155SAPE  H16X17337   3.271   3.602   8.772  0.3561 -0.1183 -0.7896
  155SAPE  H16Y17338   3.319   3.770   8.718 -0.6780  0.3979 -0.2250
  155SAPE  C31717339   3.107   3.731   8.752 -0.0915 -0.1601 -0.7849
  155SAPE  H17X17340   3.075   3.835   8.774  0.2551 -0.5312  1.7571
  155SAPE  H17Y17341   3.035   3.661   8.801  0.2464 -0.3397 -0.5414
  155SAPE  C31817342   3.072   3.698   8.613 -0.5848  0.4031 -0.2512
  155SAPE  H18X17343   2.963   3.686   8.599 -0.2589 -0.9626 -1.9853
  155SAPE  H18Y17344   3.106   3.594   8.593  0.1125  0.2617  1.4780
  155SAPE  H18Z17345   3.100   3.769   8.532 -1.4923  2.6618  1.3185
  156SAPE     N17346   3.423   6.207  10.643  0.2879 -0.0170  0.2884
  156SAPE   HN117347   3.430   6.307  10.615  0.8784 -0.1192  0.0428
  156SAPE   HN217348   3.324   6.178  10.654  0.1548  0.3247 -0.0252
  156SAPE   HN317349   3.473   6.183  10.731  1.7393 -0.8346 -0.7003
  156SAPE   C1217350   3.480   6.144  10.518 -0.1870 -0.1526 -0.0639
  156SAPE  H12A17351   3.448   6.038  10.508 -0.2616  0.0298 -2.1996
  156SAPE  H12B17352   3.590   6.150  10.532 -0.5757  3.3171  2.6671
  156SAPE   C1117353   3.432   6.213  10.387 -0.3408 -0.0094  0.0589
  156SAPE  H11A17354   3.321   6.211  10.388 -0.4129 -0.4960 -2.5113
  156SAPE  H11B17355   3.462   6.144  10.306  0.0968 -0.8979  0.9531
  156SAPE     P17356   3.382   6.472  10.407 -0.1016 -0.2221 -0.2122
  156SAPE   O1317357   3.362   6.468  10.553 -0.3510  0.4414  0.0452
  156SAPE   O1417358   3.436   6.598  10.357 -0.0683  0.0253  0.3880
  156SAPE   O1217359   3.483   6.346  10.373 -0.3507 -0.0311 -0.4160
  156SAPE   O1117360   3.250   6.431  10.333 -0.7790  0.3024 -0.4204
  156SAPE    C117361   3.235   6.432  10.194  0.8147  0.5611  0.1150
  156SAPE    HA17362   3.306   6.503  10.146 -0.2630  1.6885  0.1401
  156SAPE    HB17363   3.257   6.332  10.151  0.5987  1.2279 -1.6274
  156SAPE    C217364   3.092   6.485  10.160 -0.0680 -0.1307  0.8418
  156SAPE    HS17365   3.015   6.408  10.180 -0.2298 -0.2658 -0.2405
  156SAPE   O2117366   3.094   6.536  10.027 -0.4495 -0.3079 -0.2864
  156SAPE   C2117367   3.058   6.447   9.939  0.5475  0.5137 -0.1516
  156SAPE   O2217368   3.028   6.331   9.953  0.4178 -0.0267  0.0488
  156SAPE   C2217369   3.063   6.517   9.803  0.0342  0.3313  0.0706
  156SAPE   H2R17370   3.026   6.620   9.816  1.5684  0.8586  0.4142
  156SAPE   H2S17371   3.173   6.523   9.784  0.4604  1.2805  2.4589
  156SAPE    C317372   3.067   6.597  10.261 -0.4746  0.3092  0.2502
  156SAPE    HX17373   3.157   6.661  10.253 -1.0574  1.0701 -0.4394
  156SAPE    HY17374   3.047   6.544  10.357 -3.3252 -1.1501 -1.0282
  156SAPE   O3117375   2.956   6.672  10.219  0.3126  0.3408  0.2434
  156SAPE   C3117376   2.947   6.784  10.282 -0.3788  0.0330 -0.2079
  156SAPE   O3217377   3.011   6.809  10.383  0.3241  0.0312 -0.1819
  156SAPE   C3217378   2.836   6.874  10.236 -0.0275  0.4850 -0.2399
  156SAPE   H2X17379   2.804   6.946  10.315 -3.4447  0.5729 -1.5615
  156SAPE   H2Y17380   2.746   6.821  10.198  0.5545  0.4327 -1.6023
  156SAPE   C2317381   2.977   6.437   9.697 -0.3499  0.6449  0.2744
  156SAPE   H3R17382   2.880   6.407   9.741 -0.5547  1.6561  0.5314
  156SAPE   H3S17383   3.026   6.340   9.673 -1.2152  0.2637  0.0246
  156SAPE   C2417384   2.955   6.510   9.559 -0.5700  0.4104 -0.9657
  156SAPE   H4R17385   2.876   6.580   9.593 -0.8175 -0.1690 -0.3239
  156SAPE   H4S17386   2.892   6.449   9.491 -0.3777 -0.0074 -0.7728
  156SAPE   C2517387   3.063   6.578   9.475 -0.5002 -0.0957 -0.1719
  156SAPE   H5R17388   3.079   6.683   9.504 -0.2819 -0.1854  0.0314
  156SAPE   C2617389   3.127   6.530   9.361 -0.3064 -0.5496 -0.1621
  156SAPE   H6R17390   3.197   6.594   9.307  0.4416 -1.6737 -0.5639
  156SAPE   C2717391   3.119   6.390   9.311  0.3042  0.8654 -0.1352
  156SAPE   H7R17392   3.100   6.324   9.398 -2.0522  0.5455 -0.8481
  156SAPE   H7S17393   3.217   6.367   9.264 -0.5082 -1.1764 -0.9216
  156SAPE   C2817394   3.006   6.376   9.214  0.0796 -0.1124 -0.6657
  156SAPE   H8R17395   2.919   6.424   9.260  0.5058 -0.2988  0.3635
  156SAPE   C2917396   2.992   6.314   9.096 -0.5759 -0.9076  0.2216
  156SAPE   H9R17397   2.891   6.328   9.056 -0.1301  1.8266 -0.1392
  156SAPE  C21017398   3.093   6.239   9.001  0.9131  0.0114 -0.3537
  156SAPE  H10R17399   3.047   6.138   9.001 -1.1801  0.9152 -0.0368
  156SAPE  H10S17400   3.200   6.224   9.028  0.7000  1.5358  1.5595
  156SAPE  C21117401   3.093   6.297   8.860 -0.1913 -0.9040 -0.6822
  156SAPE  H11R17402   3.149   6.391   8.868  1.2322 -1.4740 -3.0198
  156SAPE  C21217403   3.035   6.260   8.740  0.0637  1.0610  0.6424
  156SAPE  H12R17404   3.037   6.334   8.658 -0.2015  2.7494  2.0925
  156SAPE  C21317405   2.958   6.131   8.712  0.2135  0.6141  0.1306
  156SAPE  H13R17406   3.011   6.054   8.772 -1.5457 -1.8766 -1.3176
  156SAPE  H13S17407   2.979   6.085   8.612  0.8239  1.2780 -0.0519
  156SAPE  C21417408   2.815   6.122   8.744 -0.7305  0.2807  0.2101
  156SAPE  H14R17409   2.801   6.151   8.849 -0.8672  0.1013  0.2421
  156SAPE  C21517410   2.707   6.090   8.677  0.0159 -0.2469 -0.0273
  156SAPE  H15R17411   2.610   6.087   8.728 -0.5114  2.2372 -0.7488
  156SAPE  C21617412   2.716   6.050   8.534  0.1197 -0.2066  0.6182
  156SAPE  H16R17413   2.624   5.993   8.511  0.4453 -0.4258 -0.1808
  156SAPE  H16S17414   2.800   5.979   8.516  0.2484  0.4087 -1.5314
  156SAPE  C21717415   2.715   6.168   8.432  0.5895 -0.0598  0.2236
  156SAPE  H17R17416   2.788   6.247   8.460  1.1991  0.6788 -3.0850
  156SAPE  H17S17417   2.613   6.211   8.439 -0.0634 -1.7748  3.1880
  156SAPE  C21817418   2.752   6.117   8.300 -0.2730 -0.0183  0.0939
  156SAPE  H18R17419   2.683   6.041   8.259  2.2414 -1.2964 -2.0651
  156SAPE  H18S17420   2.851   6.068   8.309 -1.1613 -2.4946 -2.2721
  156SAPE  C21917421   2.771   6.229   8.197  0.0616  0.1252 -1.1129
  156SAPE  H19R17422   2.848   6.295   8.242 -1.5065 -0.4962  2.9104
  156SAPE  H19S17423   2.673   6.280   8.203 -0.6448 -1.1594 -1.3730
  156SAPE  C22017424   2.806   6.160   8.061 -0.2159  0.1700 -0.1520
  156SAPE  H20R17425   2.906   6.115   8.043 -0.4538  0.2294 -1.8238
  156SAPE  H20S17426   2.798   6.235   7.980 -1.0720 -3.0215 -3.2615
  156SAPE  H20T17427   2.733   6.081   8.034 -1.3031  0.6006  1.3753
  156SAPE   C3317428   2.892   6.957  10.123 -0.1949  1.2185  0.5247
  156SAPE   H3X17429   2.986   7.005  10.158  1.2862 -0.7864 -0.5446
  156SAPE   H3Y17430   2.825   7.040  10.090 -0.5710  0.6483 -0.1727
  156SAPE   C3417431   2.901   6.888   9.983  0.3878 -0.1419  0.0480
  156SAPE   H4X17432   2.816   6.823   9.955  2.3866 -1.8040 -2.6815
  156SAPE   H4Y17433   2.996   6.829   9.982  0.8728  0.5893  1.2903
  156SAPE   C3517434   2.916   6.996   9.868 -0.2993 -0.8874  0.2989
  156SAPE   H5X17435   3.005   7.055   9.895 -0.3454 -1.1113  0.9514
  156SAPE   H5Y17436   2.826   7.057   9.887  1.6757  2.6616 -0.8934
  156SAPE   C3617437   2.919   6.937   9.719  0.0991 -0.8847 -0.1638
  156SAPE   H6X17438   2.841   6.860   9.701  0.2891 -1.7036  2.1937
  156SAPE   H6Y17439   3.018   6.891   9.699  0.6545  1.0420 -2.2145
  156SAPE   C3717440   2.913   7.049   9.605 -0.1012  0.7612 -0.0740
  156SAPE   H7X17441   3.000   7.117   9.614  0.9593 -0.3171 -1.7030
  156SAPE   H7Y17442   2.818   7.103   9.624 -0.2748 -0.1530  1.9906
  156SAPE   C3817443   2.919   6.987   9.467 -0.8609 -0.0228  0.0395
  156SAPE   H8X17444   2.852   6.898   9.472  1.1027 -1.5586  0.5993
  156SAPE   H8Y17445   3.026   6.957   9.459 -0.6981  0.5195  0.1642
  156SAPE   C3917446   2.901   7.088   9.350  0.4460 -0.4888 -0.6330
  156SAPE   H9X17447   2.982   7.160   9.375 -1.9910  2.5315 -0.9016
  156SAPE   H9Y17448   2.803   7.139   9.355  0.7021 -0.0693  0.5148
  156SAPE  C31017449   2.937   7.040   9.220 -0.7412  0.6746  0.7669
  156SAPE  H10X17450   3.046   7.016   9.215 -0.3875  2.3127 -0.1189
  156SAPE  H10Y17451   2.928   7.122   9.146 -1.3310  0.0669  0.1590
  156SAPE  C31117452   2.860   6.917   9.179  0.3651  0.3824 -0.0478
  156SAPE  H11X17453   2.755   6.920   9.213 -0.3007 -1.2242 -1.7871
  156SAPE  H11Y17454   2.911   6.835   9.233 -3.1412 -0.9104  1.5497
  156SAPE  C31217455   2.879   6.882   9.028  1.1439 -0.1279 -0.6410
  156SAPE  H12X17456   2.827   6.956   8.963  1.7233 -0.4179 -1.4390
  156SAPE  H12Y17457   2.819   6.789   9.020 -0.4137  0.5834  1.6394
  156SAPE  C31317458   3.019   6.854   8.982 -0.0812  0.4320 -0.5379
  156SAPE  H13X17459   3.055   6.777   9.054 -2.4639 -0.3005 -0.0602
  156SAPE  H13Y17460   3.080   6.947   8.980  0.8408 -0.1394  0.0327
  156SAPE  C31417461   3.027   6.792   8.843 -0.0052  0.6374  0.0451
  156SAPE  H14X17462   2.946   6.834   8.780 -1.6949 -1.4155  0.7666
  156SAPE  H14Y17463   2.998   6.685   8.850 -0.4980  0.6719 -1.3315
  156SAPE  C31517464   3.166   6.797   8.773 -0.0879 -1.0302 -0.0975
  156SAPE  H15X17465   3.206   6.900   8.782 -0.4144 -1.0180  1.6215
  156SAPE  H15Y17466   3.154   6.755   8.671 -0.7304 -1.9899  0.3607
  156SAPE  C31617467   3.253   6.702   8.841  0.1276  0.0468  0.1740
  156SAPE  H16X17468   3.201   6.614   8.883 -2.1589  1.7736  1.1808
  156SAPE  H16Y17469   3.284   6.767   8.926 -0.7927  0.4486  0.2154
  156SAPE  C31717470   3.368   6.646   8.756  0.3046 -0.3562  0.6287
  156SAPE  H17X17471   3.370   6.715   8.669 -2.0063 -0.7355  0.2244
  156SAPE  H17Y17472   3.337   6.558   8.696  0.8265  1.9476 -3.4102
  156SAPE  C31817473   3.499   6.620   8.827 -0.8456 -0.3189 -0.7854
  156SAPE  H18X17474   3.544   6.711   8.872 -0.7949 -0.2543 -0.9692
  156SAPE  H18Y17475   3.572   6.575   8.757  0.0250  0.5469 -0.4493
  156SAPE  H18Z17476   3.482   6.551   8.913 -1.0069  1.1550  0.4046
  157SAPE     N17477   5.903   1.269  10.775  0.2372  0.1253  0.3861
  157SAPE   HN117478   5.902   1.272  10.671 -0.5564  1.4647  0.4043
  157SAPE   HN217479   5.810   1.233  10.806  0.9344 -1.9739  0.1834
  157SAPE   HN317480   5.925   1.368  10.802  0.9222  0.1335 -0.1753
  157SAPE   C1217481   6.009   1.187  10.827 -0.2930 -0.8017  0.0723
  157SAPE  H12A17482   5.994   1.161  10.934  3.6383 -0.1419  0.9221
  157SAPE  H12B17483   6.107   1.239  10.819 -0.5379 -0.4000 -0.3788
  157SAPE   C1117484   6.018   1.049  10.744  0.1389 -0.5135 -0.4960
  157SAPE  H11A17485   6.123   1.014  10.740  0.4649  0.5371 -1.9303
  157SAPE  H11B17486   5.997   1.074  10.638 -1.7399 -1.9638 -0.5101
  157SAPE     P17487   5.911   0.811  10.814  0.2981  0.0759 -0.3800
  157SAPE   O1317488   6.047   0.754  10.801  0.2924  0.1481 -0.5143
  157SAPE   O1417489   5.841   0.796  10.944  0.0665 -0.1750  0.8285
  157SAPE   O1217490   5.914   0.960  10.778 -0.4161 -0.1266  0.4748
  157SAPE   O1117491   5.823   0.755  10.698 -0.0289 -0.0106  0.2519
  157SAPE    C117492   5.698   0.805  10.654 -0.3701 -0.2609  0.6406
  157SAPE    HA17493   5.615   0.740  10.688  0.2422 -2.3692 -1.6376
  157SAPE    HB17494   5.687   0.909  10.692 -0.2368  1.1028 -2.6466
  157SAPE    C217495   5.699   0.819  10.496  0.5329  0.0956  0.7015
  157SAPE    HS17496   5.618   0.889  10.469 -1.2775 -1.7867  1.0130
  157SAPE   O2117497   5.679   0.686  10.436  0.4170 -0.0466 -0.0097
  157SAPE   C2117498   5.559   0.636  10.454 -0.2202  0.1819 -0.1156
  157SAPE   O2217499   5.462   0.692  10.508 -0.5209  0.1677 -0.3022
  157SAPE   C2217500   5.557   0.497  10.413 -0.1626 -0.7457  0.3347
  157SAPE   H2R17501   5.660   0.456  10.425  0.4577  1.2695  2.8282
  157SAPE   H2S17502   5.494   0.449  10.491 -1.6735  1.4901  0.5548
  157SAPE    C317503   5.835   0.878  10.442  0.1336  0.1758 -0.5845
  157SAPE    HX17504   5.910   0.796  10.447  1.1669  1.1482  0.8405
  157SAPE    HY17505   5.880   0.955  10.509 -0.2420  1.3520 -1.6443
  157SAPE   O3117506   5.817   0.921  10.302  0.0641  1.0969  0.4669
  157SAPE   C3117507   5.752   1.035  10.283  0.5569 -0.3555  0.5212
  157SAPE   O3217508   5.702   1.110  10.372 -0.1815  0.2726  0.2562
  157SAPE   C3217509   5.770   1.080  10.139 -0.6938  0.3621  0.2317
  157SAPE   H2X17510   5.696   1.021  10.081 -0.9029 -0.4671  1.3138
  157SAPE   H2Y17511   5.875   1.051  10.115 -0.2824 -1.1013  3.2439
  157SAPE   C2317512   5.501   0.477  10.271  0.1307 -0.3653 -0.4835
  157SAPE   H3R17513   5.417   0.544  10.244 -0.3541 -0.9583 -0.4772
  157SAPE   H3S17514   5.458   0.374  10.274 -1.3353  0.1018 -2.7001
  157SAPE   C2417515   5.611   0.475  10.158  0.7283 -0.2347  0.3768
  157SAPE   H4R17516   5.571   0.457  10.056 -0.7187  1.3643  0.6108
  157SAPE   H4S17517   5.655   0.380  10.195 -2.4866 -1.3238  1.8020
  157SAPE   C2517518   5.697   0.601  10.149  0.0778 -0.0625  0.1265
  157SAPE   H5R17519   5.752   0.619  10.242  1.2607  4.4088 -1.1743
  157SAPE   C2617520   5.698   0.683  10.040 -0.3961 -0.5761 -0.1684
  157SAPE   H6R17521   5.753   0.776  10.061  0.0278 -1.2082  1.7339
  157SAPE   C2717522   5.622   0.667   9.909 -0.3198 -0.3465  0.2425
  157SAPE   H7R17523   5.513   0.676   9.924 -0.3754 -0.1200 -0.2836
  157SAPE   H7S17524   5.652   0.566   9.874 -0.9631 -0.3352 -0.3583
  157SAPE   C2817525   5.679   0.766   9.807  0.2584  0.3650 -0.4601
  157SAPE   H8R17526   5.644   0.867   9.830 -0.2719  0.2210 -0.5955
  157SAPE   C2917527   5.759   0.748   9.698  0.1202  0.1272 -0.7504
  157SAPE   H9R17528   5.802   0.834   9.644  0.1627 -1.4274 -3.3458
  157SAPE  C21017529   5.815   0.617   9.654 -0.7675 -0.5208 -0.4185
  157SAPE  H10R17530   5.795   0.538   9.730 -2.3608 -0.2348 -0.5049
  157SAPE  H10S17531   5.922   0.634   9.633 -0.4388 -1.4220  0.4623
  157SAPE  C21117532   5.729   0.580   9.534 -0.8423 -0.0907  0.2252
  157SAPE  H11R17533   5.636   0.524   9.549 -1.3190 -0.2169 -2.5781
  157SAPE  C21217534   5.736   0.618   9.406  0.2795 -1.1659 -1.0621
  157SAPE  H12R17535   5.657   0.596   9.333 -0.5204  0.5435 -0.7584
  157SAPE  C21317536   5.846   0.721   9.361  0.0312  1.1104  1.1912
  157SAPE  H13R17537   5.917   0.674   9.289  0.8591  1.6175  1.6595
  157SAPE  H13S17538   5.911   0.772   9.435 -3.3016  3.4437  2.7634
  157SAPE  C21417539   5.779   0.836   9.283 -0.2019 -0.8225  0.0831
  157SAPE  H14R17540   5.782   0.929   9.342 -2.0581 -0.2868 -0.5794
  157SAPE  C21517541   5.721   0.828   9.159  0.0379 -0.6959 -0.6788
  157SAPE  H15R17542   5.672   0.916   9.115 -0.8324 -0.3261  0.9414
  157SAPE  C21617543   5.710   0.709   9.070  0.2353 -1.1546 -0.5009
  157SAPE  H16R17544   5.727   0.614   9.126 -0.4276 -0.5221  0.8219
  157SAPE  H16S17545   5.778   0.715   8.983 -0.4179 -0.9657 -1.0120
  157SAPE  C21717546   5.564   0.709   9.015 -0.3612  0.9298  0.6515
  157SAPE  H17R17547   5.539   0.803   8.961 -1.0880 -0.1786 -1.0035
  157SAPE  H17S17548   5.495   0.681   9.098  0.9520 -1.1698  1.1161
  157SAPE  C21817549   5.559   0.596   8.900 -0.5892 -0.3374 -0.4897
  157SAPE  H18R17550   5.586   0.500   8.948 -0.7843 -1.3469 -2.2859
  157SAPE  H18S17551   5.624   0.627   8.816 -0.5478 -0.7317 -0.6059
  157SAPE  C21917552   5.418   0.585   8.834  0.5980  0.3101 -1.3742
  157SAPE  H19R17553   5.397   0.669   8.766  1.9163  2.7071  0.9817
  157SAPE  H19S17554   5.343   0.595   8.916  2.3874 -0.7745  0.5141
  157SAPE  C22017555   5.408   0.453   8.751  0.1811 -0.0817 -0.4768
  157SAPE  H20R17556   5.461   0.475   8.656  1.9372  0.7762  0.6493
  157SAPE  H20S17557   5.300   0.433   8.735 -0.0083  1.0068 -0.6381
  157SAPE  H20T17558   5.453   0.360   8.793 -1.2252 -0.0150  1.3001
  157SAPE   C3317559   5.749   1.228  10.114  0.2136  0.5172  0.1265
  157SAPE   H3X17560   5.823   1.283  10.177 -0.4620  1.3398  0.2105
  157SAPE   H3Y17561   5.646   1.259  10.141  0.5305  3.1322 -1.3173
  157SAPE   C3417562   5.785   1.259   9.973  0.1998  0.0544  0.2820
  157SAPE   H4X17563   5.884   1.218   9.945  0.6687  0.4755  1.2957
  157SAPE   H4Y17564   5.783   1.370   9.961  1.9204  0.1094  0.3840
  157SAPE   C3517565   5.686   1.210   9.857 -0.4632 -0.2426  0.4837
  157SAPE   H5X17566   5.590   1.266   9.855 -1.4243 -1.8425 -1.7161
  157SAPE   H5Y17567   5.665   1.103   9.880 -1.5424 -0.0763  0.3253
  157SAPE   C3617568   5.755   1.237   9.721  0.4492 -1.5020  0.2876
  157SAPE   H6X17569   5.841   1.168   9.710  0.4613 -1.2521 -1.3157
  157SAPE   H6Y17570   5.788   1.343   9.729 -1.8371 -0.6839 -0.3200
  157SAPE   C3717571   5.653   1.224   9.606  0.2457 -0.2767 -0.0414
  157SAPE   H7X17572   5.590   1.315   9.617 -1.0695 -0.9332 -1.6878
  157SAPE   H7Y17573   5.595   1.130   9.608  0.7659 -0.5897  0.7625
  157SAPE   C3817574   5.718   1.241   9.467 -0.3876  0.4438 -0.2460
  157SAPE   H8X17575   5.813   1.183   9.459 -1.9711 -2.4021  0.3468
  157SAPE   H8Y17576   5.732   1.352   9.465 -1.5708  0.5962 -1.4331
  157SAPE   C3917577   5.614   1.215   9.354 -0.5438  0.1115 -0.9573
  157SAPE   H9X17578   5.510   1.240   9.384 -0.6856  1.0015 -2.1258
  157SAPE   H9Y17579   5.613   1.108   9.326 -1.6606 -0.0461 -0.3565
  157SAPE  C31017580   5.654   1.309   9.237  0.5758  0.2258 -0.7369
  157SAPE  H10X17581   5.765   1.298   9.230  0.4689 -2.5478  0.7083
  157SAPE  H10Y17582   5.635   1.417   9.252 -0.9025  0.1163 -1.6360
  157SAPE  C31117583   5.594   1.265   9.105  0.2658 -0.0938 -0.2482
  157SAPE  H11X17584   5.485   1.267   9.126  0.6253 -0.5006  1.9188
  157SAPE  H11Y17585   5.633   1.163   9.085 -0.1211 -0.5131  1.0302
  157SAPE  C31217586   5.636   1.364   8.989  0.0308  0.3607 -0.1038
  157SAPE  H12X17587   5.742   1.397   8.991 -0.4282  2.5914 -3.6124
  157SAPE  H12Y17588   5.567   1.450   9.005  0.6828  0.5153  2.2743
  157SAPE  C31317589   5.608   1.309   8.847  0.3696  0.7079  0.9944
  157SAPE  H13X17590   5.498   1.301   8.832  0.3789 -0.2042  1.3225
  157SAPE  H13Y17591   5.641   1.205   8.828  0.2965  0.9311 -0.5054
  157SAPE  C31417592   5.641   1.397   8.726  0.5669  0.1231  0.4065
  157SAPE  H14X17593   5.749   1.424   8.733  1.4193 -2.6439 -0.6059
  157SAPE  H14Y17594   5.581   1.488   8.745  3.9777  2.3259  1.5020
  157SAPE  C31517595   5.612   1.335   8.586 -0.6756  0.0909 -0.1188
  157SAPE  H15X17596   5.617   1.422   8.518  2.5591  1.0462  1.1480
  157SAPE  H15Y17597   5.514   1.282   8.589 -0.5961 -0.1230 -0.9872
  157SAPE  C31617598   5.729   1.247   8.541  0.3216 -0.3757  0.0471
  157SAPE  H16X17599   5.712   1.144   8.578  1.5334 -0.4866  0.3329
  157SAPE  H16Y17600   5.822   1.278   8.592  0.9857 -1.4929 -0.4402
  157SAPE  C31717601   5.740   1.225   8.386 -0.2350 -0.1689 -0.1215
  157SAPE  H17X17602   5.761   1.318   8.330  0.5586 -0.0966  0.2821
  157SAPE  H17Y17603   5.644   1.186   8.348 -0.5176  0.2058  0.1979
  157SAPE  C31817604   5.863   1.136   8.347 -0.4855  0.1645  0.3994
  157SAPE  H18X17605   5.909   1.160   8.249  2.5748 -1.7672  1.2104
  157SAPE  H18Y17606   5.821   1.033   8.345 -2.0815  0.7870 -1.6029
  157SAPE  H18Z17607   5.946   1.138   8.421  0.2338 -2.2688 -0.2335
  158SAPE     N17608   1.786   0.655  10.564 -0.2962 -0.4837 -0.5139
  158SAPE   HN117609   1.874   0.707  10.581 -2.1634  3.6281 -2.0594
  158SAPE   HN217610   1.799   0.587  10.487  1.9403  1.1079 -1.6542
  158SAPE   HN317611   1.713   0.727  10.545 -0.0654 -0.3169 -0.7636
  158SAPE   C1217612   1.741   0.571  10.679 -0.0871 -0.2959  1.3698
  158SAPE  H12A17613   1.633   0.549  10.665  0.0481 -0.4277  0.4218
  158SAPE  H12B17614   1.755   0.635  10.769  2.0486 -0.3909  1.1595
  158SAPE   C1117615   1.821   0.450  10.703 -0.1008  0.4156 -0.5473
  158SAPE  H11A17616   1.822   0.394  10.608 -0.7783 -1.0164  0.2677
  158SAPE  H11B17617   1.780   0.393  10.789  1.8891  1.3901  1.1633
  158SAPE     P17618   2.076   0.408  10.752  0.0089 -0.1169 -0.0351
  158SAPE   O1317619   2.190   0.497  10.788 -0.2664  0.1731  0.2431
  158SAPE   O1417620   2.048   0.290  10.836  0.4176 -0.0384  0.1217
  158SAPE   O1217621   1.953   0.503  10.735  0.5289 -0.2230 -0.6662
  158SAPE   O1117622   2.099   0.353  10.607 -0.4463 -0.2921  0.8519
  158SAPE    C117623   2.189   0.417  10.517  0.0519  0.3035 -0.9974
  158SAPE    HA17624   2.244   0.498  10.568 -0.9138  0.4659 -0.1942
  158SAPE    HB17625   2.262   0.349  10.467  2.9080  2.0467  0.5511
  158SAPE    C217626   2.103   0.470  10.391 -0.8858 -0.4042 -0.5685
  158SAPE    HS17627   2.034   0.540  10.443  0.4948 -0.2414  1.1636
  158SAPE   O2117628   2.043   0.367  10.321  0.1760  0.5640  0.4818
  158SAPE   C2117629   1.914   0.378  10.307  0.2109 -0.4737  0.0551
  158SAPE   O2217630   1.843   0.464  10.357  0.0882 -0.0423 -0.5084
  158SAPE   C2217631   1.867   0.265  10.207  0.4245 -0.1291  0.0936
  158SAPE   H2R17632   1.915   0.168  10.233  0.4698  0.0867  0.8280
  158SAPE   H2S17633   1.756   0.261  10.216  0.2586 -3.8286 -1.5655
  158SAPE    C317634   2.185   0.556  10.291 -0.4554  0.7629  0.4684
  158SAPE    HX17635   2.257   0.491  10.237 -0.8788 -1.1018  2.0221
  158SAPE    HY17636   2.240   0.624  10.360  1.2014 -0.5807  0.5306
  158SAPE   O3117637   2.095   0.624  10.208  0.0111  0.2504  0.6229
  158SAPE   C3117638   2.106   0.612  10.075 -0.3473 -0.3416  0.1572
  158SAPE   O3217639   2.180   0.537  10.010 -0.0796 -0.2935 -0.7910
  158SAPE   C3217640   1.999   0.696  10.007  0.0117  0.4046  0.0914
  158SAPE   H2X17641   2.007   0.790  10.065  2.0222 -0.0269  0.5887
  158SAPE   H2Y17642   1.899   0.646  10.012  0.1682 -0.3635 -2.7990
  158SAPE   C2317643   1.899   0.305  10.060  0.4241 -0.3660 -0.3800
  158SAPE   H3R17644   2.007   0.297  10.036  0.5911  0.6765 -0.0249
  158SAPE   H3S17645   1.868   0.412  10.050  3.3328  0.5302 -0.6721
  158SAPE   C2417646   1.811   0.246   9.955  0.4933  0.0220 -0.0149
  158SAPE   H4R17647   1.802   0.306   9.862 -0.6151 -1.1609 -0.6922
  158SAPE   H4S17648   1.708   0.239   9.995  0.8327 -1.4517  0.6931
  158SAPE   C2517649   1.861   0.110   9.908  0.1539 -0.1758 -0.1578
  158SAPE   H5R17650   1.912   0.062   9.993  0.8193  0.2434 -0.3083
  158SAPE   C2617651   1.860   0.066   9.781 -0.1682  0.6460  0.1598
  158SAPE   H6R17652   1.916  -0.028   9.767 -1.0672  0.3030 -1.2539
  158SAPE   C2717653   1.810   0.133   9.657 -0.1577  0.1082  0.5928
  158SAPE   H7R17654   1.720   0.195   9.673 -0.4810 -0.2522  0.2067
  158SAPE   H7S17655   1.774   0.051   9.590 -0.1983 -2.9402  4.0293
  158SAPE   C2817656   1.920   0.208   9.599 -0.3784 -0.3077 -0.3020
  158SAPE   H8R17657   1.941   0.309   9.639 -0.4483 -0.6345  0.5988
  158SAPE   C2917658   1.991   0.174   9.488 -0.3603  0.2000 -0.7962
  158SAPE   H9R17659   2.073   0.241   9.458 -0.0916  0.0517 -0.3965
  158SAPE  C21017660   1.969   0.041   9.411  0.2750 -0.3457  0.4199
  158SAPE  H10R17661   1.997   0.058   9.305  0.1597  0.1064  0.4607
  158SAPE  H10S17662   1.865   0.006   9.402  0.6281 -1.2596 -0.2436
  158SAPE  C21117663   2.052  -0.069   9.479  0.0254  0.0877  0.3471
  158SAPE  H11R17664   2.153  -0.038   9.507 -0.4309  0.4131  1.6725
  158SAPE  C21217665   2.022  -0.194   9.509  0.2431  0.1279  0.2607
  158SAPE  H12R17666   2.100  -0.250   9.562  0.5205  0.2252 -0.0379
  158SAPE  C21317667   1.889  -0.259   9.485 -0.6948  0.0996 -0.5082
  158SAPE  H13R17668   1.857  -0.252   9.379 -0.4787 -2.1003 -0.7680
  158SAPE  H13S17669   1.806  -0.208   9.538 -0.0290  0.7643 -0.0831
  158SAPE  C21417670   1.885  -0.409   9.535  0.4064 -0.2669  0.4304
  158SAPE  H14R17671   1.898  -0.483   9.454  1.5444  0.2099  0.1614
  158SAPE  C21517672   1.861  -0.448   9.659  0.0468 -0.2975 -0.3506
  158SAPE  H15R17673   1.849  -0.557   9.673  2.1807 -0.5177  0.1204
  158SAPE  C21617674   1.833  -0.363   9.782  0.2327 -0.1138  0.6020
  158SAPE  H16R17675   1.745  -0.396   9.841 -0.8086  3.3318  1.1971
  158SAPE  H16S17676   1.820  -0.255   9.760  0.1478 -0.3426 -0.5456
  158SAPE  C21717677   1.961  -0.365   9.872 -0.2605 -0.5568 -0.5996
  158SAPE  H17R17678   2.038  -0.321   9.805 -1.1264 -0.8083 -1.7871
  158SAPE  H17S17679   1.992  -0.471   9.877 -0.8413 -0.7317 -0.6388
  158SAPE  C21817680   1.941  -0.302  10.011  0.9122 -0.2600  0.3962
  158SAPE  H18R17681   1.874  -0.362  10.076  0.9843  1.3913  2.1063
  158SAPE  H18S17682   1.902  -0.199   9.997  2.5963  0.2674 -0.8293
  158SAPE  C21917683   2.067  -0.285  10.107 -0.3304 -0.5696  0.7579
  158SAPE  H19R17684   2.088  -0.390  10.135 -2.6364 -2.0780 -2.5509
  158SAPE  H19S17685   2.025  -0.229  10.193 -1.7585  2.2919 -1.6021
  158SAPE  C22017686   2.192  -0.217  10.045  0.1336 -0.4345  0.2651
  158SAPE  H20R17687   2.217  -0.279   9.956  0.4865 -3.2372  2.1763
  158SAPE  H20S17688   2.277  -0.227  10.116  1.2798  1.7609 -0.7320
  158SAPE  H20T17689   2.177  -0.111  10.017  2.6324 -0.1780 -0.3109
  158SAPE   C3317690   2.033   0.731   9.859  0.5731 -0.6030 -0.6196
  158SAPE   H3X17691   2.143   0.731   9.839  0.5833 -1.2059 -0.5698
  158SAPE   H3Y17692   1.991   0.829   9.828  2.1736  1.7447  3.7979
  158SAPE   C3417693   1.973   0.622   9.768 -0.1596  0.0546  0.2662
  158SAPE   H4X17694   1.865   0.625   9.794 -0.2771 -1.0840 -0.0067
  158SAPE   H4Y17695   2.017   0.527   9.805 -0.8474  0.8100  3.2426
  158SAPE   C3517696   2.006   0.629   9.619  0.2682  0.1505  1.1372
  158SAPE   H5X17697   1.989   0.731   9.576  2.7649 -0.5759 -2.0218
  158SAPE   H5Y17698   1.965   0.555   9.547  0.7325  0.8932  0.0767
  158SAPE   C3617699   2.162   0.615   9.605  0.2407  0.3816 -0.6130
  158SAPE   H6X17700   2.199   0.537   9.675 -1.9222  1.2159  1.6128
  158SAPE   H6Y17701   2.213   0.707   9.639 -0.5702  0.6930 -0.2018
  158SAPE   C3717702   2.196   0.613   9.456  0.0530  0.1199 -0.4689
  158SAPE   H7X17703   2.116   0.655   9.393 -0.7566 -0.5568  0.0882
  158SAPE   H7Y17704   2.202   0.504   9.437 -1.9567  0.0595 -0.9265
  158SAPE   C3817705   2.332   0.673   9.413 -0.3323 -0.7234  0.9429
  158SAPE   H8X17706   2.399   0.646   9.497  1.5168 -0.2218 -0.2918
  158SAPE   H8Y17707   2.333   0.784   9.407 -0.1018 -0.7788 -2.8113
  158SAPE   C3917708   2.396   0.603   9.289 -0.5386  0.9472  0.6329
  158SAPE   H9X17709   2.357   0.659   9.202 -0.3426  1.7542  1.0599
  158SAPE   H9Y17710   2.362   0.499   9.268  0.4671  1.2526 -3.2046
  158SAPE  C31017711   2.549   0.601   9.287  0.1934  0.0743 -0.5050
  158SAPE  H10X17712   2.588   0.542   9.373 -0.4938 -1.3958 -1.1583
  158SAPE  H10Y17713   2.587   0.704   9.304  1.3529 -0.6944  1.9151
  158SAPE  C31117714   2.605   0.547   9.157 -0.4707 -0.2637  0.0495
  158SAPE  H11X17715   2.522   0.529   9.086 -0.7746  1.1937  0.0033
  158SAPE  H11Y17716   2.660   0.453   9.179 -0.1235  0.4222  2.4155
  158SAPE  C31217717   2.706   0.637   9.081  0.2255  0.3025  0.8041
  158SAPE  H12X17718   2.787   0.679   9.144  1.2612 -3.2843  2.1215
  158SAPE  H12Y17719   2.648   0.719   9.035 -2.1972 -2.1421 -0.8414
  158SAPE  C31317720   2.767   0.544   8.973  0.5819 -0.3544 -0.3821
  158SAPE  H13X17721   2.697   0.521   8.890  0.9406  0.3704 -0.9004
  158SAPE  H13Y17722   2.797   0.447   9.019  0.9177 -0.5881 -1.0843
  158SAPE  C31417723   2.885   0.614   8.906 -0.0635  0.4615 -0.3750
  158SAPE  H14X17724   2.941   0.661   8.989 -0.3558 -1.2364  0.8472
  158SAPE  H14Y17725   2.838   0.690   8.840  2.0414  1.0610 -1.2583
  158SAPE  C31517726   2.983   0.531   8.822 -0.2642  0.3471  0.6491
  158SAPE  H15X17727   3.052   0.477   8.891  1.8561  0.1718 -1.5077
  158SAPE  H15Y17728   3.055   0.593   8.765  0.3573 -0.1831  0.8449
  158SAPE  C31617729   2.914   0.448   8.719 -0.4370  0.8043 -0.0535
  158SAPE  H16X17730   2.828   0.507   8.682  0.6135  3.2767  1.2051
  158SAPE  H16Y17731   2.880   0.353   8.765 -1.3729  0.8263 -0.6705
  158SAPE  C31717732   3.003   0.398   8.606  0.2987 -0.7727  0.5820
  158SAPE  H17X17733   3.068   0.320   8.652  0.9465  0.1169  1.2360
  158SAPE  H17Y17734   3.056   0.489   8.571 -0.7314 -0.0542  0.8499
  158SAPE  C31817735   2.924   0.339   8.491  0.1562  0.9146  0.0603
  158SAPE  H18X17736   2.990   0.308   8.407  0.0243  0.2487  0.2013
  158SAPE  H18Y17737   2.850   0.411   8.451  1.8981  2.0463 -1.3302
  158SAPE  H18Z17738   2.877   0.244   8.522  0.3417  1.3700  1.8429
  159SAPE     N17739   3.292   5.347   6.163  0.3548  0.0120  0.3523
  159SAPE   HN117740   3.272   5.367   6.263 -1.4473  0.2485 -0.0114
  159SAPE   HN217741   3.203   5.382   6.120  0.9575  2.1045  0.6781
  159SAPE   HN317742   3.300   5.245   6.147  0.4545 -0.0943  1.0363
  159SAPE   C1217743   3.427   5.405   6.113  0.0999 -0.2809  0.0309
  159SAPE  H12A17744   3.415   5.511   6.080  1.3179 -0.7846 -2.2906
  159SAPE  H12B17745   3.454   5.363   6.013  0.7350 -0.1888  0.1596
  159SAPE   C1117746   3.531   5.407   6.230  0.6863 -0.6748  1.2519
  159SAPE  H11A17747   3.494   5.469   6.314  1.2436  2.2700 -0.5395
  159SAPE  H11B17748   3.622   5.465   6.203 -0.7898  0.9584 -0.5048
  159SAPE     P17749   3.686   5.244   6.354 -0.4313 -0.0228 -0.0208
  159SAPE   O1317750   3.651   5.136   6.448 -0.0159  0.2215  0.0276
  159SAPE   O1417751   3.807   5.215   6.273 -0.5656  0.2607  0.1234
  159SAPE   O1217752   3.563   5.271   6.262  0.0068  0.5869  0.6212
  159SAPE   O1117753   3.690   5.383   6.423  0.4229  0.1821 -0.0406
  159SAPE    C117754   3.787   5.491   6.421 -0.2052 -0.7007 -0.1443
  159SAPE    HA17755   3.853   5.481   6.332  0.9483  0.1096  0.5936
  159SAPE    HB17756   3.735   5.589   6.418  0.2730 -0.4565 -0.8543
  159SAPE    C217757   3.880   5.480   6.544  0.2930 -0.2703  0.8952
  159SAPE    HS17758   3.948   5.393   6.531  1.8418  0.8955  0.9711
  159SAPE   O2117759   3.796   5.464   6.662 -0.9617  0.5651 -0.4600
  159SAPE   C2117760   3.840   5.380   6.756  0.2102 -0.5690  0.9519
  159SAPE   O2217761   3.941   5.306   6.750  0.0521 -0.3835  0.3758
  159SAPE   C2217762   3.736   5.364   6.870  0.1955  0.0092 -0.4662
  159SAPE   H2R17763   3.678   5.458   6.871  1.4372  0.7897  0.1847
  159SAPE   H2S17764   3.669   5.282   6.836 -2.6546  1.6602  0.8303
  159SAPE    C317765   3.967   5.605   6.563 -0.0867 -0.7717  0.0167
  159SAPE    HX17766   3.900   5.692   6.583  0.0626 -0.9301  1.2751
  159SAPE    HY17767   4.027   5.607   6.470 -1.0830 -0.0639 -0.6429
  159SAPE   O3117768   4.053   5.594   6.680 -0.2538 -0.4987 -0.5259
  159SAPE   C3117769   4.157   5.503   6.674  0.3225  0.4514  0.5977
  159SAPE   O3217770   4.174   5.431   6.573  0.3674  0.0628 -0.3900
  159SAPE   C3217771   4.241   5.499   6.807  0.0974 -0.1260  0.6198
  159SAPE   H2X17772   4.172   5.523   6.891  0.3801  0.0225  0.8139
  159SAPE   H2Y17773   4.314   5.581   6.790 -0.3904  0.2019  0.0592
  159SAPE   C2317774   3.795   5.326   7.005 -0.3967 -0.2014  0.6411
  159SAPE   H3R17775   3.867   5.244   6.981 -0.8195 -0.2442 -0.5603
  159SAPE   H3S17776   3.719   5.295   7.079 -0.0173  1.8843  1.9871
  159SAPE   C2417777   3.861   5.458   7.052  0.6652  0.4172  0.1125
  159SAPE   H4R17778   3.778   5.516   7.097  1.5276  0.5246  1.6169
  159SAPE   H4S17779   3.893   5.517   6.963  1.6152  1.8093  1.3309
  159SAPE   C2517780   3.969   5.440   7.155 -0.0075  0.3338  0.0029
  159SAPE   H5R17781   4.073   5.429   7.123 -0.5044 -0.7846 -1.3097
  159SAPE   C2617782   3.959   5.436   7.288 -0.5976  1.1353  0.0505
  159SAPE   H6R17783   4.049   5.419   7.348 -2.3932  0.2811  2.6993
  159SAPE   C2717784   3.836   5.449   7.365  0.1838  0.4795 -0.2038
  159SAPE   H7R17785   3.830   5.374   7.446  0.5943  1.4643  0.7748
  159SAPE   H7S17786   3.744   5.436   7.304 -1.0472  0.0652  1.6670
  159SAPE   C2817787   3.822   5.585   7.427 -0.2068  0.1864 -0.2200
  159SAPE   H8R17788   3.778   5.659   7.360  0.2029  0.3736 -0.2868
  159SAPE   C2917789   3.844   5.616   7.559  0.1343 -0.7022  0.4207
  159SAPE   H9R17790   3.843   5.725   7.575  1.2285 -0.2421 -2.1900
  159SAPE  C21017791   3.884   5.521   7.666 -0.7064  0.0117  0.2237
  159SAPE  H10R17792   3.894   5.419   7.624 -0.6538 -0.3568  1.1181
  159SAPE  H10S17793   3.804   5.501   7.741  0.8595 -1.6718  1.5263
  159SAPE  C21117794   4.015   5.559   7.737  0.0800 -0.1891  0.0076
  159SAPE  H11R17795   4.084   5.609   7.668  0.8634 -0.5776  0.4940
  159SAPE  C21217796   4.048   5.542   7.867  1.3900  0.2194  0.6178
  159SAPE  H12R17797   4.139   5.587   7.909  1.0217  1.1869  0.4075
  159SAPE  C21317798   3.969   5.479   7.972  0.4537 -0.6459  0.1071
  159SAPE  H13R17799   3.908   5.397   7.930  0.1036  0.1055 -0.8709
  159SAPE  H13S17800   3.890   5.547   8.009  1.6821  0.4389  0.8024
  159SAPE  C21417801   4.037   5.410   8.090 -0.4508 -0.0540  0.4311
  159SAPE  H14R17802   4.004   5.307   8.112 -0.4138 -0.4492 -1.2625
  159SAPE  C21517803   4.133   5.467   8.165 -0.2386 -0.0634 -0.0010
  159SAPE  H15R17804   4.180   5.405   8.243  1.7905  0.0814 -1.0437
  159SAPE  C21617805   4.184   5.607   8.152 -0.0791  0.1861 -0.0756
  159SAPE  H16R17806   4.106   5.675   8.111  0.8648  0.5116 -1.4158
  159SAPE  H16S17807   4.271   5.608   8.082  1.3553 -1.4879  1.5889
  159SAPE  C21717808   4.238   5.661   8.289 -0.0365 -0.3511 -0.0914
  159SAPE  H17R17809   4.309   5.582   8.323  0.6192  0.0040 -0.6444
  159SAPE  H17S17810   4.162   5.668   8.370  1.9019 -2.5765  2.0922
  159SAPE  C21817811   4.312   5.796   8.276 -0.7516  0.4504  0.0721
  159SAPE  H18R17812   4.248   5.872   8.226  1.5662  1.7912 -0.9950
  159SAPE  H18S17813   4.400   5.783   8.210 -0.4961 -0.7909  0.6232
  159SAPE  C21917814   4.361   5.845   8.411  0.2764 -0.1962  0.0430
  159SAPE  H19R17815   4.428   5.764   8.446 -0.7256 -1.6220 -1.2208
  159SAPE  H19S17816   4.270   5.843   8.476 -0.3467  1.0792 -0.7397
  159SAPE  C22017817   4.431   5.980   8.419  0.1059 -0.4870 -0.2914
  159SAPE  H20R17818   4.501   5.988   8.334 -0.9889 -0.9645 -1.2773
  159SAPE  H20S17819   4.480   5.984   8.518  0.9926 -2.1781 -0.6294
  159SAPE  H20T17820   4.361   6.066   8.411 -2.2225 -2.3397 -1.1252
  159SAPE   C3317821   4.314   5.360   6.810 -0.5335  0.1446 -0.3376
  159SAPE   H3X17822   4.376   5.357   6.718 -0.4717 -1.7943 -0.2837
  159SAPE   H3Y17823   4.240   5.277   6.806 -1.0261  0.4189  1.7166
  159SAPE   C3417824   4.420   5.347   6.920  0.2220  0.3344 -0.5872
  159SAPE   H4X17825   4.484   5.434   6.895  0.5111  0.2810 -0.0427
  159SAPE   H4Y17826   4.477   5.252   6.921  1.8477  1.2425  1.8999
  159SAPE   C3517827   4.361   5.348   7.065 -0.0467  0.1030 -0.6281
  159SAPE   H5X17828   4.311   5.251   7.089 -1.1633  0.9970  0.8621
  159SAPE   H5Y17829   4.275   5.419   7.073 -0.6552 -0.4946 -1.6349
  159SAPE   C3617830   4.461   5.382   7.176 -0.0879 -0.1840  0.0716
  159SAPE   H6X17831   4.530   5.462   7.143 -2.8014  1.6772 -1.5865
  159SAPE   H6Y17832   4.522   5.292   7.197 -1.3113 -1.2940 -0.8607
  159SAPE   C3717833   4.400   5.425   7.315 -0.0435 -0.4393  1.0409
  159SAPE   H7X17834   4.328   5.347   7.347  0.9336 -0.4338  3.4666
  159SAPE   H7Y17835   4.340   5.517   7.297 -0.0313 -0.8562 -1.6621
  159SAPE   C3817836   4.509   5.448   7.417  0.2663 -0.5783  0.2831
  159SAPE   H8X17837   4.582   5.526   7.388  1.7442 -0.7758  3.0561
  159SAPE   H8Y17838   4.568   5.356   7.439 -1.3118 -1.9310 -0.8661
  159SAPE   C3917839   4.456   5.496   7.559 -0.2006  0.4063 -0.0065
  159SAPE   H9X17840   4.396   5.420   7.614  0.8302 -1.0136 -0.7767
  159SAPE   H9Y17841   4.392   5.585   7.545 -1.9786 -1.1284 -2.5488
  159SAPE  C31017842   4.577   5.514   7.651 -0.4404 -0.4874  0.2094
  159SAPE  H10X17843   4.640   5.603   7.630 -0.6595  0.4080  2.8998
  159SAPE  H10Y17844   4.637   5.421   7.649  0.3617  0.0331 -1.5111
  159SAPE  C31117845   4.525   5.549   7.794 -0.1003 -0.2704  0.2539
  159SAPE  H11X17846   4.460   5.465   7.826 -0.2513  0.0795  0.8848
  159SAPE  H11Y17847   4.453   5.632   7.784  1.3641  1.2448  1.6054
  159SAPE  C31217848   4.632   5.579   7.896  1.0581 -0.1143 -0.0365
  159SAPE  H12X17849   4.694   5.663   7.857 -0.9413  1.6226  0.3529
  159SAPE  H12Y17850   4.697   5.493   7.922  2.2215  1.1313  1.4461
  159SAPE  C31317851   4.573   5.610   8.035 -0.1195  0.0501  0.7929
  159SAPE  H13X17852   4.493   5.538   8.066 -0.3149  0.1770  0.5861
  159SAPE  H13Y17853   4.532   5.714   8.035  1.0183  0.6714 -3.6955
  159SAPE  C31417854   4.689   5.609   8.138  0.5733 -0.3576  0.4353
  159SAPE  H14X17855   4.748   5.700   8.116  0.5209  0.1165  2.1784
  159SAPE  H14Y17856   4.750   5.520   8.110  0.9766  0.0043  0.1420
  159SAPE  C31517857   4.644   5.587   8.282  0.2723 -0.3012  0.1927
  159SAPE  H15X17858   4.611   5.481   8.279 -1.4424  0.2001 -0.2367
  159SAPE  H15Y17859   4.545   5.636   8.301  0.5116 -0.2289  1.3366
  159SAPE  C31617860   4.755   5.614   8.383  0.1582  0.0040 -0.4922
  159SAPE  H16X17861   4.847   5.576   8.334  2.2314  3.2605  0.5222
  159SAPE  H16Y17862   4.733   5.565   8.480 -0.8996 -1.1674 -1.3003
  159SAPE  C31717863   4.767   5.764   8.409 -0.3274 -0.2413 -0.6955
  159SAPE  H17X17864   4.662   5.793   8.427 -0.4742 -0.7465 -0.7360
  159SAPE  H17Y17865   4.805   5.817   8.319 -2.5134 -0.4386 -1.7823
  159SAPE  C31817866   4.836   5.804   8.543  0.4537 -0.1112  0.1176
  159SAPE  H18X17867   4.828   5.913   8.561  2.4171 -0.0578  0.8876
  159SAPE  H18Y17868   4.943   5.777   8.537  0.4886  0.1038 -0.2603
  159SAPE  H18Z17869   4.785   5.750   8.625 -1.1049 -0.8972 -1.3067
  160SAPE     N17870   3.097   5.874   6.556  0.4742 -0.1496 -0.0884
  160SAPE   HN117871   3.120   5.829   6.465 -0.4313  2.4512 -1.7361
  160SAPE   HN217872   3.040   5.812   6.617  0.6652  0.7651  1.0474
  160SAPE   HN317873   3.033   5.955   6.536  0.1043 -0.2323  0.7037
  160SAPE   C1217874   3.230   5.905   6.632  0.4788  0.4799  0.3744
  160SAPE  H12A17875   3.269   5.800   6.630 -0.2119  0.2079 -1.4570
  160SAPE  H12B17876   3.205   5.936   6.735  3.9545  0.7781  1.2274
  160SAPE   C1117877   3.309   6.013   6.567 -0.6350  0.1206 -0.1076
  160SAPE  H11A17878   3.351   5.988   6.467 -0.3210 -2.0218  0.5218
  160SAPE  H11B17879   3.401   6.031   6.627 -2.0354  2.3213  1.5088
  160SAPE     P17880   3.304   6.266   6.531 -0.2676  0.2708 -0.5242
  160SAPE   O1317881   3.450   6.239   6.518  0.1573  0.0552  0.1885
  160SAPE   O1417882   3.238   6.347   6.425  0.1845 -0.5299 -0.3857
  160SAPE   O1217883   3.230   6.129   6.551  0.9260 -0.0830 -0.8185
  160SAPE   O1117884   3.297   6.337   6.669 -0.0925  0.0038  0.0804
  160SAPE    C117885   3.314   6.256   6.790  0.1122 -0.1826 -0.1385
  160SAPE    HA17886   3.262   6.158   6.788 -0.0279 -0.1382  0.9576
  160SAPE    HB17887   3.420   6.227   6.801 -0.1143 -0.7080  0.7797
  160SAPE    C217888   3.257   6.329   6.916 -0.0906  0.2221  0.1679
  160SAPE    HS17889   3.316   6.421   6.936 -1.4727  1.2371 -0.2649
  160SAPE   O2117890   3.252   6.232   7.022  0.1021  0.0915  0.0936
  160SAPE   C2117891   3.359   6.184   7.079  0.0687 -0.2411 -0.4838
  160SAPE   O2217892   3.472   6.208   7.049  0.1886  0.5099  0.4251
  160SAPE   C2217893   3.318   6.112   7.218 -0.2453  0.4861 -0.8100
  160SAPE   H2R17894   3.214   6.074   7.206 -0.0693  0.3552 -2.1313
  160SAPE   H2S17895   3.391   6.029   7.233 -1.5820 -0.5073  0.5116
  160SAPE    C317896   3.119   6.385   6.878  0.3674  0.1998  0.1589
  160SAPE    HX17897   3.059   6.294   6.856  2.8766 -0.9963 -2.3785
  160SAPE    HY17898   3.122   6.454   6.790  1.1373  1.3322  1.0535
  160SAPE   O3117899   3.054   6.443   6.991 -0.0331  0.3467  0.4307
  160SAPE   C3117900   3.074   6.573   7.015 -0.1996  0.1210 -0.2635
  160SAPE   O3217901   3.160   6.641   6.955 -0.3068  0.3898 -0.1727
  160SAPE   C3217902   2.999   6.622   7.140 -0.6081 -0.4244  0.6885
  160SAPE   H2X17903   2.990   6.538   7.211 -0.9248  0.7551  2.0961
  160SAPE   H2Y17904   2.899   6.651   7.101 -0.7801 -1.1234  0.5975
  160SAPE   C2317905   3.331   6.220   7.336  0.2520 -0.1017 -0.2294
  160SAPE   H3R17906   3.238   6.281   7.338  0.6918  0.7376 -2.7034
  160SAPE   H3S17907   3.424   6.279   7.326  0.2649 -0.0185  0.3359
  160SAPE   C2417908   3.356   6.151   7.471  0.6398 -0.3018 -0.5438
  160SAPE   H4R17909   3.417   6.225   7.527  0.2449  0.3714 -0.9870
  160SAPE   H4S17910   3.434   6.072   7.462  0.0311 -0.9082 -0.5960
  160SAPE   C2517911   3.229   6.096   7.535 -0.3209  0.0124 -0.4266
  160SAPE   H5R17912   3.188   6.003   7.493 -2.3053 -0.4945  2.3357
  160SAPE   C2617913   3.162   6.152   7.639  0.3641 -0.3489 -0.2422
  160SAPE   H6R17914   3.082   6.089   7.681  0.0716 -0.8467 -1.4857
  160SAPE   C2717915   3.205   6.275   7.712 -0.0717  0.7949 -0.1312
  160SAPE   H7R17916   3.251   6.355   7.650  3.7319 -1.1169 -0.0591
  160SAPE   H7S17917   3.287   6.245   7.780 -1.4448 -0.4689  1.0404
  160SAPE   C2817918   3.091   6.340   7.796 -0.2956  0.6950  0.4545
  160SAPE   H8R17919   2.992   6.346   7.749 -0.2984 -1.9307 -0.0245
  160SAPE   C2917920   3.102   6.356   7.929  0.0971 -0.1613 -0.5489
  160SAPE   H9R17921   3.013   6.386   7.987  1.9048  1.4375  1.6038
  160SAPE  C21017922   3.213   6.319   8.018  0.4841  0.0063 -0.0724
  160SAPE  H10R17923   3.302   6.383   8.006 -1.0032  1.9041 -1.8386
  160SAPE  H10S17924   3.235   6.210   8.012 -1.7774 -0.6209  1.6174
  160SAPE  C21117925   3.170   6.343   8.165  0.2240  0.5915  0.7209
  160SAPE  H11R17926   3.108   6.260   8.204 -0.1619  0.9570  0.9004
  160SAPE  C21217927   3.198   6.437   8.249 -0.6332 -0.3284 -0.6581
  160SAPE  H12R17928   3.152   6.438   8.349 -0.3861 -0.9110 -0.5376
  160SAPE  C21317929   3.286   6.555   8.216  0.1982  0.7373 -0.4859
  160SAPE  H13R17930   3.240   6.622   8.140  0.7109 -1.3788 -2.7796
  160SAPE  H13S17931   3.376   6.518   8.162 -0.5266  1.2417 -2.1000
  160SAPE  C21417932   3.318   6.634   8.337  0.0051  0.2543 -0.7017
  160SAPE  H14R17933   3.234   6.667   8.400  0.6976  1.9896 -0.6113
  160SAPE  C21517934   3.446   6.661   8.369  0.0254  1.1841 -0.8573
  160SAPE  H15R17935   3.463   6.716   8.462 -0.9934 -2.0954  1.4405
  160SAPE  C21617936   3.570   6.622   8.296 -0.4765 -0.4519  0.1330
  160SAPE  H16R17937   3.546   6.557   8.209 -1.6543  0.9595 -0.6487
  160SAPE  H16S17938   3.630   6.559   8.365 -0.2616 -0.2141  0.1650
  160SAPE  C21717939   3.647   6.734   8.221 -0.7954 -0.0167  0.2519
  160SAPE  H17R17940   3.575   6.783   8.153  1.9953  2.4191 -1.2021
  160SAPE  H17S17941   3.729   6.684   8.165 -0.5091  0.9521 -0.2179
  160SAPE  C21817942   3.705   6.843   8.316 -0.4658 -0.3023 -0.3255
  160SAPE  H18R17943   3.617   6.883   8.370 -0.3130 -0.8427  0.3393
  160SAPE  H18S17944   3.746   6.922   8.249  0.0428  0.2312  0.5923
  160SAPE  C21917945   3.814   6.800   8.421 -0.5921  0.0440  0.0363
  160SAPE  H19R17946   3.906   6.764   8.370  0.1311 -2.2906  2.7572
  160SAPE  H19S17947   3.772   6.713   8.476 -1.7107 -0.1392 -1.0541
  160SAPE  C22017948   3.848   6.905   8.527  0.1369 -0.2207  0.1226
  160SAPE  H20R17949   3.765   6.949   8.586  1.4546  0.7833  1.2895
  160SAPE  H20S17950   3.890   6.990   8.470 -0.3644  0.0971  0.2236
  160SAPE  H20T17951   3.925   6.876   8.602 -0.9357 -1.6209  0.7356
  160SAPE   C3317952   3.072   6.734   7.212  0.3397  0.3207 -0.1065
  160SAPE   H3X17953   3.081   6.818   7.139  1.5199 -0.5826 -1.0438
  160SAPE   H3Y17954   3.174   6.709   7.249 -0.5942 -1.1439  1.5916
  160SAPE   C3417955   2.995   6.794   7.332  0.0044 -0.0871 -0.3444
  160SAPE   H4X17956   2.894   6.832   7.305 -0.4586 -0.7266  0.4368
  160SAPE   H4Y17957   3.050   6.884   7.368  0.9413 -0.7940  0.0194
  160SAPE   C3517958   2.982   6.701   7.452 -0.9122 -0.3980 -0.7820
  160SAPE   H5X17959   3.085   6.661   7.462 -0.4190  1.3785  2.7771
  160SAPE   H5Y17960   2.911   6.622   7.421 -2.0576  0.7040 -1.0630
  160SAPE   C3617961   2.934   6.763   7.584 -0.1664  1.2776  0.4553
  160SAPE   H6X17962   2.832   6.805   7.567 -1.5800 -1.1347  2.2478
  160SAPE   H6Y17963   3.006   6.843   7.612 -0.3039  0.8690  2.0738
  160SAPE   C3717964   2.918   6.657   7.689 -0.2193  0.5629  0.0507
  160SAPE   H7X17965   3.014   6.607   7.711  0.3078  1.5913  0.1435
  160SAPE   H7Y17966   2.839   6.585   7.659 -1.2494  2.4231 -1.9845
  160SAPE   C3817967   2.870   6.730   7.824 -0.5381  0.5255  0.0509
  160SAPE   H8X17968   2.775   6.788   7.815  0.6940  2.9709  1.6677
  160SAPE   H8Y17969   2.945   6.809   7.845 -0.1230  0.3920 -0.8749
  160SAPE   C3917970   2.859   6.633   7.942 -0.5088 -0.5778 -0.2483
  160SAPE   H9X17971   2.934   6.552   7.933 -0.1188 -0.2561  0.0927
  160SAPE   H9Y17972   2.762   6.583   7.922 -1.4299  1.5622 -1.4940
  160SAPE  C31017973   2.858   6.693   8.082 -0.2737 -0.1551 -0.5056
  160SAPE  H10X17974   2.780   6.770   8.099  1.4236  1.3423  0.9647
  160SAPE  H10Y17975   2.952   6.748   8.106 -0.4172  0.5264 -1.4517
  160SAPE  C31117976   2.824   6.589   8.183 -0.5640  0.0019 -0.0223
  160SAPE  H11X17977   2.897   6.510   8.153 -0.2049  0.6829 -0.9628
  160SAPE  H11Y17978   2.718   6.556   8.174 -0.4116 -0.2256 -1.1037
  160SAPE  C31217979   2.854   6.639   8.323 -0.5951 -0.4647 -0.0359
  160SAPE  H12X17980   2.795   6.732   8.334  2.0867  1.3444  0.0139
  160SAPE  H12Y17981   2.958   6.676   8.323 -0.5398 -0.6133 -1.0405
  160SAPE  C31317982   2.799   6.541   8.433  0.5562 -0.3640  0.0860
  160SAPE  H13X17983   2.864   6.451   8.429 -1.5820 -2.0494  1.2468
  160SAPE  H13Y17984   2.699   6.513   8.396  0.8648  0.5358 -1.5051
  160SAPE  C31417985   2.803   6.606   8.572 -0.2433 -0.5991 -0.0261
  160SAPE  H14X17986   2.760   6.708   8.574 -3.4272 -1.8144  0.9559
  160SAPE  H14Y17987   2.910   6.613   8.599 -0.4616 -3.2367  1.9981
  160SAPE  C31517988   2.733   6.511   8.680  0.2596 -0.3528 -0.2209
  160SAPE  H15X17989   2.781   6.414   8.704 -1.7213 -1.1733  0.6032
  160SAPE  H15Y17990   2.631   6.488   8.641  0.6076  1.5471 -2.4927
  160SAPE  C31617991   2.721   6.568   8.821 -0.5241 -0.3386  0.3164
  160SAPE  H16X17992   2.690   6.673   8.803 -0.2266 -0.5914 -2.0577
  160SAPE  H16Y17993   2.820   6.585   8.869  0.2627 -1.6779 -0.7644
  160SAPE  C31717994   2.635   6.488   8.910 -0.3768 -0.3498 -0.9680
  160SAPE  H17X17995   2.660   6.381   8.897 -0.3111 -0.6527  1.3279
  160SAPE  H17Y17996   2.536   6.497   8.860 -0.5835  0.1215 -0.4750
  160SAPE  C31817997   2.644   6.539   9.060 -0.8069  0.7293  0.4817
  160SAPE  H18X17998   2.737   6.506   9.111  0.6733  1.3902 -1.6590
  160SAPE  H18Y17999   2.560   6.505   9.125 -1.2090  0.5606 -0.1165
  160SAPE  H18Z18000   2.640   6.650   9.070 -1.9764  0.6311  1.2763
  161SAPE     N18001   0.290   5.103   6.111 -0.2419  0.0971 -0.1833
  161SAPE   HN118002   0.363   5.072   6.044  1.0976  0.6334  0.9707
  161SAPE   HN218003   0.311   5.058   6.203 -1.4266 -0.0480  0.0354
  161SAPE   HN318004   0.200   5.057   6.089 -0.6766  1.3084 -1.0188
  161SAPE   C1218005   0.266   5.254   6.122  0.6237 -0.2411 -0.4567
  161SAPE  H12A18006   0.216   5.283   6.028  1.1913  0.5588 -0.5221
  161SAPE  H12B18007   0.367   5.301   6.125 -0.1444  1.4932 -0.8655
  161SAPE   C1118008   0.174   5.285   6.243 -0.4176  0.2076  0.6973
  161SAPE  H11A18009   0.164   5.396   6.240 -1.6504  0.1237  1.2102
  161SAPE  H11B18010   0.225   5.270   6.340  0.4218  2.8050  0.7363
  161SAPE     P18011  -0.082   5.311   6.262  0.3000 -0.3453  0.5386
  161SAPE   O1318012  -0.088   5.425   6.162 -0.0477 -0.4941 -0.1501
  161SAPE   O1418013  -0.200   5.225   6.266  0.3254 -0.0095  0.0903
  161SAPE   O1218014   0.043   5.226   6.232 -0.0811 -0.1387 -0.1290
  161SAPE   O1118015  -0.062   5.376   6.408  0.0178  0.5163  0.2532
  161SAPE    C118016  -0.018   5.278   6.507 -0.0499 -0.4822 -0.4721
  161SAPE    HA18017   0.054   5.202   6.470  0.8648 -0.1112  0.5012
  161SAPE    HB18018   0.045   5.327   6.584  0.1391  0.5223 -1.2461
  161SAPE    C218019  -0.137   5.218   6.579 -0.3025 -0.1464 -0.3003
  161SAPE    HS18020  -0.190   5.143   6.517 -1.0268  1.5447 -1.7937
  161SAPE   O2118021  -0.226   5.331   6.608 -0.6948 -0.0283 -0.0967
  161SAPE   C2118022  -0.341   5.299   6.646  0.3684  0.0264 -0.3132
  161SAPE   O2218023  -0.388   5.185   6.653 -0.2213  0.1315 -0.6803
  161SAPE   C2218024  -0.424   5.431   6.652 -0.3298  0.5783 -0.1174
  161SAPE   H2R18025  -0.352   5.500   6.701 -1.6846  0.6478  1.9230
  161SAPE   H2S18026  -0.423   5.457   6.544 -0.0228  0.1702 -0.2164
  161SAPE    C318027  -0.094   5.150   6.711  1.0424 -0.3380 -0.5144
  161SAPE    HX18028  -0.182   5.092   6.745  1.4125 -0.5452  0.1011
  161SAPE    HY18029  -0.061   5.226   6.786  0.4104 -1.1304  0.5929
  161SAPE   O3118030   0.022   5.065   6.691 -0.0392  0.3014 -0.3824
  161SAPE   C3118031   0.066   5.009   6.807 -0.7177  0.0849  0.0431
  161SAPE   O3218032   0.009   5.025   6.914 -0.4962  0.4531  0.9383
  161SAPE   C3218033   0.204   4.932   6.782  0.1551 -0.5729 -0.3509
  161SAPE   H2X18034   0.261   5.013   6.733  0.1771  0.7078  1.6808
  161SAPE   H2Y18035   0.196   4.862   6.697  0.3256  0.3689 -1.1591
  161SAPE   C2318036  -0.558   5.401   6.722  0.3978  0.5592  0.0845
  161SAPE   H3R18037  -0.604   5.311   6.677  0.0238  0.7147  0.1563
  161SAPE   H3S18038  -0.622   5.491   6.709  0.6439  1.3658  3.3787
  161SAPE   C2418039  -0.539   5.394   6.875 -0.0115  0.3452  0.7047
  161SAPE   H4R18040  -0.506   5.494   6.912  1.9708 -0.3343  0.8704
  161SAPE   H4S18041  -0.456   5.328   6.907 -1.8879 -2.4552  0.0905
  161SAPE   C2518042  -0.668   5.357   6.945 -0.4559  0.2865 -0.1563
  161SAPE   H5R18043  -0.760   5.380   6.889 -0.8306  0.5738  0.5784
  161SAPE   C2618044  -0.681   5.313   7.071  0.0369 -0.2648  0.4607
  161SAPE   H6R18045  -0.781   5.281   7.105 -0.7331  0.0286 -1.3792
  161SAPE   C2718046  -0.572   5.298   7.169  0.7650 -0.6373  0.1050
  161SAPE   H7R18047  -0.481   5.315   7.109  0.0370 -2.3018 -1.5658
  161SAPE   H7S18048  -0.563   5.198   7.216 -0.6740 -0.7038  0.2919
  161SAPE   C2818049  -0.588   5.398   7.282 -0.4952  0.0888 -1.7617
  161SAPE   H8R18050  -0.606   5.504   7.259  1.1372  1.4840  2.4987
  161SAPE   C2918051  -0.549   5.382   7.410  0.4233 -0.4717  0.5452
  161SAPE   H9R18052  -0.591   5.458   7.477 -0.8974 -1.4514  0.8654
  161SAPE  C21018053  -0.485   5.265   7.473 -0.4292 -0.1374 -0.2299
  161SAPE  H10R18054  -0.376   5.288   7.479  0.1379 -2.5039 -0.2782
  161SAPE  H10S18055  -0.484   5.177   7.405 -0.0840 -0.2168 -0.1276
  161SAPE  C21118056  -0.555   5.218   7.604 -0.2791 -0.1580  0.6325
  161SAPE  H11R18057  -0.664   5.214   7.618 -0.2543  0.3128  1.0015
  161SAPE  C21218058  -0.496   5.198   7.716 -0.1554  0.0742  0.2671
  161SAPE  H12R18059  -0.556   5.164   7.801 -1.6187  1.6763 -0.0652
  161SAPE  C21318060  -0.346   5.205   7.730  0.1935 -0.4990 -0.0322
  161SAPE  H13R18061  -0.291   5.189   7.635  1.9869  1.4433  0.6075
  161SAPE  H13S18062  -0.310   5.121   7.792  0.4040  0.9381  1.8947
  161SAPE  C21418063  -0.305   5.337   7.788  0.2119 -0.1183  0.3333
  161SAPE  H14R18064  -0.348   5.428   7.742 -1.2163  0.1857  2.1187
  161SAPE  C21518065  -0.250   5.353   7.909 -0.2025  0.7337 -0.5693
  161SAPE  H15R18066  -0.248   5.456   7.948  1.8268 -0.1574  1.9905
  161SAPE  C21618067  -0.208   5.251   8.007  0.6024  0.2826 -0.8782
  161SAPE  H16R18068  -0.135   5.290   8.081  0.0082 -0.8524  0.3234
  161SAPE  H16S18069  -0.140   5.169   7.976  4.1129  2.4692  0.4188
  161SAPE  C21718070  -0.328   5.193   8.072  1.4626 -0.7102 -0.0059
  161SAPE  H17R18071  -0.286   5.106   8.127  0.7128  0.2158  2.1107
  161SAPE  H17S18072  -0.395   5.152   7.993 -1.0321  2.6564  0.1811
  161SAPE  C21818073  -0.392   5.303   8.151  0.2506 -0.3492 -0.4577
  161SAPE  H18R18074  -0.417   5.396   8.095 -2.4539  0.2589  1.5508
  161SAPE  H18S18075  -0.325   5.329   8.236  1.5182  0.7040 -1.7293
  161SAPE  C21918076  -0.528   5.249   8.205 -0.0609 -0.0722 -0.3204
  161SAPE  H19R18077  -0.519   5.172   8.284 -1.6687 -0.1229 -0.1346
  161SAPE  H19S18078  -0.574   5.195   8.120 -0.4573 -1.2394  0.6140
  161SAPE  C22018079  -0.623   5.360   8.244  0.3154  0.2317 -0.1387
  161SAPE  H20R18080  -0.603   5.453   8.185  0.7087 -0.1530 -0.6183
  161SAPE  H20S18081  -0.616   5.387   8.352  1.7448  0.0490 -0.1667
  161SAPE  H20T18082  -0.728   5.326   8.241 -0.0874  1.2693  1.0824
  161SAPE   C3318083   0.255   4.860   6.906 -0.2793 -0.3358  0.2747
  161SAPE   H3X18084   0.344   4.801   6.876  0.5256  1.2287 -0.4803
  161SAPE   H3Y18085   0.185   4.787   6.953 -1.2123  1.7857  2.3894
  161SAPE   C3418086   0.297   4.967   7.017  0.3498  0.6628 -0.2982
  161SAPE   H4X18087   0.221   5.033   7.064 -1.7633 -1.0634 -1.1365
  161SAPE   H4Y18088   0.370   5.027   6.958  2.3693 -1.6388 -0.2835
  161SAPE   C3518089   0.380   4.911   7.135 -0.3972 -0.5297 -0.0645
  161SAPE   H5X18090   0.448   4.840   7.083 -4.0958 -2.1731 -3.2212
  161SAPE   H5Y18091   0.312   4.860   7.207  0.3974  2.8001  3.3707
  161SAPE   C3618092   0.445   5.019   7.219  0.6800 -0.4044  0.5585
  161SAPE   H6X18093   0.368   5.068   7.282  0.0998  0.6433 -0.9195
  161SAPE   H6Y18094   0.497   5.099   7.162  0.1861 -1.5502 -1.5705
  161SAPE   C3718095   0.549   4.955   7.304  0.2137  0.1428  0.7922
  161SAPE   H7X18096   0.631   4.919   7.239 -0.1620 -0.1850  0.4894
  161SAPE   H7Y18097   0.505   4.864   7.349 -1.3802  0.5064  0.0510
  161SAPE   C3818098   0.603   5.051   7.402  0.0357 -0.4188  0.0012
  161SAPE   H8X18099   0.547   5.147   7.393  0.1435  0.0414  3.0126
  161SAPE   H8Y18100   0.706   5.082   7.377  0.4797  0.6686  2.8052
  161SAPE   C3918101   0.592   5.011   7.546  0.5076 -0.3475  0.4497
  161SAPE   H9X18102   0.626   4.906   7.556 -1.6405 -1.4517 -2.3416
  161SAPE   H9Y18103   0.484   5.013   7.574  0.0089  1.0127 -1.3633
  161SAPE  C31018104   0.666   5.096   7.645 -0.3142  0.4653 -0.4397
  161SAPE  H10X18105   0.619   5.196   7.657  0.8273  0.8633  1.2021
  161SAPE  H10Y18106   0.764   5.119   7.598  0.0001  1.3955  0.6192
  161SAPE  C31118107   0.685   5.023   7.781  0.6993 -0.5196  0.5706
  161SAPE  H11X18108   0.740   4.932   7.751  1.1724 -0.0032 -0.1706
  161SAPE  H11Y18109   0.587   4.976   7.805  0.3209 -0.9908 -1.6186
  161SAPE  C31218110   0.748   5.099   7.898 -0.1281  0.1345 -0.2238
  161SAPE  H12X18111   0.696   5.196   7.914 -2.2097 -0.9661  0.0701
  161SAPE  H12Y18112   0.857   5.106   7.880 -0.1611  0.0910 -0.4491
  161SAPE  C31318113   0.736   5.021   8.035  0.2064 -0.6890 -0.0052
  161SAPE  H13X18114   0.809   5.068   8.104 -1.0120  2.0674 -0.4217
  161SAPE  H13Y18115   0.769   4.917   8.015  1.4143 -0.0258 -1.7208
  161SAPE  C31418116   0.594   5.033   8.095 -0.0736  0.1479 -0.7357
  161SAPE  H14X18117   0.531   4.977   8.023 -0.7465  1.6605 -1.3503
  161SAPE  H14Y18118   0.561   5.139   8.100  0.9467  0.4216  1.7914
  161SAPE  C31518119   0.613   4.975   8.233  0.0993  0.3966  0.1852
  161SAPE  H15X18120   0.676   5.035   8.302  1.8145 -0.1838 -0.8330
  161SAPE  H15Y18121   0.653   4.873   8.213 -0.0843  0.6403 -1.5747
  161SAPE  C31618122   0.482   4.955   8.316  0.0703  0.2134 -0.2118
  161SAPE  H16X18123   0.397   4.939   8.246 -0.8273 -1.9913  1.2688
  161SAPE  H16Y18124   0.455   5.053   8.361 -3.0692 -1.0370  0.8777
  161SAPE  C31718125   0.481   4.863   8.440 -0.0692  0.9101  0.2507
  161SAPE  H17X18126   0.577   4.886   8.492  2.0930 -2.3308 -1.9053
  161SAPE  H17Y18127   0.496   4.758   8.407  2.9691  1.8703 -1.8179
  161SAPE  C31818128   0.370   4.872   8.538  0.1157  0.1673 -0.5029
  161SAPE  H18X18129   0.400   4.827   8.635 -0.7609 -0.1102 -0.3468
  161SAPE  H18Y18130   0.280   4.818   8.500  0.5262  0.6112 -2.2000
  161SAPE  H18Z18131   0.337   4.975   8.561  3.0068  0.8333  1.0722
  162SAPE     N18132   3.696   1.714   6.294  0.0724  0.4533  0.3462
  162SAPE   HN118133   3.594   1.736   6.300  0.1381  1.2462 -0.9992
  162SAPE   HN218134   3.739   1.751   6.206  0.2938  1.8314  1.0188
  162SAPE   HN318135   3.692   1.610   6.305 -1.5848  0.4828  0.3787
  162SAPE   C1218136   3.754   1.770   6.413 -0.9159 -0.6658 -0.0814
  162SAPE  H12A18137   3.706   1.737   6.508 -1.5426  0.6420  0.0739
  162SAPE  H12B18138   3.743   1.880   6.405  2.3005 -0.2842 -0.6531
  162SAPE   C1118139   3.914   1.741   6.421  0.0158  0.6927 -0.2861
  162SAPE  H11A18140   3.925   1.652   6.486 -0.9901 -0.3583 -1.4902
  162SAPE  H11B18141   3.973   1.823   6.468  1.5408  0.9758 -2.5430
  162SAPE     P18142   4.071   1.800   6.221  0.0164 -0.0556 -0.2856
  162SAPE   O1318143   4.109   1.716   6.109 -0.0207  0.2442  0.3041
  162SAPE   O1418144   3.992   1.922   6.192 -0.2339  0.2211 -0.1238
  162SAPE   O1218145   3.973   1.703   6.296  0.6581 -0.4596  0.1675
  162SAPE   O1118146   4.195   1.835   6.309  0.2216 -0.0427  0.0164
  162SAPE    C118147   4.307   1.752   6.316  0.6839  0.3627 -0.2072
  162SAPE    HA18148   4.321   1.681   6.232  1.0927  0.5590 -0.3065
  162SAPE    HB18149   4.396   1.815   6.335  1.1155 -0.5862  1.0452
  162SAPE    C218150   4.303   1.669   6.453 -0.4467 -0.1735  0.0475
  162SAPE    HS18151   4.221   1.595   6.449  0.8758 -1.6424 -1.6171
  162SAPE   O2118152   4.291   1.763   6.556  0.1552  0.1642 -1.1058
  162SAPE   C2118153   4.222   1.729   6.667 -0.5744  0.1030  0.3503
  162SAPE   O2218154   4.173   1.621   6.685  1.2860  0.1402  0.2693
  162SAPE   C2218155   4.201   1.848   6.758  0.3646 -0.3884  0.4400
  162SAPE   H2R18156   4.275   1.830   6.838  1.9601  0.2274 -0.8489
  162SAPE   H2S18157   4.231   1.942   6.706  1.3423 -1.2644 -0.6502
  162SAPE    C318158   4.435   1.594   6.474 -0.3922 -0.3129  0.2325
  162SAPE    HX18159   4.525   1.659   6.482 -1.2189  0.9485 -0.3702
  162SAPE    HY18160   4.452   1.536   6.380  2.4187  0.2398  0.2970
  162SAPE   O3118161   4.425   1.510   6.592  0.4359  0.4526 -0.2095
  162SAPE   C3118162   4.387   1.381   6.571 -0.0914  0.3025 -0.3356
  162SAPE   O3218163   4.328   1.345   6.473  0.0413  0.1391  0.0176
  162SAPE   C3218164   4.433   1.290   6.684 -0.9792  0.5214 -0.2972
  162SAPE   H2X18165   4.418   1.342   6.781  2.5800  0.8516  0.1828
  162SAPE   H2Y18166   4.543   1.286   6.671 -1.2149 -3.2147 -2.8656
  162SAPE   C2318167   4.059   1.864   6.818 -0.1404 -0.4635 -1.1127
  162SAPE   H3R18168   4.016   1.761   6.822 -0.0496 -0.5217 -1.5805
  162SAPE   H3S18169   3.986   1.928   6.764 -0.7312  2.4050  2.6484
  162SAPE   C2418170   4.058   1.920   6.963 -0.3095 -0.4762 -0.4784
  162SAPE   H4R18171   4.130   1.870   7.030 -0.4154  2.0685  1.6674
  162SAPE   H4S18172   3.954   1.906   6.999  0.4183 -0.6579  1.6697
  162SAPE   C2518173   4.083   2.069   6.951 -0.5369  0.0665 -0.2212
  162SAPE   H5R18174   4.044   2.100   6.853 -1.9787 -2.6083 -0.5885
  162SAPE   C2618175   4.139   2.149   7.044 -0.0527 -0.3200 -0.3417
  162SAPE   H6R18176   4.145   2.256   7.019  0.3655 -0.6800 -1.8291
  162SAPE   C2718177   4.178   2.104   7.183  0.1226 -0.8963 -0.2980
  162SAPE   H7R18178   4.279   2.058   7.170  0.5421 -0.5444  1.4786
  162SAPE   H7S18179   4.102   2.037   7.228 -0.4597 -0.3126 -0.4018
  162SAPE   C2818180   4.197   2.215   7.281 -0.1346 -0.3096 -0.2550
  162SAPE   H8R18181   4.160   2.313   7.250  1.8238  1.0229  1.3928
  162SAPE   C2918182   4.261   2.213   7.401 -0.1209  0.2897 -0.3796
  162SAPE   H9R18183   4.272   2.310   7.453 -1.4530  1.4247 -2.1034
  162SAPE  C21018184   4.334   2.096   7.471  0.4760 -0.4351  0.3089
  162SAPE  H10R18185   4.428   2.130   7.520  0.9615 -2.3208  0.7766
  162SAPE  H10S18186   4.369   2.031   7.388  0.6817  0.5618 -0.4004
  162SAPE  C21118187   4.246   2.023   7.567  0.2470 -0.3248  0.0119
  162SAPE  H11R18188   4.188   1.941   7.522 -3.0836  1.7398  0.1912
  162SAPE  C21218189   4.228   2.044   7.700 -0.1300 -0.4660 -0.3244
  162SAPE  H12R18190   4.177   1.965   7.757  1.6741 -0.9489  0.7166
  162SAPE  C21318191   4.295   2.162   7.776 -0.0093 -0.4166  0.2081
  162SAPE  H13R18192   4.299   2.252   7.711 -0.0159 -0.5248  0.0576
  162SAPE  H13S18193   4.395   2.122   7.803  0.0601 -0.0909  0.4416
  162SAPE  C21418194   4.212   2.187   7.898 -0.2147  0.0230 -0.1837
  162SAPE  H14R18195   4.118   2.245   7.894  0.3353  1.0218  0.7005
  162SAPE  C21518196   4.255   2.166   8.026 -0.6513 -0.5434  0.2418
  162SAPE  H15R18197   4.192   2.188   8.113 -1.2912 -4.2936  0.9162
  162SAPE  C21618198   4.383   2.110   8.081 -0.1553 -0.1061  0.5770
  162SAPE  H16R18199   4.445   2.065   8.001 -1.8067 -1.2240 -0.1353
  162SAPE  H16S18200   4.354   2.029   8.151 -1.0441 -0.5497 -0.2732
  162SAPE  C21718201   4.463   2.225   8.147  0.8506  0.4137  0.7919
  162SAPE  H17R18202   4.473   2.312   8.079  1.5554  0.6326  1.1607
  162SAPE  H17S18203   4.563   2.182   8.173  0.1061 -0.3918  2.4555
  162SAPE  C21818204   4.389   2.290   8.266 -0.0995 -0.5555 -0.4375
  162SAPE  H18R18205   4.343   2.214   8.332 -2.8718  0.4109 -1.1300
  162SAPE  H18S18206   4.307   2.351   8.223 -0.4222  1.1847  2.4195
  162SAPE  C21918207   4.494   2.374   8.344  0.6884 -0.1049  0.8319
  162SAPE  H19R18208   4.534   2.446   8.269  0.4220 -1.2177 -0.4166
  162SAPE  H19S18209   4.586   2.314   8.365  1.1902  0.7380  1.1122
  162SAPE  C22018210   4.438   2.438   8.471  0.3395 -0.2253  0.0595
  162SAPE  H20R18211   4.512   2.512   8.509  0.7901 -1.7925  2.5273
  162SAPE  H20S18212   4.421   2.366   8.555  1.3660 -2.2616 -1.3719
  162SAPE  H20T18213   4.344   2.489   8.442 -0.4584 -1.0558  1.0626
  162SAPE   C3318214   4.372   1.148   6.680  0.0164 -0.2189  0.0859
  162SAPE   H3X18215   4.369   1.129   6.571  3.5028  0.0611 -0.1428
  162SAPE   H3Y18216   4.271   1.156   6.728 -0.1527 -0.4935 -0.2238
  162SAPE   C3418217   4.454   1.040   6.750 -0.0864 -0.0696 -0.2990
  162SAPE   H4X18218   4.562   1.047   6.723  0.4695 -0.4173  1.7392
  162SAPE   H4Y18219   4.417   0.941   6.718 -0.5518 -0.2183  0.6764
  162SAPE   C3518220   4.444   1.045   6.903  0.0700 -0.0917 -0.9883
  162SAPE   H5X18221   4.341   1.014   6.931 -0.4500  1.5981 -0.9231
  162SAPE   H5Y18222   4.458   1.149   6.940 -0.7195 -0.2581 -0.1717
  162SAPE   C3618223   4.540   0.949   6.978 -0.6020 -0.1106 -0.1712
  162SAPE   H6X18224   4.644   0.972   6.948 -0.7101  0.1695 -0.3466
  162SAPE   H6Y18225   4.511   0.848   6.943 -0.8286  0.3266 -1.2970
  162SAPE   C3718226   4.519   0.945   7.124  0.6005  0.8886  0.3588
  162SAPE   H7X18227   4.409   0.935   7.131  0.6779  0.1105  0.5553
  162SAPE   H7Y18228   4.559   1.035   7.176  0.2701  0.7222  0.9090
  162SAPE   C3818229   4.577   0.818   7.196 -0.2113 -0.4540  0.3569
  162SAPE   H8X18230   4.679   0.804   7.155 -0.0067 -0.5173  0.8770
  162SAPE   H8Y18231   4.519   0.727   7.171  1.6793 -1.5932 -0.0613
  162SAPE   C3918232   4.594   0.836   7.347  0.1487 -0.4545 -0.2135
  162SAPE   H9X18233   4.622   0.736   7.386  0.7122 -0.3920 -0.4534
  162SAPE   H9Y18234   4.500   0.877   7.391  1.7785  1.0745  2.0965
  162SAPE  C31018235   4.704   0.929   7.398 -0.3568 -0.4838 -0.6137
  162SAPE  H10X18236   4.667   1.031   7.377  0.3026 -0.2166 -0.4843
  162SAPE  H10Y18237   4.797   0.913   7.339 -0.0932 -2.9267  0.3454
  162SAPE  C31118238   4.741   0.913   7.548  0.0648 -0.1533 -0.5763
  162SAPE  H11X18239   4.829   0.961   7.595 -0.9688 -0.5680  1.9328
  162SAPE  H11Y18240   4.760   0.804   7.559  1.1872 -0.1624 -2.2446
  162SAPE  C31218241   4.633   0.962   7.648  0.1019  0.1307 -0.9219
  162SAPE  H12X18242   4.546   0.896   7.628  0.3120 -0.0985 -1.0643
  162SAPE  H12Y18243   4.614   1.071   7.637 -1.5488  0.0940  0.8779
  162SAPE  C31318244   4.672   0.957   7.796  0.5855 -0.0910 -0.3144
  162SAPE  H13X18245   4.727   1.053   7.809  0.3664  0.0235 -0.2372
  162SAPE  H13Y18246   4.738   0.872   7.823  0.7260  0.1456  0.1035
  162SAPE  C31418247   4.556   0.963   7.901  0.1369 -0.1071  0.0284
  162SAPE  H14X18248   4.490   0.876   7.879 -1.0900  0.9644 -0.6703
  162SAPE  H14Y18249   4.490   1.051   7.884  0.5190  0.4448  1.2770
  162SAPE  C31518250   4.602   0.984   8.044  0.6328  0.0727 -0.4489
  162SAPE  H15X18251   4.682   1.060   8.029  1.4342 -0.4241  1.0953
  162SAPE  H15Y18252   4.650   0.894   8.089  0.4026 -0.9219 -2.1116
  162SAPE  C31618253   4.496   1.036   8.132 -0.8207  0.3390  0.0943
  162SAPE  H16X18254   4.415   0.960   8.126  0.0469 -0.6177  0.1062
  162SAPE  H16Y18255   4.450   1.128   8.091 -1.8500 -0.1246  0.1624
  162SAPE  C31718256   4.540   1.060   8.274  0.5569 -1.1570 -0.2871
  162SAPE  H17X18257   4.603   1.152   8.275 -1.5505  0.3855  1.0558
  162SAPE  H17Y18258   4.590   0.972   8.319  0.2557 -0.9889  0.3997
  162SAPE  C31818259   4.415   1.095   8.357 -0.1201 -0.1653 -0.7429
  162SAPE  H18X18260   4.322   1.042   8.326  0.4819 -1.3741 -0.5053
  162SAPE  H18Y18261   4.392   1.204   8.356 -0.9561 -0.3306 -0.6334
  162SAPE  H18Z18262   4.420   1.064   8.464 -4.0210 -0.1233 -0.3835
  163SAPE     N18263   2.706   6.512   6.649  0.1403  0.7275  0.1043
  163SAPE   HN118264   2.622   6.476   6.600  1.0965 -0.3303 -0.8113
  163SAPE   HN218265   2.675   6.607   6.681 -1.3378  1.6416 -3.5085
  163SAPE   HN318266   2.786   6.525   6.584  0.7987 -1.7172  0.3280
  163SAPE   C1218267   2.763   6.431   6.762 -0.4040  0.4188 -0.3269
  163SAPE  H12A18268   2.683   6.414   6.837 -0.7729 -0.0453 -0.8143
  163SAPE  H12B18269   2.831   6.499   6.817 -0.0937 -2.1296  2.7135
  163SAPE   C1118270   2.836   6.309   6.709 -0.2009 -0.2541  0.1934
  163SAPE  H11A18271   2.869   6.263   6.805  0.1437 -0.9491 -0.2492
  163SAPE  H11B18272   2.914   6.352   6.643 -0.7964 -1.0602 -1.0708
  163SAPE     P18273   2.750   6.068   6.623  0.5181 -0.0310  0.1341
  163SAPE   O1318274   2.648   6.034   6.521  0.1503  0.2022  0.4866
  163SAPE   O1418275   2.884   6.029   6.586 -0.3499 -0.0090  0.3901
  163SAPE   O1218276   2.742   6.226   6.637 -0.5449 -0.2738  0.0428
  163SAPE   O1118277   2.700   6.010   6.760  0.4597 -0.3831 -0.1493
  163SAPE    C118278   2.599   6.061   6.845  0.1766 -0.3799  0.4072
  163SAPE    HA18279   2.611   6.171   6.857  0.0682 -0.4234  0.9166
  163SAPE    HB18280   2.501   6.052   6.793  0.4005 -1.7258  0.1779
  163SAPE    C218281   2.602   5.996   6.986  1.5870 -0.2541  1.0014
  163SAPE    HS18282   2.520   6.036   7.050  0.8965  1.5405 -0.9112
  163SAPE   O2118283   2.725   6.011   7.051 -0.4791 -0.2284  0.0265
  163SAPE   C2118284   2.746   6.132   7.099 -0.5535  0.1911  0.4026
  163SAPE   O2218285   2.667   6.223   7.105 -0.0992 -0.5918 -0.3628
  163SAPE   C2218286   2.896   6.143   7.140  0.2197 -0.0258  0.5900
  163SAPE   H2R18287   2.938   6.040   7.137  3.3587  1.1369  1.0954
  163SAPE   H2S18288   2.950   6.194   7.057  0.7497  1.6050  1.8837
  163SAPE    C318289   2.567   5.846   6.974  0.4362  0.9406 -0.0273
  163SAPE    HX18290   2.645   5.783   6.924 -1.3119 -1.0541 -0.3629
  163SAPE    HY18291   2.482   5.826   6.905  0.1129  1.0246  0.3444
  163SAPE   O3118292   2.552   5.789   7.110 -0.3031 -0.0065 -0.0096
  163SAPE   C3118293   2.432   5.773   7.155 -0.4383 -0.2739 -0.0677
  163SAPE   O3218294   2.334   5.794   7.083 -0.3875 -0.5027  0.5730
  163SAPE   C3218295   2.437   5.720   7.306  0.1115  0.2716  0.3782
  163SAPE   H2X18296   2.472   5.614   7.297  1.8073  0.8768 -0.8589
  163SAPE   H2Y18297   2.331   5.712   7.339  0.4284  2.5118  2.1481
  163SAPE   C2318298   2.907   6.226   7.267 -0.2677  0.1105  0.1764
  163SAPE   H3R18299   2.841   6.315   7.269 -0.3683  0.0553 -0.5053
  163SAPE   H3S18300   3.006   6.277   7.269  0.7638 -1.8138  0.1771
  163SAPE   C2418301   2.919   6.147   7.399 -1.0482  0.8917 -0.0280
  163SAPE   H4R18302   2.952   6.222   7.474 -1.3008  1.1616 -0.1849
  163SAPE   H4S18303   3.004   6.078   7.381 -0.1325  1.5624  1.5478
  163SAPE   C2518304   2.800   6.070   7.428  0.7232  0.1044 -0.7941
  163SAPE   H5R18305   2.754   6.021   7.341 -0.5326  3.0525 -1.9164
  163SAPE   C2618306   2.739   6.061   7.551 -0.1030 -0.0451  0.2504
  163SAPE   H6R18307   2.639   6.017   7.560  1.0189 -3.1354 -0.9084
  163SAPE   C2718308   2.788   6.123   7.675  0.1024 -0.7085 -0.1569
  163SAPE   H7R18309   2.898   6.122   7.686  0.2904  1.1375 -1.3775
  163SAPE   H7S18310   2.736   6.064   7.754 -1.2397  0.9489  0.2765
  163SAPE   C2818311   2.739   6.263   7.675  0.3159  0.4287 -0.1563
  163SAPE   H8R18312   2.787   6.338   7.610  0.7445  1.7982  1.6710
  163SAPE   C2918313   2.626   6.304   7.728  0.4716 -0.0725 -0.7932
  163SAPE   H9R18314   2.613   6.413   7.720  1.3607 -0.0405 -2.1179
  163SAPE  C21018315   2.529   6.224   7.812 -0.3269 -0.0736 -0.3665
  163SAPE  H10R18316   2.520   6.270   7.913 -2.3904  0.4220 -0.7361
  163SAPE  H10S18317   2.567   6.122   7.833 -2.2957 -1.3100 -2.3430
  163SAPE  C21118318   2.391   6.207   7.748 -0.0486  0.2457  0.1309
  163SAPE  H11R18319   2.383   6.225   7.640  0.8945  0.1765  0.0463
  163SAPE  C21218320   2.285   6.165   7.818  0.1629 -0.4009 -0.0893
  163SAPE  H12R18321   2.191   6.160   7.761  0.1859  1.2356 -0.3382
  163SAPE  C21318322   2.287   6.132   7.963 -0.2397  0.0697 -1.0368
  163SAPE  H13R18323   2.253   6.220   8.022 -4.0926 -0.4868 -2.1269
  163SAPE  H13S18324   2.386   6.093   7.996 -1.0393 -2.4267 -1.3278
  163SAPE  C21418325   2.173   6.028   7.982 -0.3471 -0.3368 -0.3216
  163SAPE  H14R18326   2.154   5.956   7.901  0.4937 -0.5879 -0.3117
  163SAPE  C21518327   2.114   6.005   8.098  0.2505 -0.0010 -0.3461
  163SAPE  H15R18328   2.039   5.927   8.111  2.1558 -1.7907  0.5064
  163SAPE  C21618329   2.140   6.067   8.232  0.1265  0.1482  0.7487
  163SAPE  H16R18330   2.073   6.150   8.261 -0.9594 -1.4143  3.0358
  163SAPE  H16S18331   2.246   6.100   8.237 -0.7309  2.9321  2.4442
  163SAPE  C21718332   2.134   5.966   8.351  0.2187 -0.2036 -0.8972
  163SAPE  H17R18333   2.219   5.986   8.420  1.1184 -0.3500 -1.9350
  163SAPE  H17S18334   2.165   5.866   8.314  2.7282  0.6458 -1.3070
  163SAPE  C21818335   2.002   5.960   8.428  0.4277  0.4791  0.1364
  163SAPE  H18R18336   1.979   6.061   8.468  0.6247  0.0337  1.4225
  163SAPE  H18S18337   2.019   5.882   8.506  0.1864 -0.8038 -1.0490
  163SAPE  C21918338   1.876   5.911   8.348 -0.6507 -0.3485 -0.7312
  163SAPE  H19R18339   1.855   5.972   8.258 -1.1133  0.7084  0.0713
  163SAPE  H19S18340   1.785   5.943   8.402 -1.2964  1.4973 -2.7937
  163SAPE  C22018341   1.890   5.763   8.309 -0.2270 -0.5512 -0.1799
  163SAPE  H20R18342   1.906   5.706   8.403  0.5554 -0.0534  0.0012
  163SAPE  H20S18343   1.964   5.743   8.228 -0.6685 -0.2813 -0.6524
  163SAPE  H20T18344   1.793   5.727   8.268  0.1241 -1.6482 -0.0771
  163SAPE   C3318345   2.506   5.805   7.402 -0.3478  0.2044 -0.0051
  163SAPE   H3X18346   2.461   5.904   7.425  1.2110  0.6805  1.1939
  163SAPE   H3Y18347   2.607   5.834   7.365 -0.5675  1.4065  0.3048
  163SAPE   C3418348   2.536   5.729   7.538 -0.0528  0.5245  0.0395
  163SAPE   H4X18349   2.601   5.799   7.594 -0.5360  0.5161  0.6101
  163SAPE   H4Y18350   2.588   5.632   7.518 -2.1093 -1.1612  2.3020
  163SAPE   C3518351   2.405   5.701   7.625 -0.3634  0.2120 -0.2972
  163SAPE   H5X18352   2.379   5.594   7.608 -0.9923  0.5767 -1.7445
  163SAPE   H5Y18353   2.328   5.763   7.576 -0.0008 -0.9797 -2.5192
  163SAPE   C3618354   2.418   5.755   7.767 -0.4896 -0.2981 -0.7723
  163SAPE   H6X18355   2.317   5.764   7.812  0.4421  0.5283  1.3031
  163SAPE   H6Y18356   2.452   5.861   7.773 -3.0304  0.6616 -1.9039
  163SAPE   C3718357   2.505   5.671   7.849  0.1846 -0.1010  0.1392
  163SAPE   H7X18358   2.607   5.694   7.810 -0.1241 -0.1955 -0.7618
  163SAPE   H7Y18359   2.483   5.564   7.830  1.3344 -0.0581 -1.7428
  163SAPE   C3818360   2.498   5.684   8.003 -0.0168  0.0672 -0.4343
  163SAPE   H8X18361   2.395   5.669   8.042 -0.2929  0.9028 -0.8282
  163SAPE   H8Y18362   2.527   5.787   8.028 -0.5110  0.1253 -0.0883
  163SAPE   C3918363   2.599   5.597   8.080 -0.7047 -0.4032 -0.3367
  163SAPE   H9X18364   2.704   5.600   8.042 -0.1215 -1.1109  1.1283
  163SAPE   H9Y18365   2.572   5.490   8.073  3.3310 -1.7945  1.8885
  163SAPE  C31018366   2.609   5.619   8.238 -0.0577 -0.0115  0.2798
  163SAPE  H10X18367   2.520   5.575   8.287 -0.1468  1.5526  1.6082
  163SAPE  H10Y18368   2.618   5.727   8.264  3.6239 -0.4239  1.2640
  163SAPE  C31118369   2.729   5.552   8.301 -0.0463  0.6431  0.0077
  163SAPE  H11X18370   2.817   5.617   8.286 -1.1471  2.2463  0.1943
  163SAPE  H11Y18371   2.734   5.447   8.266 -0.2658 -0.4179  2.9322
  163SAPE  C31218372   2.704   5.512   8.447 -0.1315  0.2709  0.2404
  163SAPE  H12X18373   2.801   5.467   8.477 -0.0484 -1.2521 -2.0995
  163SAPE  H12Y18374   2.625   5.434   8.445  2.1577 -2.2463  1.1376
  163SAPE  C31318375   2.665   5.625   8.545  0.0200  0.1060 -0.0165
  163SAPE  H13X18376   2.570   5.677   8.522 -0.3020  0.5682  2.0945
  163SAPE  H13Y18377   2.752   5.694   8.545  0.2876 -0.2300 -0.9265
  163SAPE  C31418378   2.668   5.573   8.691 -0.0451 -0.8023  0.0660
  163SAPE  H14X18379   2.775   5.553   8.715  0.0548  0.5511  0.8755
  163SAPE  H14Y18380   2.617   5.475   8.694  0.0870 -0.8512  1.0600
  163SAPE  C31518381   2.584   5.657   8.790  0.1974 -0.0999  0.4671
  163SAPE  H15X18382   2.482   5.668   8.747  0.5912  2.2259  0.0176
  163SAPE  H15Y18383   2.624   5.760   8.793 -1.1929  0.4502  0.9985
  163SAPE  C31618384   2.586   5.608   8.941 -0.5173  0.2329  0.0783
  163SAPE  H16X18385   2.694   5.597   8.967 -0.2581  1.6850 -0.3391
  163SAPE  H16Y18386   2.532   5.510   8.940  1.9738 -1.2215 -1.0608
  163SAPE  C31718387   2.531   5.702   9.043 -0.0810  0.1116 -0.6034
  163SAPE  H17X18388   2.573   5.803   9.020 -0.7188  0.3232 -0.8719
  163SAPE  H17Y18389   2.564   5.675   9.145  1.6154  2.3661 -0.4854
  163SAPE  C31818390   2.380   5.703   9.042  0.0450 -0.2077  0.2092
  163SAPE  H18X18391   2.359   5.609   9.097 -0.4684 -0.6614 -0.7435
  163SAPE  H18Y18392   2.369   5.705   8.932 -1.7448  0.9940  0.3631
  163SAPE  H18Z18393   2.338   5.798   9.081  0.6115  0.3723 -0.5646
  164SAPE     N18394   6.010   2.782   6.263 -0.1737  0.4436 -0.5924
  164SAPE   HN118395   6.014   2.691   6.312 -1.3375  1.1005  0.8044
  164SAPE   HN218396   6.094   2.842   6.277 -0.7645  1.4007 -1.0542
  164SAPE   HN318397   5.921   2.830   6.288 -0.6464 -0.5975 -0.2413
  164SAPE   C1218398   5.999   2.764   6.112  0.5083 -0.7274  0.8966
  164SAPE  H12A18399   5.960   2.863   6.080 -0.0026 -1.3474 -0.4676
  164SAPE  H12B18400   5.921   2.689   6.087 -0.6792  0.6337  0.4046
  164SAPE   C1118401   6.140   2.738   6.056  0.5002  0.1604 -0.0138
  164SAPE  H11A18402   6.184   2.839   6.070 -1.7838  1.2129  0.1804
  164SAPE  H11B18403   6.153   2.722   5.947  2.5642 -0.3755  0.2747
  164SAPE     P18404   6.210   2.493   6.081 -0.1623  0.4335 -0.2368
  164SAPE   O1318405   6.081   2.448   6.031 -0.4158 -0.0009  0.3699
  164SAPE   O1418406   6.321   2.483   5.987  0.1296  0.1172 -0.0070
  164SAPE   O1218407   6.208   2.639   6.124  0.4177  0.4970 -0.3114
  164SAPE   O1118408   6.254   2.411   6.210 -0.0257  0.1320 -0.0959
  164SAPE    C118409   6.247   2.469   6.341  0.2772  0.0490 -0.4017
  164SAPE    HA18410   6.159   2.536   6.352  0.0531  0.2188 -2.6894
  164SAPE    HB18411   6.239   2.382   6.409 -0.7210 -1.5017 -2.4227
  164SAPE    C218412   6.364   2.560   6.381 -0.1461 -0.4369 -0.4280
  164SAPE    HS18413   6.372   2.643   6.308 -3.0172 -0.1078 -0.4926
  164SAPE   O2118414   6.484   2.474   6.394  0.1655  0.2254 -0.3709
  164SAPE   C2118415   6.595   2.541   6.390 -0.0915 -0.3353 -0.2478
  164SAPE   O2218416   6.604   2.666   6.381 -0.0566 -0.0716 -0.1073
  164SAPE   C2218417   6.708   2.446   6.397  0.3865 -0.4671  0.0999
  164SAPE   H2R18418   6.671   2.355   6.449  0.5190 -0.8781 -0.5065
  164SAPE   H2S18419   6.726   2.420   6.290  0.3724  1.6084 -0.4526
  164SAPE    C318420   6.345   2.626   6.519  0.2978 -0.0825  0.1731
  164SAPE    HX18421   6.426   2.697   6.544 -0.7175  0.4486  2.0876
  164SAPE    HY18422   6.345   2.541   6.590  2.0059 -1.0971 -0.9535
  164SAPE   O3118423   6.225   2.705   6.526 -0.0446  0.4386 -0.2509
  164SAPE   C3118424   6.189   2.734   6.650 -0.6789 -0.3994  0.3470
  164SAPE   O3218425   6.251   2.705   6.753  0.3221 -0.4255  0.0861
  164SAPE   C3218426   6.066   2.826   6.645  0.5747 -0.2901 -0.5580
  164SAPE   H2X18427   6.058   2.882   6.550  2.0250  1.0762  0.0659
  164SAPE   H2Y18428   6.085   2.909   6.717  0.4306 -1.1561  0.5084
  164SAPE   C2318429   6.831   2.497   6.471  0.3232 -0.1693 -0.1449
  164SAPE   H3R18430   6.878   2.578   6.410 -3.3985  0.8939 -1.9000
  164SAPE   H3S18431   6.902   2.414   6.452  1.0378  0.4334 -0.1740
  164SAPE   C2418432   6.819   2.511   6.625 -0.0698 -0.6812 -0.4998
  164SAPE   H4R18433   6.924   2.531   6.656  0.2966 -0.0629 -2.0073
  164SAPE   H4S18434   6.781   2.415   6.664  3.1828 -2.8399 -2.1577
  164SAPE   C2518435   6.740   2.623   6.679  0.7232 -0.6678  0.6010
  164SAPE   H5R18436   6.773   2.723   6.649 -2.7555  0.1706 -0.8619
  164SAPE   C2618437   6.627   2.616   6.752  0.2599  0.7096 -0.8036
  164SAPE   H6R18438   6.572   2.709   6.774 -2.0780 -0.8558  0.4346
  164SAPE   C2718439   6.556   2.491   6.798  0.4103 -0.2402 -0.4694
  164SAPE   H7R18440   6.618   2.399   6.806  1.8893  0.5846 -1.9557
  164SAPE   H7S18441   6.480   2.467   6.720  0.1751  0.5618 -0.4984
  164SAPE   C2818442   6.475   2.526   6.921  1.1992 -0.9659  0.0398
  164SAPE   H8R18443   6.444   2.632   6.925 -0.7798 -1.4316 -1.5119
  164SAPE   C2918444   6.417   2.441   7.012  0.3372  0.1416  0.4506
  164SAPE   H9R18445   6.366   2.489   7.097  1.4176  0.6870  0.8113
  164SAPE  C21018446   6.426   2.293   7.019  0.5583  0.1653  0.2293
  164SAPE  H10R18447   6.372   2.261   6.927  0.2373 -1.4183  0.9452
  164SAPE  H10S18448   6.373   2.247   7.105 -0.2802  0.3769 -0.1635
  164SAPE  C21118449   6.561   2.233   7.026  0.3302  0.6524 -0.3565
  164SAPE  H11R18450   6.605   2.215   6.927 -0.1766  2.8430 -1.0273
  164SAPE  C21218451   6.627   2.195   7.139  0.2343  0.5240  0.3688
  164SAPE  H12R18452   6.725   2.151   7.118 -0.1259  0.0152 -0.2681
  164SAPE  C21318453   6.581   2.211   7.281 -0.5743  0.6753  0.2650
  164SAPE  H13R18454   6.661   2.168   7.345 -1.1486  2.4786  2.3185
  164SAPE  H13S18455   6.492   2.148   7.304 -0.4067  0.6653  0.9063
  164SAPE  C21418456   6.562   2.359   7.322 -0.2079  0.6953  0.6078
  164SAPE  H14R18457   6.570   2.435   7.243  0.8156  0.9109  0.8945
  164SAPE  C21518458   6.570   2.399   7.445 -0.0479 -0.5566 -0.4072
  164SAPE  H15R18459   6.543   2.503   7.464 -0.6075 -0.8497  0.4503
  164SAPE  C21618460   6.592   2.316   7.570 -0.0069 -0.5041 -0.1719
  164SAPE  H16R18461   6.701   2.299   7.587  0.7151  2.3375 -1.3079
  164SAPE  H16S18462   6.549   2.215   7.560 -0.0997 -0.3358 -1.7844
  164SAPE  C21718463   6.519   2.373   7.703  0.8783 -0.3095 -0.5472
  164SAPE  H17R18464   6.412   2.401   7.696 -0.4048 -2.9432  4.1584
  164SAPE  H17S18465   6.580   2.460   7.734  1.0212 -0.6354  0.0936
  164SAPE  C21818466   6.530   2.278   7.826  0.2344 -0.0093 -0.2704
  164SAPE  H18R18467   6.636   2.268   7.857 -0.4227 -0.0883  2.1859
  164SAPE  H18S18468   6.490   2.178   7.802 -3.8797  1.4116 -0.1897
  164SAPE  C21918469   6.471   2.335   7.955 -0.6122 -0.8216 -0.7007
  164SAPE  H19R18470   6.360   2.345   7.945 -0.9516 -1.8931  1.4740
  164SAPE  H19S18471   6.513   2.437   7.963  0.2094 -1.1020 -1.2778
  164SAPE  C22018472   6.498   2.247   8.072 -0.1672  0.5205 -0.3204
  164SAPE  H20R18473   6.470   2.142   8.049  2.1353  0.4434 -3.3110
  164SAPE  H20S18474   6.451   2.285   8.166 -0.7627 -2.2496  0.6050
  164SAPE  H20T18475   6.608   2.243   8.084 -0.3619 -1.6054  1.6024
  164SAPE   C3318476   5.928   2.755   6.675 -0.2352  0.2756  0.6329
  164SAPE   H3X18477   5.939   2.647   6.698 -0.4138  0.5510  2.1158
  164SAPE   H3Y18478   5.866   2.758   6.583  0.1508  0.1240  0.3637
  164SAPE   C3418479   5.847   2.817   6.791  0.5164 -0.1640  0.1361
  164SAPE   H4X18480   5.917   2.817   6.877  3.8774  1.0754 -2.4032
  164SAPE   H4Y18481   5.755   2.757   6.809 -1.3707  2.9454  1.8309
  164SAPE   C3518482   5.809   2.968   6.785  0.2914  0.1021 -0.2513
  164SAPE   H5X18483   5.744   2.998   6.699 -1.1428  0.7019  0.9958
  164SAPE   H5Y18484   5.903   3.026   6.772 -1.6031  3.2420 -1.0648
  164SAPE   C3618485   5.751   3.014   6.921 -1.1038 -0.2366  0.5381
  164SAPE   H6X18486   5.661   2.957   6.950 -0.7773 -0.4477  1.1518
  164SAPE   H6Y18487   5.713   3.118   6.912  2.5467  1.1414 -0.8414
  164SAPE   C3718488   5.854   3.024   7.034  0.3976  0.0199 -0.5271
  164SAPE   H7X18489   5.931   3.100   7.012  0.3854 -0.1178 -1.0683
  164SAPE   H7Y18490   5.911   2.929   7.037  0.8536  0.2960 -0.4182
  164SAPE   C3818491   5.776   3.039   7.165 -1.2666  0.3295  0.1400
  164SAPE   H8X18492   5.719   2.948   7.192 -0.5530  0.4265  2.2211
  164SAPE   H8Y18493   5.707   3.125   7.158 -1.8050 -0.1700 -0.7567
  164SAPE   C3918494   5.884   3.048   7.271 -0.9294  0.3845  0.0908
  164SAPE   H9X18495   5.918   3.153   7.276 -0.8488  0.4215 -1.0928
  164SAPE   H9Y18496   5.974   2.988   7.247  0.0468  1.3120  1.3264
  164SAPE  C31018497   5.839   3.008   7.413  0.4418  0.6968 -0.4351
  164SAPE  H10X18498   5.833   2.897   7.410  1.8150  0.6168 -0.7344
  164SAPE  H10Y18499   5.734   3.043   7.424  0.1293  0.4003 -2.1995
  164SAPE  C31118500   5.938   3.053   7.528  0.2787  0.0354 -0.3389
  164SAPE  H11X18501   5.920   3.162   7.535 -1.0175 -0.2483  3.1124
  164SAPE  H11Y18502   6.041   3.027   7.494  0.1934  1.2914 -1.6181
  164SAPE  C31218503   5.901   2.979   7.661  0.2916 -0.3563  0.0140
  164SAPE  H12X18504   5.932   2.873   7.662  2.1299  0.1529  1.2227
  164SAPE  H12Y18505   5.790   2.984   7.674  0.6300  3.1090  3.1034
  164SAPE  C31318506   5.962   3.046   7.787 -0.1946  0.2742  0.2057
  164SAPE  H13X18507   5.923   3.147   7.809  0.0026  0.7167 -1.3479
  164SAPE  H13Y18508   6.073   3.048   7.779  0.0742  0.0045  2.8949
  164SAPE  C31418509   5.928   2.956   7.910  0.4167 -0.4172  0.3194
  164SAPE  H14X18510   6.000   2.871   7.906  1.3492  0.3493  0.4028
  164SAPE  H14Y18511   5.827   2.912   7.897  0.2058  0.5132 -1.5369
  164SAPE  C31518512   5.938   3.034   8.042 -0.4016  0.7325 -0.2094
  164SAPE  H15X18513   5.882   3.130   8.039 -0.5331  0.6347 -1.6785
  164SAPE  H15Y18514   6.044   3.050   8.069 -0.0524 -1.4998 -0.0835
  164SAPE  C31618515   5.888   2.951   8.166  0.2638 -0.4527 -0.1177
  164SAPE  H16X18516   5.901   2.841   8.153 -2.8337 -1.0932  1.3991
  164SAPE  H16Y18517   5.777   2.953   8.164  0.2796 -0.0656 -1.5078
  164SAPE  C31718518   5.952   3.002   8.297  0.1349 -0.5152  0.1111
  164SAPE  H17X18519   6.061   2.984   8.304 -0.1740 -3.0302 -0.7786
  164SAPE  H17Y18520   5.903   2.953   8.384 -0.6133  0.8644  0.5000
  164SAPE  C31818521   5.928   3.157   8.306 -0.1345 -0.4566  0.3927
  164SAPE  H18X18522   5.975   3.215   8.224  0.2856 -0.3551  0.7017
  164SAPE  H18Y18523   5.962   3.195   8.405 -1.0518 -0.2604  0.6471
  164SAPE  H18Z18524   5.817   3.164   8.301 -0.1067 -0.7693 -1.7663
  165SAPE     N18525   5.072   6.234   6.434 -0.1558  0.1361 -0.2645
  165SAPE   HN118526   5.158   6.221   6.491 -1.5167  1.5170  2.2729
  165SAPE   HN218527   5.009   6.250   6.516  0.7298 -1.4514  0.7828
  165SAPE   HN318528   5.054   6.141   6.390  0.5578 -0.4340  0.5925
  165SAPE   C1218529   5.079   6.364   6.357 -0.2342 -0.6202 -0.1667
  165SAPE  H12A18530   4.974   6.389   6.331 -1.3810 -3.0726  1.6808
  165SAPE  H12B18531   5.135   6.350   6.262 -0.7910  1.2201 -0.8190
  165SAPE   C1118532   5.145   6.482   6.431 -0.1432  0.4061 -0.4450
  165SAPE  H11A18533   5.154   6.562   6.354 -0.0494  0.1633 -0.6888
  165SAPE  H11B18534   5.248   6.449   6.458 -0.3681 -2.7099 -2.7506
  165SAPE     P18535   4.986   6.639   6.557  0.4687  0.2570  0.9874
  165SAPE   O1318536   5.055   6.747   6.487  1.1182 -0.0614  0.0216
  165SAPE   O1418537   4.851   6.607   6.509 -0.1668  0.0652 -0.4648
  165SAPE   O1218538   5.076   6.513   6.548 -0.4519 -0.2935  0.7910
  165SAPE   O1118539   4.981   6.683   6.712 -0.2471 -0.0828  0.2730
  165SAPE    C118540   5.086   6.652   6.802 -0.9516 -0.3282 -0.0247
  165SAPE    HA18541   5.187   6.655   6.756 -0.1654  0.7420  1.6668
  165SAPE    HB18542   5.098   6.735   6.875 -1.5382  0.9118 -1.2679
  165SAPE    C218543   5.067   6.513   6.866 -0.2262 -0.2284  0.6969
  165SAPE    HS18544   5.048   6.433   6.792  1.7938  0.3321 -0.5213
  165SAPE   O2118545   4.957   6.528   6.961  0.2395  0.3885 -0.0115
  165SAPE   C2118546   4.877   6.421   6.970  0.3282 -0.4092 -0.4015
  165SAPE   O2218547   4.891   6.314   6.911  0.2599  0.1508 -0.1673
  165SAPE   C2218548   4.769   6.442   7.072  0.6304  0.1037 -0.0548
  165SAPE   H2R18549   4.802   6.525   7.138 -0.7828  0.8351 -0.2298
  165SAPE   H2S18550   4.674   6.467   7.020 -0.2073  2.0979  2.2071
  165SAPE    C318551   5.190   6.470   6.950 -0.5069 -0.3756  0.2005
  165SAPE    HX18552   5.212   6.546   7.028  1.4259  2.1591 -2.5950
  165SAPE    HY18553   5.286   6.475   6.894  0.4143 -0.0581  1.7480
  165SAPE   O3118554   5.168   6.344   7.013 -0.8286 -0.3856  0.4501
  165SAPE   C3118555   5.206   6.235   6.942 -0.0656  0.1662  0.0935
  165SAPE   O3218556   5.258   6.240   6.831  0.0108 -0.4666 -0.5322
  165SAPE   C3218557   5.182   6.114   7.035 -0.2995 -0.4439 -0.0204
  165SAPE   H2X18558   5.071   6.110   7.037 -0.4165  1.5268 -0.7434
  165SAPE   H2Y18559   5.208   6.137   7.140 -1.3372 -0.5602  0.2737
  165SAPE   C2318560   4.743   6.316   7.163  0.0854 -0.0283 -0.1424
  165SAPE   H3R18561   4.704   6.229   7.106 -1.1545  1.0325 -0.9699
  165SAPE   H3S18562   4.656   6.338   7.229 -1.5409 -0.6281 -2.0137
  165SAPE   C2418563   4.863   6.289   7.259  0.1566 -0.2542  0.0691
  165SAPE   H4R18564   4.952   6.269   7.196  0.1763 -3.9051  1.0220
  165SAPE   H4S18565   4.831   6.190   7.299 -0.1170 -0.8883 -1.6392
  165SAPE   C2518566   4.876   6.403   7.360 -0.3258  0.2536  0.3133
  165SAPE   H5R18567   4.785   6.433   7.413  0.3051 -0.3689  1.8438
  165SAPE   C2618568   4.993   6.458   7.400 -0.4873 -0.0826 -0.7368
  165SAPE   H6R18569   4.983   6.540   7.472 -0.3453  0.2885 -1.1408
  165SAPE   C2718570   5.142   6.423   7.366 -0.2005 -0.2213  0.0536
  165SAPE   H7R18571   5.207   6.511   7.384 -0.6866  0.3930 -1.1159
  165SAPE   H7S18572   5.150   6.409   7.257 -0.8805 -2.8415  0.2812
  165SAPE   C2818573   5.208   6.306   7.444  0.1685 -0.4255  0.0818
  165SAPE   H8R18574   5.253   6.230   7.379  1.1531 -0.0137  0.2586
  165SAPE   C2918575   5.229   6.304   7.577 -0.4132  0.4760  0.0165
  165SAPE   H9R18576   5.293   6.220   7.609 -0.2135  0.5562 -0.1715
  165SAPE  C21018577   5.191   6.403   7.683  0.4492 -0.2025  0.0223
  165SAPE  H10R18578   5.105   6.466   7.653  1.7456  1.9279  0.4738
  165SAPE  H10S18579   5.278   6.473   7.690 -0.9054  1.4215  2.7861
  165SAPE  C21118580   5.172   6.342   7.818  0.0514 -0.0092  0.3056
  165SAPE  H11R18581   5.073   6.296   7.829 -0.2065  0.1591 -1.0527
  165SAPE  C21218582   5.265   6.336   7.920 -0.4644 -0.9696  0.1673
  165SAPE  H12R18583   5.235   6.285   8.013  0.0358 -0.0365  0.8446
  165SAPE  C21318584   5.404   6.398   7.912 -0.1076 -0.7463  1.1138
  165SAPE  H13R18585   5.397   6.509   7.912  1.6372 -0.6008  0.1827
  165SAPE  H13S18586   5.447   6.381   7.811 -1.3167 -0.0252  0.4424
  165SAPE  C21418587   5.502   6.361   8.023 -0.0249  0.2656 -0.0486
  165SAPE  H14R18588   5.565   6.272   8.008 -0.6276 -0.1562 -0.1532
  165SAPE  C21518589   5.509   6.422   8.140 -0.3476  0.1397 -0.4477
  165SAPE  H15R18590   5.579   6.384   8.216 -1.3817  0.2203  0.5806
  165SAPE  C21618591   5.420   6.543   8.179  0.4624 -0.2111 -0.2391
  165SAPE  H16R18592   5.331   6.559   8.114  1.0283 -0.2513 -1.0533
  165SAPE  H16S18593   5.479   6.636   8.164 -1.0261  0.9454  0.7629
  165SAPE  C21718594   5.366   6.534   8.323 -0.3986 -0.0402  0.0967
  165SAPE  H17R18595   5.445   6.505   8.395  0.2474  0.9738 -0.1988
  165SAPE  H17S18596   5.276   6.469   8.320 -0.9953  0.5438  2.5920
  165SAPE  C21818597   5.292   6.663   8.360 -0.0584 -0.0978 -0.0608
  165SAPE  H18R18598   5.248   6.706   8.268 -0.1601 -0.6639 -0.2807
  165SAPE  H18S18599   5.372   6.731   8.395 -0.6456 -0.4271  2.1261
  165SAPE  C21918600   5.196   6.649   8.480  0.4632 -0.1652 -0.0826
  165SAPE  H19R18601   5.266   6.597   8.549 -0.9622 -1.2474  0.6095
  165SAPE  H19S18602   5.111   6.584   8.450 -0.7201  1.3361 -0.0977
  165SAPE  C22018603   5.139   6.785   8.528  0.3864 -0.7409  0.1274
  165SAPE  H20R18604   5.100   6.830   8.435 -0.3873 -4.4964 -1.5555
  165SAPE  H20S18605   5.211   6.852   8.581  0.4162 -0.1190 -0.6829
  165SAPE  H20T18606   5.049   6.770   8.591  0.8885 -0.2920  0.9649
  165SAPE   C3318607   5.250   5.985   6.991  0.7331 -0.0898 -0.6171
  165SAPE   H3X18608   5.356   6.015   6.980  0.4468  1.0768 -0.3342
  165SAPE   H3Y18609   5.209   5.951   6.893 -0.1335 -0.1544 -0.2427
  165SAPE   C3418610   5.222   5.877   7.098  0.3385  0.3096  0.0061
  165SAPE   H4X18611   5.227   5.776   7.054 -1.2739 -0.0562  0.6131
  165SAPE   H4Y18612   5.123   5.890   7.146  0.7202 -0.2729  1.0008
  165SAPE   C3518613   5.323   5.880   7.209 -0.2977 -0.1415 -0.2094
  165SAPE   H5X18614   5.335   5.973   7.269  2.6235 -0.6421  0.1364
  165SAPE   H5Y18615   5.424   5.846   7.176  0.4935  1.7357  0.1831
  165SAPE   C3618616   5.280   5.768   7.316 -0.1890 -0.3003  0.2450
  165SAPE   H6X18617   5.256   5.682   7.250 -0.0206 -0.3597  0.2601
  165SAPE   H6Y18618   5.183   5.797   7.362  1.0338  1.2556  1.9544
  165SAPE   C3718619   5.387   5.734   7.419  0.6773 -0.1857 -0.2399
  165SAPE   H7X18620   5.476   5.704   7.360  1.0689  0.3907  0.0530
  165SAPE   H7Y18621   5.353   5.644   7.474 -0.9144 -0.9529 -2.3215
  165SAPE   C3818622   5.422   5.846   7.525  0.2633  0.4210  0.3768
  165SAPE   H8X18623   5.401   5.942   7.473  0.3981  0.0258 -0.4168
  165SAPE   H8Y18624   5.525   5.842   7.567  1.0791 -0.6645 -1.5691
  165SAPE   C3918625   5.327   5.833   7.651 -0.3306 -0.6872  0.3523
  165SAPE   H9X18626   5.357   5.734   7.692  1.7349 -0.1266  0.3206
  165SAPE   H9Y18627   5.221   5.822   7.621 -0.4565 -0.3149  0.6675
  165SAPE  C31018628   5.348   5.947   7.746  0.3753  0.2264  0.1811
  165SAPE  H10X18629   5.264   5.930   7.816  0.8283  0.7204  0.8568
  165SAPE  H10Y18630   5.343   6.046   7.696 -0.0937 -0.1671 -0.5833
  165SAPE  C31118631   5.471   5.928   7.833 -1.1549 -0.5382 -0.3206
  165SAPE  H11X18632   5.567   5.958   7.785 -1.4428  0.6648 -0.1675
  165SAPE  H11Y18633   5.476   5.819   7.855 -1.6511 -0.0584  2.4771
  165SAPE  C31218634   5.461   6.000   7.966  0.3242  0.3094 -0.5325
  165SAPE  H12X18635   5.368   5.967   8.018  0.0464  0.4551 -0.9274
  165SAPE  H12Y18636   5.453   6.110   7.950  1.7689  0.2743 -1.6097
  165SAPE  C31318637   5.580   5.969   8.068  0.0277 -0.3058  1.0133
  165SAPE  H13X18638   5.682   6.000   8.037 -1.2328  2.1637 -1.1059
  165SAPE  H13Y18639   5.570   5.859   8.074  1.2510 -0.4520  0.7099
  165SAPE  C31418640   5.550   6.014   8.214  0.4005 -0.1485 -0.1923
  165SAPE  H14X18641   5.519   6.121   8.203  0.9445  0.0413  0.0927
  165SAPE  H14Y18642   5.642   6.005   8.275 -1.8281  1.1444  3.7366
  165SAPE  C31518643   5.417   5.962   8.274  0.0643  0.5400 -0.7654
  165SAPE  H15X18644   5.394   5.862   8.232  0.5343 -0.3289  0.9517
  165SAPE  H15Y18645   5.328   6.026   8.255 -0.2086  0.2895 -0.3648
  165SAPE  C31618646   5.436   5.941   8.425 -0.2721  0.1330  0.3686
  165SAPE  H16X18647   5.462   6.043   8.462 -1.1081  1.5001 -2.5171
  165SAPE  H16Y18648   5.513   5.867   8.454 -0.4006  0.1399  0.7363
  165SAPE  C31718649   5.302   5.895   8.482 -0.0120 -0.1372 -0.0177
  165SAPE  H17X18650   5.266   5.803   8.431 -0.0341  0.8343 -1.8257
  165SAPE  H17Y18651   5.223   5.967   8.453  0.1733  0.3649  0.7105
  165SAPE  C31818652   5.296   5.885   8.635 -0.4439 -0.2361 -0.1973
  165SAPE  H18X18653   5.201   5.848   8.680 -1.3879 -0.3796 -2.1766
  165SAPE  H18Y18654   5.320   5.986   8.674 -2.5710 -0.2999  1.4494
  165SAPE  H18Z18655   5.368   5.809   8.672  1.9370  0.1539 -3.5824
  166SAPE     N18656   5.341   3.385   6.016  0.1492  0.0968 -0.3021
  166SAPE   HN118657   5.419   3.416   5.954  0.0576  0.4153 -0.2633
  166SAPE   HN218658   5.381   3.308   6.072 -1.6215 -1.3594 -0.9427
  166SAPE   HN318659   5.263   3.338   5.966  0.8509 -1.0257 -0.3743
  166SAPE   C1218660   5.298   3.504   6.101 -0.2771  0.4779  0.0983
  166SAPE  H12A18661   5.232   3.566   6.037 -0.3066  0.9473  0.5712
  166SAPE  H12B18662   5.391   3.559   6.128  0.3885 -0.9723  0.8766
  166SAPE   C1118663   5.218   3.461   6.227  0.0602 -0.6346 -0.0504
  166SAPE  H11A18664   5.227   3.544   6.300 -0.8278 -1.4698  1.0623
  166SAPE  H11B18665   5.268   3.375   6.276  1.9747  0.0534 -0.7413
  166SAPE     P18666   5.025   3.288   6.168 -0.0882  0.2341 -0.0436
  166SAPE   O1318667   4.888   3.307   6.121 -0.4090  0.0143  0.0589
  166SAPE   O1418668   5.118   3.206   6.087  0.3260 -0.4426 -0.4235
  166SAPE   O1218669   5.084   3.435   6.190 -0.0736 -0.1518 -0.4020
  166SAPE   O1118670   5.013   3.226   6.313 -0.1065  0.4829  0.3991
  166SAPE    C118671   4.982   3.299   6.431  0.2292 -0.6157  0.6900
  166SAPE    HA18672   5.076   3.347   6.465  0.3161  0.9693 -1.5712
  166SAPE    HB18673   4.906   3.377   6.414  0.9650  0.5990  2.6403
  166SAPE    C218674   4.931   3.206   6.544 -0.6795 -0.2699  0.1399
  166SAPE    HS18675   4.822   3.187   6.532 -0.8943  1.4943 -1.0169
  166SAPE   O2118676   4.964   3.268   6.665 -0.3055  0.3940 -1.1750
  166SAPE   C2118677   4.875   3.343   6.715  0.4314  0.0017  0.8392
  166SAPE   O2218678   4.765   3.366   6.662  0.0889 -0.3702 -0.6946
  166SAPE   C2218679   4.908   3.396   6.852 -0.8986  0.1050 -0.1277
  166SAPE   H2R18680   4.977   3.482   6.837  0.2492  0.2324  4.4497
  166SAPE   H2S18681   4.821   3.439   6.906  1.4333  2.1672  2.2345
  166SAPE    C318682   5.004   3.066   6.534 -0.5806  0.3124 -0.2519
  166SAPE    HX18683   5.108   3.079   6.572 -0.9179 -1.2701  1.3066
  166SAPE    HY18684   5.024   3.036   6.429 -0.8568 -0.1248 -0.1808
  166SAPE   O3118685   4.932   2.952   6.589  0.1507 -0.0873  0.7405
  166SAPE   C3118686   4.982   2.897   6.709  0.2247 -0.1613 -0.9131
  166SAPE   O3218687   5.084   2.929   6.768  0.4187 -0.6651 -0.5544
  166SAPE   C3218688   4.896   2.788   6.757  0.5098  0.5128 -0.5540
  166SAPE   H2X18689   4.953   2.719   6.823 -0.6165 -0.0859 -0.1835
  166SAPE   H2Y18690   4.870   2.728   6.666  0.9373  1.3744 -1.2604
  166SAPE   C2318691   4.969   3.284   6.943  0.0027 -0.2272 -0.5330
  166SAPE   H3R18692   5.064   3.248   6.899  2.0892  2.2722  1.6504
  166SAPE   H3S18693   4.889   3.207   6.937 -1.4493  1.1257  0.4813
  166SAPE   C2418694   4.992   3.336   7.090  0.1193  0.3268  0.5033
  166SAPE   H4R18695   5.064   3.421   7.084  0.3238  0.0400 -2.6415
  166SAPE   H4S18696   5.042   3.264   7.158 -0.9535  1.2125  2.3054
  166SAPE   C2518697   4.863   3.384   7.157  0.1924  0.4136 -0.3786
  166SAPE   H5R18698   4.775   3.334   7.114 -0.3798  0.4812  0.6723
  166SAPE   C2618699   4.850   3.459   7.265 -0.1321 -0.1114  0.9530
  166SAPE   H6R18700   4.748   3.472   7.303  0.5561  0.0468  2.8854
  166SAPE   C2718701   4.975   3.518   7.340  0.4666  0.1636  0.2616
  166SAPE   H7R18702   5.007   3.611   7.288  0.6481 -0.0941 -0.0926
  166SAPE   H7S18703   5.065   3.454   7.333  0.8917  0.8024 -0.2228
  166SAPE   C2818704   4.936   3.548   7.479 -0.6835  0.9257 -0.3264
  166SAPE   H8R18705   4.830   3.573   7.487 -0.9341 -0.3282  0.6327
  166SAPE   C2918706   5.011   3.559   7.592  0.1882  0.4889 -0.5405
  166SAPE   H9R18707   4.959   3.585   7.685  0.8230 -0.6977  0.1690
  166SAPE  C21018708   5.156   3.526   7.596 -0.7360  0.7376  0.6144
  166SAPE  H10R18709   5.201   3.606   7.658 -0.8771  0.4951  1.0397
  166SAPE  H10S18710   5.201   3.544   7.497 -0.3187  0.3395  0.7250
  166SAPE  C21118711   5.208   3.387   7.637 -0.2701 -1.1667 -0.7951
  166SAPE  H11R18712   5.249   3.327   7.554 -0.2192 -0.3576 -1.3776
  166SAPE  C21218713   5.221   3.348   7.767 -0.3361 -0.4684  0.3807
  166SAPE  H12R18714   5.274   3.252   7.778  1.4970  0.2328 -1.4872
  166SAPE  C21318715   5.186   3.426   7.891 -0.7902 -0.2547 -0.5068
  166SAPE  H13R18716   5.174   3.367   7.984 -0.1063 -0.7649 -0.7395
  166SAPE  H13S18717   5.089   3.477   7.873 -0.7733 -0.6787 -1.9562
  166SAPE  C21418718   5.296   3.526   7.922 -0.1963  0.1093 -0.1948
  166SAPE  H14R18719   5.391   3.516   7.868 -1.0121 -0.8205 -1.5186
  166SAPE  C21518720   5.290   3.622   8.016  0.4844  0.2240 -0.6395
  166SAPE  H15R18721   5.384   3.676   8.033  1.3501 -1.1523 -0.9208
  166SAPE  C21618722   5.178   3.647   8.117 -0.3750  0.0616 -0.1228
  166SAPE  H16R18723   5.092   3.579   8.098 -0.0064  0.1807 -2.4025
  166SAPE  H16S18724   5.135   3.747   8.094 -0.4153 -0.3536 -1.9781
  166SAPE  C21718725   5.221   3.638   8.265  0.2174 -0.7343 -0.0636
  166SAPE  H17R18726   5.129   3.659   8.325  0.3437  3.2236 -0.9846
  166SAPE  H17S18727   5.288   3.725   8.277 -0.4068 -0.1818 -0.4730
  166SAPE  C21818728   5.271   3.501   8.295  0.4482  0.2795  0.5410
  166SAPE  H18R18729   5.355   3.473   8.229 -1.6564 -2.3577 -1.2300
  166SAPE  H18S18730   5.195   3.420   8.287 -1.0473  1.7435 -0.5935
  166SAPE  C21918731   5.313   3.483   8.441 -0.1052  0.2440 -0.7277
  166SAPE  H19R18732   5.306   3.375   8.465  2.6986 -0.2085 -1.5998
  166SAPE  H19S18733   5.232   3.534   8.498 -0.9725 -2.7687  0.9177
  166SAPE  C22018734   5.444   3.539   8.492  0.2700 -0.1365  0.3384
  166SAPE  H20R18735   5.501   3.481   8.417 -0.1021  0.8218 -0.7055
  166SAPE  H20S18736   5.463   3.522   8.601  0.5805 -1.1935  0.1342
  166SAPE  H20T18737   5.450   3.647   8.468  3.4602  0.1122  1.7065
  166SAPE   C3318738   4.755   2.841   6.801  0.4262  0.2291 -0.5395
  166SAPE   H3X18739   4.695   2.750   6.819  2.5797 -1.5244 -1.6770
  166SAPE   H3Y18740   4.712   2.895   6.714  1.5304 -0.1383 -1.3476
  166SAPE   C3418741   4.758   2.922   6.925 -0.6670 -0.2250 -0.3877
  166SAPE   H4X18742   4.827   3.009   6.925 -1.6921  0.6004 -0.1677
  166SAPE   H4Y18743   4.806   2.846   6.991  0.7583  0.1323 -0.9833
  166SAPE   C3518744   4.623   2.970   6.984 -0.0562  0.0641 -0.1694
  166SAPE   H5X18745   4.561   2.880   7.004 -2.4766  1.3138 -1.6093
  166SAPE   H5Y18746   4.576   3.034   6.907  0.2215  1.0325  0.4427
  166SAPE   C3618747   4.652   3.050   7.118 -0.0845  0.6780  0.5621
  166SAPE   H6X18748   4.555   3.098   7.144 -0.8401 -0.7906  0.5782
  166SAPE   H6Y18749   4.736   3.122   7.116 -0.2507  1.0292  3.1507
  166SAPE   C3718750   4.684   2.959   7.240  0.6054  0.3420 -0.5183
  166SAPE   H7X18751   4.783   2.910   7.228  0.1734 -1.1185  1.3389
  166SAPE   H7Y18752   4.621   2.868   7.250 -1.5298  1.9852  2.2299
  166SAPE   C3818753   4.708   3.041   7.366 -0.1719 -0.1181 -0.5917
  166SAPE   H8X18754   4.608   3.065   7.409  0.9714  1.5763  1.3856
  166SAPE   H8Y18755   4.758   3.134   7.331  0.3189  0.1779  0.8128
  166SAPE   C3918756   4.785   2.961   7.468 -0.0282  0.9005 -0.1849
  166SAPE   H9X18757   4.894   2.974   7.452  0.3920 -0.2749  1.4191
  166SAPE   H9Y18758   4.777   2.850   7.462  0.4185  0.8466  0.1129
  166SAPE  C31018759   4.726   2.999   7.610  0.3646 -0.8698  0.4015
  166SAPE  H10X18760   4.781   2.943   7.689  0.6251 -0.1218  0.7503
  166SAPE  H10Y18761   4.618   2.980   7.628  0.1297  0.9027  0.9729
  166SAPE  C31118762   4.763   3.146   7.644 -0.5075 -0.2214  0.1724
  166SAPE  H11X18763   4.710   3.223   7.584  1.4695  0.1667 -1.1952
  166SAPE  H11Y18764   4.871   3.165   7.625 -0.3796  0.0621  1.1710
  166SAPE  C31218765   4.720   3.180   7.790  0.8050  0.0846 -0.4933
  166SAPE  H12X18766   4.774   3.113   7.859 -1.2138 -0.0226  1.0760
  166SAPE  H12Y18767   4.612   3.160   7.807  1.4880 -1.6879  2.4693
  166SAPE  C31318768   4.761   3.321   7.828 -0.7559  0.1998 -0.4910
  166SAPE  H13X18769   4.725   3.402   7.762  3.0941  1.8185 -0.8667
  166SAPE  H13Y18770   4.869   3.320   7.804 -0.6880 -0.8219 -0.1971
  166SAPE  C31418771   4.731   3.372   7.971  0.0771 -0.6012  0.4201
  166SAPE  H14X18772   4.779   3.306   8.046 -1.3063 -0.3773  1.5549
  166SAPE  H14Y18773   4.622   3.356   7.991 -0.2263  0.8917  0.1085
  166SAPE  C31518774   4.769   3.521   7.994 -1.0970  0.8028  0.8024
  166SAPE  H15X18775   4.736   3.591   7.914  1.2060  0.4841 -0.4964
  166SAPE  H15Y18776   4.879   3.528   7.986 -1.1565  1.2406  0.2988
  166SAPE  C31618777   4.720   3.576   8.129 -0.2118 -0.9216 -0.6131
  166SAPE  H16X18778   4.746   3.503   8.209  0.0358 -2.5674 -2.1254
  166SAPE  H16Y18779   4.612   3.600   8.129  0.4233  2.3354  0.4950
  166SAPE  C31718780   4.794   3.707   8.171  0.3842  0.0937  1.3672
  166SAPE  H17X18781   4.900   3.678   8.190  0.4524 -2.5612 -2.0670
  166SAPE  H17Y18782   4.743   3.747   8.261 -0.5912  1.3591  0.2874
  166SAPE  C31818783   4.802   3.825   8.072 -1.2380  0.3219 -0.3138
  166SAPE  H18X18784   4.708   3.879   8.047 -0.3573  1.7827 -0.5378
  166SAPE  H18Y18785   4.853   3.785   7.982  0.3330  1.8203 -0.1329
  166SAPE  H18Z18786   4.879   3.893   8.112  0.5119 -0.4861 -2.1619
  167SAPE     N18787   0.170   2.255   6.128 -0.3840  0.1524  0.5663
  167SAPE   HN118788   0.121   2.347   6.124 -1.7974 -0.5955 -2.3984
  167SAPE   HN218789   0.213   2.231   6.036  0.4677 -1.4106  1.3471
  167SAPE   HN318790   0.098   2.181   6.138 -1.3318  0.8632 -0.6364
  167SAPE   C1218791   0.274   2.243   6.230  0.3650  0.4138 -0.0540
  167SAPE  H12A18792   0.243   2.325   6.298 -1.8086 -1.2062  1.0609
  167SAPE  H12B18793   0.371   2.278   6.189 -0.2681  1.5041 -0.6750
  167SAPE   C1118794   0.288   2.100   6.297 -0.1783  0.1403  0.0431
  167SAPE  H11A18795   0.201   2.080   6.364 -0.4677 -0.4239 -0.4903
  167SAPE  H11B18796   0.386   2.104   6.348 -0.4310 -1.5754  0.7186
  167SAPE     P18797   0.403   1.912   6.148 -0.3164 -0.0391 -0.0886
  167SAPE   O1318798   0.359   1.834   6.036  0.2073  0.2082 -0.2579
  167SAPE   O1418799   0.516   2.003   6.119 -0.5114  0.2476  0.1632
  167SAPE   O1218800   0.285   2.003   6.193 -0.0948 -0.5768  0.3109
  167SAPE   O1118801   0.426   1.822   6.271  0.3685  0.4472  0.6791
  167SAPE    C118802   0.320   1.775   6.357  0.2571  0.1903  0.2030
  167SAPE    HA18803   0.266   1.857   6.409 -1.3625 -1.2464  0.8876
  167SAPE    HB18804   0.245   1.713   6.304 -0.8439  1.6014  0.0593
  167SAPE    C218805   0.381   1.697   6.477  0.4892  0.9597 -0.5097
  167SAPE    HS18806   0.432   1.605   6.440 -2.2835 -1.3924  1.1703
  167SAPE   O2118807   0.278   1.653   6.580 -0.1527 -0.6678  0.6529
  167SAPE   C2118808   0.185   1.570   6.539 -0.1358 -0.0754 -0.2348
  167SAPE   O2218809   0.174   1.529   6.424  0.6895  0.9439 -0.4502
  167SAPE   C2218810   0.091   1.517   6.654 -0.4591  0.5908  0.1403
  167SAPE   H2R18811  -0.017   1.536   6.635 -0.9729 -1.2988  0.9435
  167SAPE   H2S18812   0.106   1.408   6.641 -0.9119  0.7787 -2.5635
  167SAPE    C318813   0.485   1.786   6.550  0.4250  0.1188 -0.6268
  167SAPE    HX18814   0.460   1.892   6.528 -1.0399 -0.2915 -1.0467
  167SAPE    HY18815   0.586   1.762   6.512  0.7554  1.9983 -1.0461
  167SAPE   O3118816   0.488   1.756   6.692 -0.1355 -0.1481  0.0485
  167SAPE   C3118817   0.578   1.836   6.752  0.0478  0.3650 -0.0428
  167SAPE   O3218818   0.639   1.927   6.700  0.0768  0.3178 -0.1167
  167SAPE   C3218819   0.583   1.795   6.896  0.1368  0.1529 -0.2313
  167SAPE   H2X18820   0.644   1.871   6.949 -1.6399  0.2022  1.8996
  167SAPE   H2Y18821   0.638   1.698   6.903 -0.6551 -0.2617  0.4725
  167SAPE   C2318822   0.137   1.566   6.795  0.1843  0.7949  0.7589
  167SAPE   H3R18823   0.114   1.674   6.810  1.2019  0.8474  2.0348
  167SAPE   H3S18824   0.247   1.552   6.801  0.1105 -2.5118 -2.2977
  167SAPE   C2418825   0.060   1.500   6.909 -0.2157 -0.1516 -0.3247
  167SAPE   H4R18826  -0.051   1.506   6.896 -0.2884  2.5285  1.0113
  167SAPE   H4S18827   0.082   1.566   6.996 -1.4827 -1.8416  1.3657
  167SAPE   C2518828   0.098   1.358   6.946 -0.0143 -0.4221 -0.4000
  167SAPE   H5R18829   0.071   1.282   6.872 -2.0720  1.5769 -1.8365
  167SAPE   C2618830   0.163   1.320   7.058 -0.0500 -0.3824 -0.5344
  167SAPE   H6R18831   0.192   1.217   7.082  2.1051  0.6274  1.5709
  167SAPE   C2718832   0.223   1.408   7.165  0.0836 -0.5373 -0.3801
  167SAPE   H7R18833   0.225   1.514   7.131  1.8376 -0.6302 -0.6262
  167SAPE   H7S18834   0.327   1.380   7.189 -0.5627 -1.1134  1.9500
  167SAPE   C2818835   0.141   1.403   7.289 -0.4532  0.3425 -0.5520
  167SAPE   H8R18836   0.033   1.396   7.269  0.0711 -0.9354 -3.4679
  167SAPE   C2918837   0.182   1.396   7.413 -0.5232 -0.8151 -0.4970
  167SAPE   H9R18838   0.103   1.394   7.489  0.4217  0.3695  0.5637
  167SAPE  C21018839   0.329   1.411   7.463  0.2632  0.1354  0.2432
  167SAPE  H10R18840   0.364   1.516   7.457 -1.7071  0.9333  1.7130
  167SAPE  H10S18841   0.397   1.362   7.390 -1.5090  1.7670 -2.7119
  167SAPE  C21118842   0.346   1.352   7.602  0.4914 -0.0781 -0.1730
  167SAPE  H11R18843   0.323   1.246   7.615  0.4564 -0.0681 -0.1544
  167SAPE  C21218844   0.405   1.416   7.704 -0.0052  0.4609 -0.1489
  167SAPE  H12R18845   0.396   1.382   7.809 -0.7544  0.8618 -0.0716
  167SAPE  C21318846   0.449   1.565   7.703  0.4710  0.7208 -0.0327
  167SAPE  H13R18847   0.400   1.620   7.620  1.1057  2.2335  0.5652
  167SAPE  H13S18848   0.557   1.574   7.681  0.6278  2.6323  1.2960
  167SAPE  C21418849   0.405   1.632   7.830 -0.2861  0.2572 -0.0119
  167SAPE  H14R18850   0.301   1.667   7.843 -1.1464 -2.5531  1.4699
  167SAPE  C21518851   0.483   1.643   7.938  0.3077  0.6475 -0.2802
  167SAPE  H15R18852   0.449   1.699   8.026  0.1208 -0.4539  0.3685
  167SAPE  C21618853   0.620   1.584   7.954 -0.2723  0.1766  0.0037
  167SAPE  H16R18854   0.686   1.660   8.001  1.1435 -0.7150 -0.5002
  167SAPE  H16S18855   0.667   1.550   7.859 -0.8828 -2.6378  0.6245
  167SAPE  C21718856   0.617   1.456   8.040  0.7249 -0.2993 -0.7184
  167SAPE  H17R18857   0.724   1.433   8.059  0.4790 -0.2891  0.7739
  167SAPE  H17S18858   0.573   1.369   7.988 -0.3370 -0.6378  0.7041
  167SAPE  C21818859   0.551   1.479   8.186  0.9576  0.0932  0.5858
  167SAPE  H18R18860   0.441   1.484   8.167  1.0901  2.4007  0.1545
  167SAPE  H18S18861   0.582   1.580   8.221  0.8892 -0.4697  2.3566
  167SAPE  C21918862   0.589   1.356   8.277 -0.0970  0.6700 -0.0617
  167SAPE  H19R18863   0.697   1.364   8.302 -0.6855  1.4992  2.5733
  167SAPE  H19S18864   0.573   1.258   8.228  1.3918  0.3335  0.0736
  167SAPE  C22018865   0.505   1.367   8.413 -0.5907 -0.5269  0.0194
  167SAPE  H20R18866   0.543   1.450   8.477  0.2849 -2.7935  2.6224
  167SAPE  H20S18867   0.504   1.277   8.478  3.8187  0.9555  2.6070
  167SAPE  H20T18868   0.402   1.389   8.378 -0.4474  0.1752  0.0087
  167SAPE   C3318869   0.450   1.771   6.973 -0.7508  0.3939  0.2027
  167SAPE   H3X18870   0.397   1.686   6.925  1.4399 -1.7033  1.2816
  167SAPE   H3Y18871   0.381   1.856   6.986 -1.5514 -0.3637  1.0468
  167SAPE   C3418872   0.482   1.728   7.119  0.6729 -0.0971 -0.5510
  167SAPE   H4X18873   0.515   1.622   7.124 -0.8821 -0.7309 -2.4645
  167SAPE   H4Y18874   0.383   1.722   7.169  1.2854  0.4945  0.7757
  167SAPE   C3518875   0.562   1.835   7.191  0.5216 -1.0509  0.3379
  167SAPE   H5X18876   0.514   1.935   7.178  0.1854 -1.0676  1.3607
  167SAPE   H5Y18877   0.669   1.836   7.162  0.2034  1.8605 -1.2343
  167SAPE   C3618878   0.573   1.805   7.344 -0.0084 -0.2802 -0.3042
  167SAPE   H6X18879   0.622   1.705   7.341 -1.2237 -0.8817 -1.3336
  167SAPE   H6Y18880   0.472   1.802   7.391  0.2856 -1.6077  0.3116
  167SAPE   C3718881   0.642   1.914   7.427  0.4663 -0.0825  0.5856
  167SAPE   H7X18882   0.567   1.995   7.415  1.2677  0.3401 -2.3032
  167SAPE   H7Y18883   0.735   1.948   7.379  0.5067 -0.7341  0.1892
  167SAPE   C3818884   0.658   1.873   7.575 -0.1891  0.2075 -0.5513
  167SAPE   H8X18885   0.682   1.765   7.579  1.3781  0.5041 -1.0765
  167SAPE   H8Y18886   0.562   1.886   7.629  0.4484 -1.9995  1.2513
  167SAPE   C3918887   0.768   1.953   7.645 -0.0326 -0.2424 -0.7017
  167SAPE   H9X18888   0.759   2.060   7.618 -0.4741 -0.7645 -2.8023
  167SAPE   H9Y18889   0.867   1.925   7.602  0.3904  0.6202 -0.3122
  167SAPE  C31018890   0.765   1.935   7.797 -0.4904 -0.1810 -0.0664
  167SAPE  H10X18891   0.795   1.833   7.830  1.3556 -0.1326 -1.4438
  167SAPE  H10Y18892   0.658   1.938   7.828 -0.5089  2.4629 -0.1685
  167SAPE  C31118893   0.837   2.039   7.879 -0.3987  0.5273  0.4405
  167SAPE  H11X18894   0.797   2.137   7.846  1.1238  1.5081  1.3762
  167SAPE  H11Y18895   0.943   2.034   7.846 -1.6346 -1.3799 -4.0094
  167SAPE  C31218896   0.823   2.016   8.024  0.3469 -0.2239  0.1621
  167SAPE  H12X18897   0.895   1.936   8.052 -0.4636 -0.9183  0.2978
  167SAPE  H12Y18898   0.722   1.981   8.054  0.1576 -0.9347 -1.2390
  167SAPE  C31318899   0.848   2.138   8.110 -0.5412 -0.7149  0.4662
  167SAPE  H13X18900   0.947   2.182   8.087 -0.1068 -0.9562  1.7818
  167SAPE  H13Y18901   0.857   2.113   8.218 -0.6636 -1.2034  0.3637
  167SAPE  C31418902   0.749   2.259   8.095  0.4434 -0.4206  0.6372
  167SAPE  H14X18903   0.744   2.286   7.988  3.7764  1.8982  0.9208
  167SAPE  H14Y18904   0.801   2.350   8.132 -1.3758  0.4524  1.1835
  167SAPE  C31518905   0.613   2.244   8.166  0.5896 -0.0502  0.5169
  167SAPE  H15X18906   0.630   2.225   8.274  0.0284 -2.0944  0.2766
  167SAPE  H15Y18907   0.559   2.162   8.115  2.3238  0.5070 -2.4736
  167SAPE  C31618908   0.526   2.379   8.151 -0.7496 -0.7581  0.1279
  167SAPE  H16X18909   0.490   2.393   8.047  0.6908  1.5536 -0.1379
  167SAPE  H16Y18910   0.585   2.471   8.171 -0.6817 -1.0747  1.4960
  167SAPE  C31718911   0.405   2.383   8.244 -0.0378 -0.2338 -0.2672
  167SAPE  H17X18912   0.345   2.293   8.221 -0.3703 -0.0693 -0.0594
  167SAPE  H17Y18913   0.348   2.470   8.204 -0.0673  0.0887  0.4640
  167SAPE  C31818914   0.423   2.396   8.396 -0.2974  0.1498  0.0067
  167SAPE  H18X18915   0.487   2.485   8.418  2.8011 -1.7910 -0.5262
  167SAPE  H18Y18916   0.478   2.307   8.434 -0.1615 -0.2237 -1.0441
  167SAPE  H18Z18917   0.326   2.415   8.446 -0.4999  0.8506 -0.6285
  168SAPE     N18918   1.029   2.780   6.202  0.2233  0.5244  0.2706
  168SAPE   HN118919   0.988   2.704   6.260  2.8565 -1.8796 -0.7702
  168SAPE   HN218920   1.096   2.828   6.266  2.3193 -2.2119  0.3184
  168SAPE   HN318921   0.954   2.834   6.154 -0.2087 -0.3068 -0.0072
  168SAPE   C1218922   1.110   2.706   6.095  0.4519 -0.2793 -0.5604
  168SAPE  H12A18923   1.144   2.773   6.013  0.0323 -1.5851 -1.8343
  168SAPE  H12B18924   1.038   2.637   6.047 -0.9802  0.4886  0.4300
  168SAPE   C1118925   1.230   2.623   6.138 -0.0916  0.2707  0.2982
  168SAPE  H11A18926   1.286   2.688   6.209 -0.1275  1.3229 -0.6068
  168SAPE  H11B18927   1.291   2.611   6.046  0.7239  2.8421  0.4178
  168SAPE     P18928   1.133   2.468   6.325  0.3030  0.1217  0.1420
  168SAPE   O1318929   1.000   2.539   6.332 -0.6937  0.3385 -0.3041
  168SAPE   O1418930   1.138   2.318   6.339  0.1833 -0.1100 -0.1936
  168SAPE   O1218931   1.197   2.490   6.187  0.1391 -0.3628 -0.2340
  168SAPE   O1118932   1.234   2.537   6.417 -0.3106 -0.0295 -0.0337
  168SAPE    C118933   1.202   2.610   6.538 -0.2203 -0.5403 -0.1513
  168SAPE    HA18934   1.275   2.693   6.547  0.0906 -1.0343  3.5307
  168SAPE    HB18935   1.100   2.653   6.543 -0.4498 -1.2269  2.0870
  168SAPE    C218936   1.211   2.510   6.654 -0.0591 -0.8639 -0.1321
  168SAPE    HS18937   1.302   2.450   6.632  0.2129  0.3179 -2.6324
  168SAPE   O2118938   1.093   2.422   6.652 -0.1605  0.1773  0.3693
  168SAPE   C2118939   1.109   2.292   6.678  0.4981  0.3159  0.1972
  168SAPE   O2218940   1.210   2.241   6.731  0.1834  0.3021  0.4572
  168SAPE   C2218941   0.977   2.211   6.646 -0.4130 -0.7121  0.8046
  168SAPE   H2R18942   0.916   2.291   6.598  0.3197 -0.7898 -0.2866
  168SAPE   H2S18943   1.000   2.139   6.565 -0.6245  1.3801 -1.2068
  168SAPE    C318944   1.221   2.577   6.790 -0.2511 -0.3943  0.1189
  168SAPE    HX18945   1.138   2.650   6.798 -0.8830 -0.7990 -2.0976
  168SAPE    HY18946   1.314   2.639   6.787 -0.1044 -0.6268 -1.2725
  168SAPE   O3118947   1.227   2.481   6.891 -0.0876  0.3466  0.0550
  168SAPE   C3118948   1.343   2.410   6.915  0.2153 -0.0193  0.2939
  168SAPE   O3218949   1.453   2.448   6.870  0.0935 -0.0933  1.5005
  168SAPE   C3218950   1.316   2.293   7.009  0.0255  0.3846 -0.4126
  168SAPE   H2X18951   1.387   2.215   6.976  1.3310  1.6268 -0.6213
  168SAPE   H2Y18952   1.210   2.262   6.998  0.2058  0.1411 -1.6824
  168SAPE   C2318953   0.918   2.136   6.770  0.5517  0.4781  0.2365
  168SAPE   H3R18954   0.997   2.069   6.811 -1.4357 -1.6186  0.8384
  168SAPE   H3S18955   0.839   2.068   6.730  2.5690 -0.9869 -1.4761
  168SAPE   C2418956   0.857   2.233   6.867  0.5805  0.3853 -0.3132
  168SAPE   H4R18957   0.799   2.308   6.809  1.8620 -0.2028 -2.4541
  168SAPE   H4S18958   0.939   2.279   6.926  0.3185  1.1951 -0.5705
  168SAPE   C2518959   0.756   2.176   6.967 -0.2480 -0.0990  0.1667
  168SAPE   H5R18960   0.678   2.110   6.925 -0.2344  0.3154 -0.5243
  168SAPE   C2618961   0.752   2.210   7.096 -0.8151  0.1603 -0.1918
  168SAPE   H6R18962   0.689   2.153   7.167 -2.7335  0.9186 -1.2217
  168SAPE   C2718963   0.849   2.304   7.165  0.1009  0.1142  0.0969
  168SAPE   H7R18964   0.919   2.355   7.096 -2.1957  3.3303 -0.0639
  168SAPE   H7S18965   0.911   2.249   7.239 -0.8570 -4.0078 -1.9211
  168SAPE   C2818966   0.765   2.405   7.233  0.6385  0.0058  0.0406
  168SAPE   H8R18967   0.694   2.458   7.167  0.2098 -0.2224  0.3112
  168SAPE   C2918968   0.752   2.433   7.360 -0.9827  0.6141 -0.0424
  168SAPE   H9R18969   0.678   2.513   7.377 -1.3801  0.3207 -0.3847
  168SAPE  C21018970   0.822   2.365   7.473 -0.7000  0.3566  0.4959
  168SAPE  H10R18971   0.926   2.404   7.480 -0.3430 -0.1650 -1.3011
  168SAPE  H10S18972   0.839   2.259   7.446  1.1457  0.3147  1.6439
  168SAPE  C21118973   0.754   2.368   7.608  0.3190  0.1668  0.4723
  168SAPE  H11R18974   0.663   2.306   7.612 -0.7510  1.7066  0.9770
  168SAPE  C21218975   0.795   2.422   7.730 -0.0216 -0.7493  0.1391
  168SAPE  H12R18976   0.728   2.412   7.816  1.5368 -0.8045  1.3904
  168SAPE  C21318977   0.919   2.501   7.760 -0.0254 -0.4444 -0.1407
  168SAPE  H13R18978   0.894   2.604   7.793 -1.0254 -0.1424 -1.7388
  168SAPE  H13S18979   0.969   2.521   7.663 -0.7816 -2.0435 -0.8915
  168SAPE  C21418980   1.001   2.414   7.842 -0.4426 -0.2159 -0.3836
  168SAPE  H14R18981   1.009   2.306   7.826 -0.6956 -0.4008  0.7236
  168SAPE  C21518982   1.057   2.458   7.953 -0.2606 -0.4385 -0.1841
  168SAPE  H15R18983   1.094   2.381   8.021 -1.6736 -1.8687 -0.9680
  168SAPE  C21618984   1.066   2.589   8.016 -0.2868 -0.0297 -0.1789
  168SAPE  H16R18985   1.027   2.669   7.950 -1.0989 -2.0510 -2.3030
  168SAPE  H16S18986   1.171   2.616   8.037 -0.4093  0.9432 -0.7702
  168SAPE  C21718987   0.985   2.595   8.158  0.0168  0.2397  0.0627
  168SAPE  H17R18988   0.887   2.543   8.148 -0.0078  0.4471 -0.8273
  168SAPE  H17S18989   0.969   2.703   8.179  0.9987  0.4392 -0.1635
  168SAPE  C21818990   1.067   2.530   8.269  0.8625 -0.1867  0.0631
  168SAPE  H18R18991   1.135   2.600   8.322 -0.1881 -0.6318  2.0818
  168SAPE  H18S18992   1.132   2.448   8.229  0.2340 -0.5754 -0.1757
  168SAPE  C21918993   0.975   2.460   8.375  0.1103 -0.2511 -0.2663
  168SAPE  H19R18994   1.042   2.406   8.446  0.4832 -0.0544 -0.4646
  168SAPE  H19S18995   0.913   2.386   8.320 -1.6520  0.3959  0.7683
  168SAPE  C22018996   0.878   2.546   8.459  0.3434 -0.3134 -0.5073
  168SAPE  H20R18997   0.837   2.630   8.398 -0.3583  1.6216  2.4272
  168SAPE  H20S18998   0.936   2.601   8.536 -0.5630  0.3997 -0.3264
  168SAPE  H20T18999   0.801   2.475   8.495 -0.4145  0.7270 -0.0156
  168SAPE   C3319000   1.360   2.331   7.155 -0.0448  0.2642  0.6239
  168SAPE   H3X19001   1.456   2.387   7.144  0.8081 -0.6065  3.0326
  168SAPE   H3Y19002   1.374   2.240   7.217  1.4833  1.3712  2.0067
  168SAPE   C3419003   1.254   2.418   7.224 -0.3922 -0.3037  0.8968
  168SAPE   H4X19004   1.169   2.357   7.262 -0.6022 -1.6306 -1.4894
  168SAPE   H4Y19005   1.211   2.484   7.146  2.7510 -1.0766 -1.7118
  168SAPE   C3519006   1.327   2.498   7.337 -0.5550 -0.3322  0.1880
  168SAPE   H5X19007   1.268   2.588   7.365  0.3331  0.2667  0.1582
  168SAPE   H5Y19008   1.412   2.558   7.300 -2.2330  1.3880 -1.1017
  168SAPE   C3619009   1.366   2.412   7.452  0.3240  0.2969  0.0135
  168SAPE   H6X19010   1.436   2.328   7.432 -1.1207 -2.0060  3.5952
  168SAPE   H6Y19011   1.278   2.369   7.503  0.2365 -0.4486 -0.7539
  168SAPE   C3719012   1.429   2.506   7.559 -0.3013  0.2745 -0.4030
  168SAPE   H7X19013   1.367   2.598   7.565 -1.8236 -0.5677 -2.3276
  168SAPE   H7Y19014   1.532   2.524   7.522 -0.1803  0.0863 -0.1620
  168SAPE   C3819015   1.432   2.449   7.701 -0.0247  0.5431  0.8560
  168SAPE   H8X19016   1.492   2.356   7.706 -0.9686 -0.0286  2.1093
  168SAPE   H8Y19017   1.330   2.419   7.730 -0.0307  2.0932  2.6543
  168SAPE   C3919018   1.504   2.535   7.805 -0.2823  0.2013 -0.3539
  168SAPE   H9X19019   1.444   2.627   7.821 -2.0525 -1.2634  2.0194
  168SAPE   H9Y19020   1.613   2.548   7.787 -0.5813  1.7084 -1.2062
  168SAPE  C31019021   1.475   2.465   7.948 -0.5353 -0.5133  1.0736
  168SAPE  H10X19022   1.534   2.371   7.952 -0.9867 -0.7862  1.3618
  168SAPE  H10Y19023   1.365   2.451   7.958 -0.9194  1.4046  0.0377
  168SAPE  C31119024   1.523   2.546   8.067  0.5467 -0.1293 -0.1287
  168SAPE  H11X19025   1.479   2.497   8.156  0.5265  1.9618  1.0747
  168SAPE  H11Y19026   1.507   2.654   8.048  1.2589 -0.0633 -0.3712
  168SAPE  C31219027   1.674   2.534   8.088  0.2978  0.1989  0.1473
  168SAPE  H12X19028   1.722   2.585   8.002  1.8598 -0.6219  0.4985
  168SAPE  H12Y19029   1.713   2.430   8.088 -1.3486 -0.5269  2.8697
  168SAPE  C31319030   1.715   2.594   8.218 -0.5893 -0.1861 -0.3111
  168SAPE  H13X19031   1.697   2.523   8.302 -0.6542  2.8592  2.4747
  168SAPE  H13Y19032   1.660   2.689   8.237  0.0708  0.5525 -1.8866
  168SAPE  C31419033   1.861   2.646   8.234 -0.3697  0.2608  0.3665
  168SAPE  H14X19034   1.870   2.741   8.178 -2.5570 -1.4154 -3.2374
  168SAPE  H14Y19035   1.928   2.567   8.193 -1.6672 -1.3855  1.2572
  168SAPE  C31519036   1.898   2.660   8.382  0.4904  0.6609  0.1095
  168SAPE  H15X19037   1.885   2.561   8.431 -1.6717  1.4486  1.2633
  168SAPE  H15Y19038   1.823   2.734   8.415 -0.3832 -0.2186  0.1430
  168SAPE  C31619039   2.039   2.719   8.403  0.2186  0.6318 -0.4096
  168SAPE  H16X19040   2.115   2.653   8.356  1.1064  1.8779 -0.7763
  168SAPE  H16Y19041   2.066   2.720   8.511 -2.1037 -2.8924  0.3578
  168SAPE  C31719042   2.068   2.864   8.358  0.0325  0.3449  0.1406
  168SAPE  H17X19043   2.000   2.937   8.406  0.0445 -0.7688  1.9280
  168SAPE  H17Y19044   2.061   2.861   8.247  2.3743  0.4492 -0.0599
  168SAPE  C31819045   2.209   2.912   8.377 -0.2393 -0.1338 -0.7741
  168SAPE  H18X19046   2.279   2.836   8.335 -0.0355  0.3162 -1.2629
  168SAPE  H18Y19047   2.248   2.928   8.480  1.8077  0.4978 -1.5700
  168SAPE  H18Z19048   2.229   3.013   8.335  0.6216 -0.7783 -1.9618
  169SAPE     N19049   6.662   2.896   6.285  0.7331 -0.5032 -0.4991
  169SAPE   HN119050   6.731   2.919   6.210  1.4347 -1.2729 -0.1150
  169SAPE   HN219051   6.689   2.808   6.335  0.9398  0.6931  1.6216
  169SAPE   HN319052   6.565   2.874   6.256 -0.7395  0.6358  2.9578
  169SAPE   C1219053   6.647   3.002   6.393  0.2432 -0.4510 -0.3545
  169SAPE  H12A19054   6.599   3.084   6.336 -0.7889 -2.3497 -2.3604
  169SAPE  H12B19055   6.746   3.027   6.438 -0.6753 -0.3972  1.7326
  169SAPE   C1119056   6.536   2.969   6.500  0.0257  0.4087  0.1050
  169SAPE  H11A19057   6.516   3.054   6.569 -1.1632 -1.3146  2.0223
  169SAPE  H11B19058   6.574   2.888   6.566  0.5998  0.6007  0.0175
  169SAPE     P19059   6.306   3.012   6.383 -0.0386 -0.2595 -0.6220
  169SAPE   O1319060   6.350   3.139   6.322  0.0357  0.3817  0.2177
  169SAPE   O1419061   6.218   2.929   6.306  0.5273 -0.0346 -0.1570
  169SAPE   O1219062   6.423   2.919   6.433 -0.5387  0.0020  0.1571
  169SAPE   O1119063   6.238   3.049   6.513 -0.4752 -0.1587  0.1191
  169SAPE    C119064   6.136   3.156   6.513 -1.5960 -0.8509  0.2391
  169SAPE    HA19065   6.146   3.230   6.430  0.6955  1.3096  2.2646
  169SAPE    HB19066   6.046   3.093   6.494 -0.8209 -1.6050 -1.1144
  169SAPE    C219067   6.124   3.232   6.650  0.3419 -0.7128 -0.1287
  169SAPE    HS19068   6.198   3.313   6.664  1.8021 -2.1295  0.5560
  169SAPE   O2119069   6.135   3.141   6.757  0.4622 -0.3363  0.3469
  169SAPE   C2119070   6.250   3.115   6.812  0.3665  0.3699  0.0342
  169SAPE   O2219071   6.356   3.169   6.779 -0.0036  0.2814  0.1723
  169SAPE   C2219072   6.230   3.025   6.927 -0.5003  0.2620 -0.3020
  169SAPE   H2R19073   6.175   3.077   7.008 -0.1288 -2.5801  1.8966
  169SAPE   H2S19074   6.164   2.943   6.894 -1.7404  1.6142 -1.3539
  169SAPE    C319075   5.981   3.298   6.666 -0.5970 -0.0537 -0.5027
  169SAPE    HX19076   5.912   3.212   6.652  1.3793 -1.9832  0.8175
  169SAPE    HY19077   5.962   3.378   6.592 -2.0183  0.7507  0.6683
  169SAPE   O3119078   5.959   3.354   6.800  0.4559  0.0918 -0.5382
  169SAPE   C3119079   5.833   3.366   6.848 -0.5374 -1.0997 -0.0496
  169SAPE   O3219080   5.735   3.346   6.779  0.4060  0.3656 -0.0161
  169SAPE   C3219081   5.836   3.414   6.993 -0.3514 -0.3217  0.1083
  169SAPE   H2X19082   5.902   3.502   7.005 -1.7277  0.8187 -0.4662
  169SAPE   H2Y19083   5.874   3.328   7.051  1.9544  0.8466  0.4191
  169SAPE   C2319084   6.360   2.957   6.970 -0.9777  0.5896  0.1748
  169SAPE   H3R19085   6.443   3.031   6.977 -0.8560  0.3661  1.1878
  169SAPE   H3S19086   6.389   2.878   6.897  2.4391 -0.5846  2.5589
  169SAPE   C2419087   6.348   2.890   7.108 -0.0460 -0.1184 -0.7416
  169SAPE   H4R19088   6.332   2.965   7.189 -1.8569 -0.9557 -0.2664
  169SAPE   H4S19089   6.449   2.847   7.126 -1.0921 -2.0272  1.0268
  169SAPE   C2519090   6.236   2.789   7.106  0.5518  0.5893  0.1081
  169SAPE   H5R19091   6.205   2.748   7.009 -0.8249  1.9203 -0.0534
  169SAPE   C2619092   6.173   2.743   7.215  0.6151  0.0608 -0.7716
  169SAPE   H6R19093   6.097   2.665   7.197  2.0911 -1.6919  0.2506
  169SAPE   C2719094   6.197   2.784   7.356  0.3316 -0.4551 -0.4838
  169SAPE   H7R19095   6.103   2.768   7.413 -0.0906  1.2219 -0.6488
  169SAPE   H7S19096   6.220   2.892   7.366 -1.4332 -0.0718 -0.3853
  169SAPE   C2819097   6.297   2.709   7.436 -0.3115 -0.0846 -0.6303
  169SAPE   H8R19098   6.366   2.648   7.376 -2.9773 -3.6120 -0.5164
  169SAPE   C2919099   6.306   2.691   7.573 -0.1425  0.6855  0.1951
  169SAPE   H9R19100   6.390   2.629   7.607 -0.5563  0.2029  0.3635
  169SAPE  C21019101   6.196   2.745   7.661  0.5827  1.0721  0.5049
  169SAPE  H10R19102   6.108   2.783   7.606 -0.8077  0.0451  1.9417
  169SAPE  H10S19103   6.227   2.832   7.723  0.6019 -0.1801  2.3419
  169SAPE  C21119104   6.162   2.630   7.757 -0.3976 -0.1996  0.8072
  169SAPE  H11R19105   6.102   2.552   7.709  1.7656 -0.9073 -0.9613
  169SAPE  C21219106   6.197   2.616   7.886 -0.4582  0.4482  0.7475
  169SAPE  H12R19107   6.151   2.526   7.930 -2.4232  2.0402  2.1419
  169SAPE  C21319108   6.269   2.710   7.977 -0.6880 -0.1102  0.5489
  169SAPE  H13R19109   6.259   2.818   7.954 -2.0292 -0.5078 -0.9219
  169SAPE  H13S19110   6.373   2.676   7.959 -0.4160  0.7300  0.5376
  169SAPE  C21419111   6.232   2.686   8.126  0.3973  0.2129  0.6680
  169SAPE  H14R19112   6.167   2.599   8.142 -1.2169  1.5910  2.0619
  169SAPE  C21519113   6.249   2.775   8.229 -0.7020 -0.0134  0.5839
  169SAPE  H15R19114   6.224   2.758   8.335 -1.7866 -3.3597 -0.0703
  169SAPE  C21619115   6.321   2.909   8.210 -0.4027  0.1141  0.2156
  169SAPE  H16R19116   6.244   2.987   8.190 -0.3849 -0.0767 -0.6040
  169SAPE  H16S19117   6.391   2.909   8.124  0.6798 -0.5690  1.0773
  169SAPE  C21719118   6.399   2.982   8.331  0.1290 -0.0736  0.3593
  169SAPE  H17R19119   6.457   3.064   8.284 -0.3335  0.0611  0.0234
  169SAPE  H17S19120   6.468   2.913   8.386  0.1526  0.5951  1.1838
  169SAPE  C21819121   6.309   3.022   8.445  1.0731  0.3309 -0.4203
  169SAPE  H18R19122   6.249   2.937   8.482  0.0627  0.3192 -1.9614
  169SAPE  H18S19123   6.233   3.100   8.420  1.6634  1.6274  1.5567
  169SAPE  C21919124   6.378   3.095   8.564 -0.4820  0.8080  0.0908
  169SAPE  H19R19125   6.422   3.191   8.532  1.7914 -0.5759 -1.2054
  169SAPE  H19S19126   6.454   3.026   8.607 -1.7756 -1.0064 -0.3729
  169SAPE  C22019127   6.268   3.120   8.668 -0.5274 -0.3455 -0.1907
  169SAPE  H20R19128   6.313   3.189   8.742  0.8048  1.4856 -2.5828
  169SAPE  H20S19129   6.227   3.023   8.706 -1.5551  0.3593  0.5565
  169SAPE  H20T19130   6.176   3.165   8.623 -0.9265  0.2763  1.2124
  169SAPE   C3319131   5.692   3.438   7.050 -0.0790 -0.5455 -1.0002
  169SAPE   H3X19132   5.621   3.356   7.024 -1.2004  1.0407 -3.2583
  169SAPE   H3Y19133   5.648   3.532   7.012  1.2623  1.2763  1.6840
  169SAPE   C3419134   5.707   3.454   7.205  0.1951 -0.1998  0.3611
  169SAPE   H4X19135   5.792   3.523   7.223 -0.1073  1.8282 -4.4904
  169SAPE   H4Y19136   5.742   3.355   7.243  1.2701  0.3069  0.7467
  169SAPE   C3519137   5.572   3.476   7.278  1.1472  0.5276 -0.4869
  169SAPE   H5X19138   5.497   3.403   7.241  2.6340 -2.4544  1.8547
  169SAPE   H5Y19139   5.527   3.573   7.251 -1.6666 -0.8847 -1.2668
  169SAPE   C3619140   5.582   3.463   7.427  0.2420 -0.4485  0.2234
  169SAPE   H6X19141   5.478   3.458   7.465  0.5546  1.8645  1.5604
  169SAPE   H6Y19142   5.627   3.547   7.482  0.2921  0.2918 -0.9115
  169SAPE   C3719143   5.660   3.334   7.476  0.5979  0.1328  0.0262
  169SAPE   H7X19144   5.768   3.350   7.455  0.5627  0.9362  0.4153
  169SAPE   H7Y19145   5.624   3.244   7.422 -0.4060  1.2414 -1.2532
  169SAPE   C3819146   5.621   3.308   7.620 -0.3133 -0.0995 -0.6340
  169SAPE   H8X19147   5.590   3.203   7.632 -1.5923  0.3151 -0.2303
  169SAPE   H8Y19148   5.533   3.363   7.658 -0.8317 -1.8307  0.7713
  169SAPE   C3919149   5.737   3.346   7.716  0.2373 -0.4511  0.5300
  169SAPE   H9X19150   5.770   3.447   7.687 -1.7116  0.8931  2.6045
  169SAPE   H9Y19151   5.820   3.276   7.691  0.8556  0.3129  0.4182
  169SAPE  C31019152   5.694   3.352   7.863  0.3583  0.0982 -0.2794
  169SAPE  H10X19153   5.667   3.458   7.879  0.6661  0.3816 -1.5674
  169SAPE  H10Y19154   5.779   3.330   7.932 -0.6914  0.6649  1.2447
  169SAPE  C31119155   5.586   3.251   7.915 -0.4934 -1.0574  0.7711
  169SAPE  H11X19156   5.622   3.151   7.885  2.6397  0.9914 -3.3126
  169SAPE  H11Y19157   5.491   3.273   7.861  1.9389  1.8260 -2.8544
  169SAPE  C31219158   5.576   3.264   8.065  0.2509  0.4504  0.0016
  169SAPE  H12X19159   5.539   3.364   8.098 -3.3376 -0.7660 -0.0225
  169SAPE  H12Y19160   5.675   3.251   8.113  0.8432  0.8596 -1.0668
  169SAPE  C31319161   5.496   3.150   8.123 -0.1355 -0.1828  0.1522
  169SAPE  H13X19162   5.539   3.052   8.092 -0.6681 -0.9793  1.8371
  169SAPE  H13Y19163   5.393   3.155   8.082  0.1245  1.0265 -0.4181
  169SAPE  C31419164   5.480   3.164   8.273  0.1889  0.1974  0.2879
  169SAPE  H14X19165   5.422   3.254   8.301 -1.1454 -1.1823  2.1762
  169SAPE  H14Y19166   5.582   3.182   8.313 -0.1296  3.7301 -0.1787
  169SAPE  C31519167   5.422   3.041   8.339 -0.5596  0.1103 -0.8172
  169SAPE  H15X19168   5.312   3.038   8.328 -0.5315  1.4962 -1.7683
  169SAPE  H15Y19169   5.434   3.049   8.449 -2.7929  0.3366 -0.5416
  169SAPE  C31619170   5.472   2.906   8.284 -0.2331 -0.5611 -0.7030
  169SAPE  H16X19171   5.581   2.915   8.268 -0.0022 -1.6080  0.1737
  169SAPE  H16Y19172   5.427   2.897   8.182 -1.2025 -0.2778 -0.3129
  169SAPE  C31719173   5.435   2.788   8.375 -0.0101  0.6069 -0.4382
  169SAPE  H17X19174   5.489   2.797   8.472  2.7290  1.4388 -1.9100
  169SAPE  H17Y19175   5.485   2.703   8.324  0.6915  0.3846  0.5869
  169SAPE  C31819176   5.287   2.767   8.402 -0.1337  0.3053  0.4977
  169SAPE  H18X19177   5.239   2.832   8.479 -0.3682 -1.3120  1.7909
  169SAPE  H18Y19178   5.274   2.660   8.431 -1.9313 -0.3011 -2.2298
  169SAPE  H18Z19179   5.236   2.765   8.304 -0.9610 -2.6526  0.8843
  170SAPE     N19180   0.101   1.448   6.155  0.1947  0.0012 -0.0065
  170SAPE   HN119181   0.140   1.476   6.247  0.9626  0.0504 -0.3344
  170SAPE   HN219182   0.177   1.487   6.095  1.0463 -0.6846  0.6096
  170SAPE   HN319183   0.010   1.496   6.139 -0.7467 -0.8782  2.3497
  170SAPE   C1219184   0.092   1.298   6.150  0.1016 -0.0124 -0.7220
  170SAPE  H12A19185   0.193   1.255   6.171 -0.5951 -1.7931 -0.7935
  170SAPE  H12B19186   0.067   1.281   6.043  1.5952 -0.0697 -1.0808
  170SAPE   C1119187  -0.010   1.244   6.260 -0.3109  0.5638 -0.1653
  170SAPE  H11A19188   0.005   1.317   6.342  0.2816 -2.0150  2.1764
  170SAPE  H11B19189   0.013   1.141   6.296  0.2353  0.7694  0.0956
  170SAPE     P19190  -0.271   1.296   6.263  0.0077  0.2882  0.3622
  170SAPE   O1319191  -0.254   1.441   6.275 -0.3466 -0.6344 -0.3415
  170SAPE   O1419192  -0.375   1.240   6.174 -0.2696 -0.0649  0.4520
  170SAPE   O1219193  -0.137   1.240   6.203 -1.3100  0.0225  0.2727
  170SAPE   O1119194  -0.277   1.241   6.409  0.5838 -0.0388  0.3138
  170SAPE    C119195  -0.287   1.088   6.421  0.0014  0.1912 -0.8607
  170SAPE    HA19196  -0.351   1.044   6.342 -0.2718  1.5027 -1.3916
  170SAPE    HB19197  -0.183   1.051   6.438 -0.0318  1.3613  2.7029
  170SAPE    C219198  -0.365   1.031   6.552  0.0306  0.3088  0.3292
  170SAPE    HS19199  -0.473   1.051   6.539 -0.2448 -1.2664 -0.0224
  170SAPE   O2119200  -0.312   1.102   6.671 -0.6701  0.0275  0.5535
  170SAPE   C2119201  -0.366   1.214   6.707 -0.0131  0.3756 -0.2430
  170SAPE   O2219202  -0.460   1.274   6.655 -0.0991 -0.1952  0.5811
  170SAPE   C2219203  -0.290   1.269   6.820 -0.2132  0.0122  0.0112
  170SAPE   H2R19204  -0.220   1.192   6.860  1.0553  0.9082 -0.4189
  170SAPE   H2S19205  -0.216   1.343   6.784 -0.5800 -0.6154 -2.1382
  170SAPE    C319206  -0.341   0.873   6.561  0.5473 -0.1990  0.2392
  170SAPE    HX19207  -0.237   0.836   6.576  0.4192 -0.3856  0.6653
  170SAPE    HY19208  -0.389   0.830   6.471 -0.0367 -0.3176  0.6045
  170SAPE   O3119209  -0.417   0.826   6.678 -0.3691  0.0102 -0.2944
  170SAPE   C3119210  -0.550   0.814   6.669 -0.7376  0.7841 -0.0703
  170SAPE   O3219211  -0.617   0.849   6.574  0.5698 -0.0821 -0.0279
  170SAPE   C3219212  -0.602   0.746   6.803 -0.2529  0.4161  0.0546
  170SAPE   H2X19213  -0.527   0.666   6.819  2.1586  2.3774 -0.7347
  170SAPE   H2Y19214  -0.712   0.736   6.792 -0.1608  1.6356 -2.9613
  170SAPE   C2319215  -0.375   1.333   6.929  0.4221  0.2340 -0.0929
  170SAPE   H3R19216  -0.450   1.403   6.887  1.7206 -0.1536 -3.4056
  170SAPE   H3S19217  -0.310   1.402   6.987  0.9986 -0.1865 -0.2217
  170SAPE   C2419218  -0.439   1.227   7.025 -0.3318  0.1822 -0.4841
  170SAPE   H4R19219  -0.359   1.151   7.031 -1.1501 -0.8627 -2.1420
  170SAPE   H4S19220  -0.517   1.174   6.967  0.0456 -0.1684 -0.6762
  170SAPE   C2519221  -0.507   1.266   7.158  0.1345  0.5108 -0.3510
  170SAPE   H5R19222  -0.605   1.314   7.139  0.3061  1.1379  0.3174
  170SAPE   C2619223  -0.458   1.259   7.284 -0.0777 -0.0963  0.6476
  170SAPE   H6R19224  -0.524   1.287   7.368  0.5362  3.5212  0.0938
  170SAPE   C2719225  -0.324   1.206   7.323  0.1024  0.3824 -0.6991
  170SAPE   H7R19226  -0.262   1.298   7.339  0.3007 -0.0373  1.1585
  170SAPE   H7S19227  -0.281   1.143   7.242  0.7621 -0.1209  0.0300
  170SAPE   C2819228  -0.313   1.125   7.454 -0.0423 -0.2106  0.8267
  170SAPE   H8R19229  -0.354   1.025   7.436  0.7745 -0.3768 -0.1880
  170SAPE   C2919230  -0.262   1.162   7.569  0.0565  0.8032 -0.7606
  170SAPE   H9R19231  -0.278   1.100   7.658 -0.4493  0.1263 -1.3182
  170SAPE  C21019232  -0.184   1.288   7.603  0.6209  0.5119 -0.1738
  170SAPE  H10R19233  -0.172   1.359   7.518  1.2381 -1.2020 -1.5960
  170SAPE  H10S19234  -0.077   1.261   7.622  0.7973  1.6201  0.5132
  170SAPE  C21119235  -0.238   1.354   7.723 -0.0270 -0.4643 -0.1295
  170SAPE  H11R19236  -0.330   1.411   7.710 -0.7770 -1.3742  0.9985
  170SAPE  C21219237  -0.183   1.353   7.844  0.4699  0.0005 -0.6020
  170SAPE  H12R19238  -0.231   1.412   7.924 -1.8855 -1.2972 -0.9807
  170SAPE  C21319239  -0.054   1.281   7.876 -0.1174 -0.0578 -0.2020
  170SAPE  H13R19240  -0.009   1.204   7.811 -1.1985 -0.6280 -0.2976
  170SAPE  H13S19241  -0.081   1.231   7.971  2.0839  2.1555  1.7337
  170SAPE  C21419242   0.054   1.382   7.901 -0.5356 -0.2505 -0.2850
  170SAPE  H14R19243   0.090   1.427   7.807  0.5172 -1.4200 -0.4786
  170SAPE  C21519244   0.107   1.416   8.020  0.0124  0.5193 -0.7903
  170SAPE  H15R19245   0.181   1.497   8.033 -1.5807  1.6953  1.9509
  170SAPE  C21619246   0.069   1.364   8.157  0.1348  0.0201 -0.3764
  170SAPE  H16R19247   0.137   1.284   8.194 -1.0867  0.2394  2.6501
  170SAPE  H16S19248  -0.032   1.319   8.147 -0.4322  1.5186 -1.8604
  170SAPE  C21719249   0.079   1.477   8.270 -0.4490 -0.4794 -0.3682
  170SAPE  H17R19250   0.183   1.515   8.263 -0.2961 -0.7626  0.3610
  170SAPE  H17S19251   0.079   1.416   8.362 -0.3445  0.5383  0.3169
  170SAPE  C21819252  -0.027   1.590   8.275 -0.8230  0.9897 -0.0545
  170SAPE  H18R19253  -0.004   1.658   8.191 -0.0764 -0.2432 -0.8779
  170SAPE  H18S19254  -0.014   1.655   8.364  1.0343  2.3133 -1.2250
  170SAPE  C21919255  -0.170   1.547   8.264  0.6256 -0.4540  0.4628
  170SAPE  H19R19256  -0.178   1.452   8.207  0.3760  1.5301 -3.0951
  170SAPE  H19S19257  -0.224   1.623   8.203  0.7169 -0.2143  0.6781
  170SAPE  C22019258  -0.248   1.534   8.394 -0.3132 -0.0135  0.3992
  170SAPE  H20R19259  -0.278   1.634   8.434  1.9287 -0.7110  4.3424
  170SAPE  H20S19260  -0.185   1.489   8.473 -2.3825 -1.4344  1.3267
  170SAPE  H20T19261  -0.334   1.464   8.381  0.8814 -1.6440  1.0816
  170SAPE   C3319262  -0.571   0.837   6.930 -0.3557  0.1550  0.2678
  170SAPE   H3X19263  -0.633   0.929   6.937  1.2304  1.3156 -0.5154
  170SAPE   H3Y19264  -0.468   0.878   6.930 -0.8898  1.5271  0.0529
  170SAPE   C3419265  -0.591   0.763   7.065  0.0332 -0.0154  0.2379
  170SAPE   H4X19266  -0.503   0.700   7.090 -1.5303 -1.4977  2.4212
  170SAPE   H4Y19267  -0.678   0.693   7.064  1.1749 -1.5375  1.8633
  170SAPE   C3519268  -0.592   0.871   7.179  0.1998  0.0988 -0.0165
  170SAPE   H5X19269  -0.685   0.932   7.175  1.0163  1.4626  1.0339
  170SAPE   H5Y19270  -0.508   0.937   7.150  0.8096 -0.6704 -0.0289
  170SAPE   C3619271  -0.557   0.825   7.317 -0.2016 -0.2025 -0.6540
  170SAPE   H6X19272  -0.450   0.825   7.345 -0.6433  1.0941  1.2102
  170SAPE   H6Y19273  -0.572   0.714   7.319 -0.8219 -0.1544 -1.8422
  170SAPE   C3719274  -0.632   0.894   7.432  0.3108 -0.1150 -0.2174
  170SAPE   H7X19275  -0.733   0.848   7.421  0.4711 -0.6606  0.5042
  170SAPE   H7Y19276  -0.635   1.004   7.414 -0.6094  0.1238  1.2737
  170SAPE   C3819277  -0.586   0.859   7.565 -0.7172  0.0255 -0.0265
  170SAPE   H8X19278  -0.522   0.940   7.606 -1.4415  1.6552 -1.9490
  170SAPE   H8Y19279  -0.519   0.771   7.566 -0.3662  0.2388  2.4321
  170SAPE   C3919280  -0.703   0.830   7.665  0.7932 -0.2044 -0.1037
  170SAPE   H9X19281  -0.759   0.741   7.630  1.5417 -1.4107  1.6469
  170SAPE   H9Y19282  -0.778   0.912   7.663  1.4438  0.4053 -1.2740
  170SAPE  C31019283  -0.656   0.820   7.808 -0.3648 -0.3184 -0.7957
  170SAPE  H10X19284  -0.626   0.914   7.859 -3.4876  1.3203 -1.7200
  170SAPE  H10Y19285  -0.571   0.749   7.813  1.1434  1.5117  1.3294
  170SAPE  C31119286  -0.757   0.763   7.915 -0.5432 -0.0652 -0.0516
  170SAPE  H11X19287  -0.798   0.669   7.874 -0.7828 -0.3200  0.7665
  170SAPE  H11Y19288  -0.841   0.836   7.921 -0.7772 -0.3105 -0.3026
  170SAPE  C31219289  -0.704   0.728   8.056 -0.1504  0.5120  0.3473
  170SAPE  H12X19290  -0.619   0.656   8.052 -1.9008 -1.6387 -0.4771
  170SAPE  H12Y19291  -0.785   0.673   8.109 -1.4686  0.1068 -1.9511
  170SAPE  C31319292  -0.677   0.856   8.146 -0.2027 -0.1793 -0.6537
  170SAPE  H13X19293  -0.765   0.921   8.130 -1.8688 -2.1806 -0.1612
  170SAPE  H13Y19294  -0.594   0.905   8.091  0.2935  1.2640  1.2736
  170SAPE  C31419295  -0.647   0.833   8.296 -0.2747  0.1413 -0.4166
  170SAPE  H14X19296  -0.673   0.925   8.352 -0.3542 -0.0693 -0.1023
  170SAPE  H14Y19297  -0.536   0.830   8.302 -0.2446 -1.0037 -1.2142
  170SAPE  C31519298  -0.721   0.714   8.360  0.2633  0.4913  0.5664
  170SAPE  H15X19299  -0.673   0.623   8.318  1.2116  0.8263  0.8967
  170SAPE  H15Y19300  -0.831   0.721   8.342  0.4024  1.2290 -0.0333
  170SAPE  C31619301  -0.717   0.712   8.514 -0.2934 -0.0245  0.1703
  170SAPE  H16X19302  -0.779   0.791   8.560 -0.6701  1.5641 -2.8120
  170SAPE  H16Y19303  -0.613   0.738   8.545  0.9994 -2.6979 -1.4960
  170SAPE  C31719304  -0.760   0.574   8.580 -0.4254 -0.3272  0.6260
  170SAPE  H17X19305  -0.860   0.535   8.553 -0.4895  0.7893 -0.8715
  170SAPE  H17Y19306  -0.770   0.600   8.687 -2.5871  0.4858  0.2707
  170SAPE  C31819307  -0.651   0.467   8.562  0.1851  0.0148 -0.6633
  170SAPE  H18X19308  -0.549   0.509   8.579 -0.1864  0.6553  0.0862
  170SAPE  H18Y19309  -0.667   0.433   8.458 -1.5968 -0.7759 -0.1540
  170SAPE  H18Z19310  -0.680   0.379   8.623 -2.3574  1.0237 -0.3208
  171SAPE     N19311   2.467   2.280   6.119  0.1017 -0.4378  0.2382
  171SAPE   HN119312   2.527   2.245   6.042 -1.2309 -1.3206 -0.4411
  171SAPE   HN219313   2.506   2.228   6.199 -1.6243 -0.3455  1.1863
  171SAPE   HN319314   2.368   2.253   6.100  0.4065 -1.4532  0.0699
  171SAPE   C1219315   2.492   2.429   6.145  0.1570 -0.4519  0.2932
  171SAPE  H12A19316   2.415   2.462   6.218 -1.0380 -2.0677 -0.1708
  171SAPE  H12B19317   2.462   2.474   6.048  0.3899 -0.5611  0.1681
  171SAPE   C1119318   2.639   2.462   6.191 -0.5121  0.2045  0.2323
  171SAPE  H11A19319   2.644   2.572   6.203 -2.2073  0.2577  0.7030
  171SAPE  H11B19320   2.706   2.433   6.107  0.0555  2.0499  0.0098
  171SAPE     P19321   2.690   2.479   6.448 -0.2729  0.1122  0.2479
  171SAPE   O1319322   2.830   2.507   6.473  0.3545 -0.0005 -0.0385
  171SAPE   O1419323   2.604   2.598   6.445  0.2875 -0.5535  0.0011
  171SAPE   O1219324   2.669   2.391   6.315  0.2434 -0.3149 -0.6258
  171SAPE   O1119325   2.642   2.383   6.559 -0.6694 -0.1866  0.0178
  171SAPE    C119326   2.570   2.258   6.538 -0.4823  0.0923  0.2245
  171SAPE    HA19327   2.513   2.232   6.629  0.8293 -0.7801  0.8198
  171SAPE    HB19328   2.504   2.264   6.449 -0.1474  0.0710 -0.0314
  171SAPE    C219329   2.670   2.143   6.504  0.2045  0.4322 -0.0361
  171SAPE    HS19330   2.719   2.174   6.409 -0.5063 -0.3194 -0.6649
  171SAPE   O2119331   2.594   2.020   6.493 -0.1017  0.0378 -0.3237
  171SAPE   C2119332   2.516   2.008   6.390  0.3106  0.7318 -0.4096
  171SAPE   O2219333   2.517   2.082   6.292 -0.2764  0.2046 -0.0540
  171SAPE   C2219334   2.433   1.880   6.404 -0.1426 -0.3696  0.0437
  171SAPE   H2R19335   2.501   1.796   6.379 -1.3692 -1.4806  0.2713
  171SAPE   H2S19336   2.400   1.874   6.511 -0.3474  3.3255  0.3177
  171SAPE    C319337   2.785   2.132   6.611  0.1767 -0.8188 -0.3952
  171SAPE    HX19338   2.834   2.231   6.609  1.0195 -1.1311  2.0036
  171SAPE    HY19339   2.852   2.049   6.581  0.0986 -0.7975 -0.6322
  171SAPE   O3119340   2.736   2.101   6.747 -0.0507  0.0256 -0.2854
  171SAPE   C3119341   2.813   2.132   6.846 -0.2723 -1.0843 -0.2555
  171SAPE   O3219342   2.930   2.171   6.834 -0.3640 -0.0508  0.2975
  171SAPE   C3219343   2.741   2.110   6.978 -0.3772 -0.2526  0.7568
  171SAPE   H2X19344   2.726   2.002   7.003  0.8858 -0.3111  1.3486
  171SAPE   H2Y19345   2.649   2.171   6.970 -1.3737 -1.7993 -0.3638
  171SAPE   C2319346   2.320   1.860   6.297 -0.1339 -0.4769  0.6689
  171SAPE   H3R19347   2.355   1.850   6.192 -0.3923 -0.2418  0.5561
  171SAPE   H3S19348   2.237   1.934   6.304 -1.4561 -1.8556  0.1164
  171SAPE   C2419349   2.237   1.735   6.333 -0.7973  0.7679 -0.2788
  171SAPE   H4R19350   2.167   1.713   6.249  2.0567 -3.5220 -1.8684
  171SAPE   H4S19351   2.163   1.763   6.411 -2.5830 -0.7894 -1.3247
  171SAPE   C2519352   2.315   1.606   6.377  0.7556  0.4889 -1.0233
  171SAPE   H5R19353   2.393   1.574   6.306 -1.1927  0.4387 -3.2651
  171SAPE   C2619354   2.284   1.524   6.485  0.0801  0.1646 -0.6968
  171SAPE   H6R19355   2.345   1.436   6.508  1.3737  1.3298  0.5706
  171SAPE   C2719356   2.173   1.546   6.586  0.2164 -0.3887  0.7254
  171SAPE   H7R19357   2.096   1.470   6.560  2.2008 -2.4221  0.5200
  171SAPE   H7S19358   2.132   1.649   6.574  0.5689 -0.4699 -1.6487
  171SAPE   C2819359   2.215   1.521   6.727  0.1844 -0.0075 -0.1385
  171SAPE   H8R19360   2.283   1.437   6.746  2.3471  1.9275  1.1943
  171SAPE   C2919361   2.179   1.590   6.836  0.7961  0.5928 -0.6370
  171SAPE   H9R19362   2.227   1.561   6.931  1.3342 -1.9322 -1.6097
  171SAPE  C21019363   2.070   1.700   6.845 -0.3588  0.1625  0.0241
  171SAPE  H10R19364   2.060   1.765   6.756  0.6940  1.9163  1.1300
  171SAPE  H10S19365   2.094   1.777   6.922  1.8960  0.9622 -1.3688
  171SAPE  C21119366   1.939   1.625   6.873  0.3295 -0.3267 -0.4635
  171SAPE  H11R19367   1.883   1.615   6.778  2.1896  2.4527 -2.0326
  171SAPE  C21219368   1.899   1.583   6.993  0.0247  0.3724  0.7009
  171SAPE  H12R19369   1.804   1.529   7.006  0.4022 -0.8036 -1.0490
  171SAPE  C21319370   1.968   1.615   7.116  0.0394  0.6252 -0.1728
  171SAPE  H13R19371   2.079   1.625   7.115  0.0935  0.1090  0.2073
  171SAPE  H13S19372   1.960   1.521   7.175  1.5960  0.2375 -0.5435
  171SAPE  C21419373   1.910   1.740   7.183 -0.2191 -1.0393  0.5998
  171SAPE  H14R19374   1.861   1.816   7.120  1.0354 -0.0551  0.7822
  171SAPE  C21519375   1.906   1.762   7.311  0.4064  0.3000 -0.8132
  171SAPE  H15R19376   1.853   1.852   7.345  1.3067  0.4922  0.1375
  171SAPE  C21619377   1.958   1.673   7.424 -0.2458 -0.0418  1.4444
  171SAPE  H16R19378   2.011   1.583   7.386 -2.5073 -1.4379  1.4319
  171SAPE  H16S19379   1.876   1.634   7.489 -2.1414 -0.2356 -0.9272
  171SAPE  C21719380   2.056   1.759   7.514  0.3039  0.1986  0.2808
  171SAPE  H17R19381   2.001   1.850   7.545 -1.8901  0.0334 -2.6543
  171SAPE  H17S19382   2.143   1.791   7.453 -0.5094  1.0945 -0.4354
  171SAPE  C21819383   2.108   1.670   7.623  0.9208 -0.1532 -0.0375
  171SAPE  H18R19384   2.184   1.605   7.574  2.1419  0.8206  0.4944
  171SAPE  H18S19385   2.028   1.624   7.685  1.5139  0.8620  1.5407
  171SAPE  C21919386   2.191   1.744   7.740  0.2177 -0.4244  0.1611
  171SAPE  H19R19387   2.265   1.811   7.690  0.0390  1.4429  2.2263
  171SAPE  H19S19388   2.240   1.662   7.796  0.1200  0.9440  2.3691
  171SAPE  C22019389   2.101   1.814   7.840 -0.2526  0.2329 -0.5094
  171SAPE  H20R19390   2.161   1.897   7.884  1.1825 -0.7783 -0.4627
  171SAPE  H20S19391   2.066   1.736   7.911 -2.3626  1.3595 -0.2466
  171SAPE  H20T19392   2.011   1.857   7.793 -0.7581  0.7896  0.9156
  171SAPE   C3319393   2.819   2.165   7.103  0.2158  0.6727  0.9943
  171SAPE   H3X19394   2.883   2.251   7.072  1.2550 -0.8903 -1.5359
  171SAPE   H3Y19395   2.884   2.083   7.140 -0.4902 -0.9553 -1.1550
  171SAPE   C3419396   2.731   2.220   7.216  0.8191 -0.4184 -0.7290
  171SAPE   H4X19397   2.801   2.241   7.300 -0.9842 -0.3345  0.8140
  171SAPE   H4Y19398   2.663   2.147   7.265  1.7943 -0.4088  0.6983
  171SAPE   C3519399   2.662   2.355   7.175  0.2422 -0.1148 -0.5059
  171SAPE   H5X19400   2.604   2.346   7.081 -0.8760  0.8123  0.0603
  171SAPE   H5Y19401   2.744   2.428   7.156  0.4343 -0.7209 -2.1078
  171SAPE   C3619402   2.581   2.421   7.297  0.5012 -0.4388  0.2141
  171SAPE   H6X19403   2.492   2.355   7.305  1.0854 -1.1551  1.0793
  171SAPE   H6Y19404   2.542   2.518   7.261  1.8144 -0.6854 -2.0269
  171SAPE   C3719405   2.642   2.413   7.440  0.5943 -0.5010  0.0114
  171SAPE   H7X19406   2.701   2.321   7.458  0.5325 -0.6003 -0.2886
  171SAPE   H7Y19407   2.557   2.412   7.511 -0.9115 -1.2261 -1.7292
  171SAPE   C3819408   2.734   2.536   7.470  0.6156  0.2570  0.0837
  171SAPE   H8X19409   2.679   2.633   7.472  0.6602  0.2788  1.4222
  171SAPE   H8Y19410   2.821   2.534   7.400  0.3237  0.3468 -0.2835
  171SAPE   C3919411   2.783   2.531   7.617 -0.1096  0.1325  0.0958
  171SAPE   H9X19412   2.703   2.477   7.672  0.8489 -0.1916  1.2356
  171SAPE   H9Y19413   2.779   2.636   7.653  1.3388 -0.4180  2.0442
  171SAPE  C31019414   2.912   2.471   7.652 -0.0911  0.1648  0.4342
  171SAPE  H10X19415   2.998   2.524   7.607 -0.7736  0.1201 -0.9975
  171SAPE  H10Y19416   2.930   2.368   7.614  2.7374  0.1381  1.6311
  171SAPE  C31119417   2.929   2.454   7.805  0.8828  0.8369  0.5571
  171SAPE  H11X19418   3.030   2.410   7.822  1.3317  2.5004  2.8404
  171SAPE  H11Y19419   2.852   2.380   7.834 -1.6082  3.0913  0.0558
  171SAPE  C31219420   2.911   2.585   7.877 -0.3827 -0.5081  0.5269
  171SAPE  H12X19421   2.803   2.589   7.899 -0.9609 -3.8929 -1.1430
  171SAPE  H12Y19422   2.938   2.671   7.811  0.5347 -0.9444  0.3100
  171SAPE  C31319423   2.992   2.590   8.006 -0.0677 -0.0741  0.0766
  171SAPE  H13X19424   3.099   2.604   7.978  0.0128  2.1044  1.2568
  171SAPE  H13Y19425   2.962   2.503   8.068 -2.4550 -0.0862 -0.9899
  171SAPE  C31419426   2.954   2.714   8.084 -0.6415 -0.8925 -0.0865
  171SAPE  H14X19427   2.843   2.729   8.084 -0.7258 -1.4773  0.6609
  171SAPE  H14Y19428   2.988   2.806   8.030  1.0435 -0.6622  1.3007
  171SAPE  C31519429   3.008   2.730   8.229  0.0291 -0.4958  0.2910
  171SAPE  H15X19430   3.115   2.699   8.236  0.3428  0.6997  1.0406
  171SAPE  H15Y19431   2.948   2.659   8.290  0.3058  0.6081  1.9171
  171SAPE  C31619432   3.007   2.873   8.288 -0.4748 -0.1928  0.1814
  171SAPE  H16X19433   2.907   2.916   8.266 -0.5083  0.6270  1.7985
  171SAPE  H16Y19434   3.091   2.923   8.236  0.4173 -0.8970  0.8883
  171SAPE  C31719435   3.044   2.877   8.438  0.6533 -0.5364  0.7170
  171SAPE  H17X19436   3.149   2.844   8.445  0.8239 -0.6360 -1.5298
  171SAPE  H17Y19437   2.977   2.812   8.498 -1.4656 -0.1841 -1.1319
  171SAPE  C31819438   3.035   3.029   8.485  0.2596  0.3855 -0.4642
  171SAPE  H18X19439   3.128   3.082   8.454  0.6145  0.1742  0.2023
  171SAPE  H18Y19440   3.028   3.042   8.595  1.9155 -0.8406 -0.1640
  171SAPE  H18Z19441   2.956   3.084   8.429 -1.5263 -2.9387 -1.4219
  172SAPE     N19442   2.870   2.001   6.005  0.1121  0.2055  0.1396
  172SAPE   HN119443   2.861   2.034   5.906 -0.3998 -2.4351 -0.7667
  172SAPE   HN219444   2.875   2.092   6.054  0.8966  2.0012 -2.9530
  172SAPE   HN319445   2.959   1.950   6.018 -1.6144 -2.7369  1.2488
  172SAPE   C1219446   2.760   1.918   6.068 -0.0900  0.0837 -0.7973
  172SAPE  H12A19447   2.760   1.820   6.015  0.4432  0.2779 -1.1683
  172SAPE  H12B19448   2.655   1.955   6.068 -0.3135 -0.5016 -1.9330
  172SAPE   C1119449   2.809   1.889   6.216  0.3883 -0.3781 -0.3192
  172SAPE  H11A19450   2.809   1.987   6.269 -0.4558  0.5212 -1.9182
  172SAPE  H11B19451   2.918   1.869   6.214  0.4361 -0.0941 -0.6997
  172SAPE     P19452   2.764   1.638   6.267  0.3803 -0.1353 -0.0499
  172SAPE   O1319453   2.652   1.585   6.188  0.3569  0.3899  0.0507
  172SAPE   O1419454   2.895   1.619   6.208 -0.1718 -0.9990 -0.2961
  172SAPE   O1219455   2.735   1.795   6.289 -0.0961 -0.0296  0.0884
  172SAPE   O1119456   2.754   1.581   6.416 -0.1281 -0.2846 -0.5664
  172SAPE    C119457   2.839   1.625   6.524  0.3202 -0.4151 -0.0532
  172SAPE    HA19458   2.880   1.539   6.581  0.7577  1.2705  2.2974
  172SAPE    HB19459   2.928   1.686   6.497  0.0470  1.6860  3.2234
  172SAPE    C219460   2.770   1.714   6.633  0.4223  0.1368 -0.8790
  172SAPE    HS19461   2.766   1.821   6.606 -2.6419  1.0454  2.3582
  172SAPE   O2119462   2.829   1.698   6.762 -0.2222  0.4751  0.2222
  172SAPE   C2119463   2.951   1.758   6.769  0.3140 -0.3198 -0.5891
  172SAPE   O2219464   2.991   1.836   6.683 -0.1822  0.1885 -0.4734
  172SAPE   C2219465   3.003   1.755   6.915  0.3752  0.0971  0.1886
  172SAPE   H2R19466   2.927   1.789   6.989 -1.3810  0.0604 -1.5212
  172SAPE   H2S19467   3.035   1.651   6.938  1.0272  0.2323 -0.1116
  172SAPE    C319468   2.621   1.676   6.644 -0.0201  0.0593  0.1216
  172SAPE    HX19469   2.615   1.569   6.671  2.1989  0.3739  2.1916
  172SAPE    HY19470   2.580   1.697   6.542 -1.2773  1.4050  0.8639
  172SAPE   O3119471   2.546   1.753   6.740  1.1271 -0.1868  0.5541
  172SAPE   C3119472   2.520   1.702   6.859 -0.5456  0.5419  0.1819
  172SAPE   O3219473   2.553   1.586   6.895 -0.0223 -0.0397  0.3114
  172SAPE   C3219474   2.443   1.806   6.945  0.6132 -0.4699  0.5931
  172SAPE   H2X19475   2.347   1.835   6.896 -0.4865  0.3228  3.0468
  172SAPE   H2Y19476   2.496   1.904   6.942  2.5503 -1.4885  0.4815
  172SAPE   C2319477   3.124   1.840   6.931 -1.0147 -0.6491  0.0410
  172SAPE   H3R19478   3.098   1.947   6.917 -1.8005 -0.7317  0.7646
  172SAPE   H3S19479   3.204   1.815   6.858 -1.0616 -0.4122 -0.0927
  172SAPE   C2419480   3.195   1.832   7.072 -0.0095  0.1253 -0.0714
  172SAPE   H4R19481   3.300   1.857   7.047 -0.1578  1.4461  0.5647
  172SAPE   H4S19482   3.188   1.729   7.113 -1.2139 -0.3209 -1.3232
  172SAPE   C2519483   3.153   1.940   7.172  0.5482  0.0984 -0.1051
  172SAPE   H5R19484   3.137   2.039   7.127 -3.2680  0.4831  1.7473
  172SAPE   C2619485   3.145   1.921   7.307  0.0571 -0.0224  0.5356
  172SAPE   H6R19486   3.105   1.998   7.374  1.7031  1.7370 -0.4085
  172SAPE   C2719487   3.172   1.790   7.384  0.2025 -0.4654  0.1443
  172SAPE   H7R19488   3.132   1.703   7.329 -0.5423 -0.1547  0.1780
  172SAPE   H7S19489   3.128   1.793   7.486 -0.6503  0.1358 -0.2263
  172SAPE   C2819490   3.320   1.767   7.390 -0.1126 -0.1104  0.3658
  172SAPE   H8R19491   3.357   1.736   7.292  0.9185 -0.6516  0.9168
  172SAPE   C2919492   3.400   1.768   7.494 -0.3456 -0.5115  0.6393
  172SAPE   H9R19493   3.507   1.750   7.475 -0.0019 -0.4599  2.3118
  172SAPE  C21019494   3.361   1.806   7.637 -0.2988 -0.1954 -0.0047
  172SAPE  H10R19495   3.256   1.824   7.666  0.0730 -0.4696  1.6511
  172SAPE  H10S19496   3.403   1.908   7.652  1.9885 -0.9041 -1.1050
  172SAPE  C21119497   3.438   1.721   7.742  0.4884 -0.3329  0.4849
  172SAPE  H11R19498   3.456   1.618   7.710 -1.8050 -0.0794 -1.8699
  172SAPE  C21219499   3.482   1.759   7.857  0.3012 -0.1957 -0.1160
  172SAPE  H12R19500   3.535   1.686   7.920 -1.6300 -0.7197  0.9961
  172SAPE  C21319501   3.478   1.895   7.918 -0.2760  0.5240 -0.8353
  172SAPE  H13R19502   3.462   1.980   7.848 -2.8827  2.2281  1.6028
  172SAPE  H13S19503   3.581   1.911   7.957 -0.3941 -0.1995 -0.2112
  172SAPE  C21419504   3.373   1.898   8.027 -0.7986  0.1263  0.1586
  172SAPE  H14R19505   3.278   1.854   7.995 -1.3513 -0.2897  2.2462
  172SAPE  C21519506   3.378   1.930   8.154 -0.0569 -0.1660 -0.3406
  172SAPE  H15R19507   3.288   1.913   8.214 -0.3753 -1.2229 -1.1025
  172SAPE  C21619508   3.486   1.989   8.226 -0.1525  0.0243  0.2146
  172SAPE  H16R19509   3.460   2.097   8.235  0.7868  0.4783 -1.8823
  172SAPE  H16S19510   3.580   1.986   8.167  0.6924 -0.8764  1.5537
  172SAPE  C21719511   3.511   1.945   8.366  0.1568 -0.6303  0.0553
  172SAPE  H17R19512   3.589   2.016   8.403 -0.0572 -0.2026 -0.3066
  172SAPE  H17S19513   3.546   1.840   8.372  1.5269 -0.2022 -0.0525
  172SAPE  C21819514   3.395   1.970   8.468 -0.3099  0.3869 -0.6168
  172SAPE  H18R19515   3.311   1.903   8.440 -1.0163 -0.7912  3.5944
  172SAPE  H18S19516   3.374   2.079   8.456 -0.8144  0.5766  1.5864
  172SAPE  C21919517   3.434   1.952   8.614  0.0528 -0.1417  0.3133
  172SAPE  H19R19518   3.527   2.010   8.633 -1.5980  1.9442  2.7400
  172SAPE  H19S19519   3.457   1.845   8.635 -0.0498 -0.0732  0.7896
  172SAPE  C22019520   3.322   2.005   8.711  0.2926  0.2796 -0.0045
  172SAPE  H20R19521   3.220   1.973   8.681  0.2652  1.1398 -0.8860
  172SAPE  H20S19522   3.321   2.116   8.715  2.6824  0.3493  0.0196
  172SAPE  H20T19523   3.340   1.966   8.813 -1.6504  3.8647  1.9350
  172SAPE   C3319524   2.421   1.763   7.087 -0.4406  0.2217 -0.1427
  172SAPE   H3X19525   2.377   1.661   7.092 -1.5836  0.6850 -0.4294
  172SAPE   H3Y19526   2.334   1.823   7.121  0.3114  0.7748  0.8711
  172SAPE   C3419527   2.543   1.778   7.172 -0.5122 -0.2238 -0.0777
  172SAPE   H4X19528   2.575   1.884   7.167 -4.2957  1.2265  1.9604
  172SAPE   H4Y19529   2.618   1.706   7.133 -1.0360 -1.6189  1.3751
  172SAPE   C3519530   2.510   1.743   7.317  0.2342 -0.3228  0.5999
  172SAPE   H5X19531   2.466   1.642   7.324 -1.1524  0.0936 -1.2825
  172SAPE   H5Y19532   2.434   1.821   7.341 -0.6216 -0.8550 -0.2905
  172SAPE   C3619533   2.633   1.757   7.408  0.6831  0.3226 -0.6704
  172SAPE   H6X19534   2.688   1.663   7.385 -1.9146 -1.5597  0.2740
  172SAPE   H6Y19535   2.599   1.750   7.514 -0.6352  1.0616 -1.0107
  172SAPE   C3719536   2.706   1.895   7.401  0.0478 -0.2068 -0.4067
  172SAPE   H7X19537   2.646   1.979   7.440  0.5513 -0.6255  1.3595
  172SAPE   H7Y19538   2.748   1.913   7.300 -0.7567  0.6790 -0.5920
  172SAPE   C3819539   2.832   1.898   7.494 -0.0977 -0.7350 -0.0861
  172SAPE   H8X19540   2.893   1.990   7.483 -0.8296 -0.1489  0.6304
  172SAPE   H8Y19541   2.901   1.812   7.484  0.8870  0.1111 -0.8765
  172SAPE   C3919542   2.789   1.912   7.642 -0.3464  0.6867 -0.8631
  172SAPE   H9X19543   2.787   1.807   7.680  1.4173  1.2373  0.8977
  172SAPE   H9Y19544   2.687   1.957   7.646 -0.2674  1.1883 -3.0785
  172SAPE  C31019545   2.863   2.012   7.728 -0.0319 -0.2707 -0.0528
  172SAPE  H10X19546   2.807   2.034   7.821 -1.2647 -1.3017 -0.5215
  172SAPE  H10Y19547   2.866   2.116   7.689  0.6685 -0.1376  0.3478
  172SAPE  C31119548   3.011   1.979   7.756 -0.3570  0.6016 -0.0407
  172SAPE  H11X19549   3.071   1.961   7.664  0.3735  0.6379  0.4198
  172SAPE  H11Y19550   3.028   1.886   7.814  0.9662  2.0331  2.0024
  172SAPE  C31219551   3.076   2.101   7.824  0.8432  0.1651  0.4033
  172SAPE  H12X19552   3.055   2.184   7.753 -1.3660 -1.3207 -0.8235
  172SAPE  H12Y19553   3.185   2.080   7.827  0.6941 -0.7432  3.2454
  172SAPE  C31319554   3.037   2.130   7.970  0.1428 -0.1599  1.1112
  172SAPE  H13X19555   3.043   2.030   8.018 -0.3202  0.6673  2.9527
  172SAPE  H13Y19556   2.934   2.173   7.971  0.7302  1.3082  0.5428
  172SAPE  C31419557   3.130   2.233   8.043  0.0360 -0.4491  0.2952
  172SAPE  H14X19558   3.133   2.337   8.005 -1.8597 -0.7436 -0.8135
  172SAPE  H14Y19559   3.231   2.194   8.019  1.4601  2.3902  1.2551
  172SAPE  C31519560   3.123   2.215   8.200 -0.1410 -0.0042 -0.5371
  172SAPE  H15X19561   3.162   2.313   8.235 -0.8378  0.8280 -1.9729
  172SAPE  H15Y19562   3.191   2.134   8.233  0.0286 -0.1506 -1.2265
  172SAPE  C31619563   2.987   2.197   8.266  0.2694 -0.5544 -0.0333
  172SAPE  H16X19564   2.948   2.095   8.244  1.5019 -0.5182 -2.8115
  172SAPE  H16Y19565   2.909   2.260   8.218  0.7911 -0.1025 -0.2986
  172SAPE  C31719566   2.981   2.254   8.413 -0.1307 -0.3765  0.0839
  172SAPE  H17X19567   2.971   2.365   8.410  1.3035 -0.2385 -0.6944
  172SAPE  H17Y19568   3.076   2.229   8.466  0.6924  2.3764  0.0961
  172SAPE  C31819569   2.861   2.204   8.496 -0.3094 -0.1612  0.4235
  172SAPE  H18X19570   2.843   2.099   8.463 -0.0882  0.0406 -0.3692
  172SAPE  H18Y19571   2.774   2.269   8.474 -0.5746 -1.2672 -2.2270
  172SAPE  H18Z19572   2.871   2.204   8.606  0.0311  1.4073  0.4096
  173SOPE     N19573   6.007   6.050  11.138  0.3877 -0.3513  0.0987
  173SOPE   HN119574   6.088   6.004  11.184  1.1154 -0.6432 -1.4218
  173SOPE   HN219575   5.999   6.137  11.195  0.7935 -0.7861  0.8319
  173SOPE   HN319576   5.920   5.995  11.153  0.3022 -0.2602 -0.0620
  173SOPE   C1219577   6.028   6.074  10.993  0.9314  0.2026 -0.5823
  173SOPE  H12A19578   5.951   6.149  10.966 -0.9606 -1.8230 -1.0744
  173SOPE  H12B19579   6.022   5.977  10.939  0.2592 -0.4473  0.6009
  173SOPE   C1119580   6.164   6.135  10.970  0.1804  0.1305 -0.0821
  173SOPE  H11A19581   6.177   6.154  10.862  1.7592  1.7340  0.3505
  173SOPE  H11B19582   6.243   6.065  11.003 -0.0963 -1.9588 -3.4100
  173SOPE     P19583   6.288   6.367  11.025 -0.0186 -0.1068  0.1837
  173SOPE   O1319584   6.408   6.295  11.068 -0.2099  0.8181  0.1750
  173SOPE   O1419585   6.251   6.490  11.097 -0.1110  0.0037 -0.0988
  173SOPE   O1219586   6.167   6.265  11.034 -0.2379 -0.2401 -0.2420
  173SOPE   O1119587   6.304   6.403  10.868 -0.4510  0.4967  0.6652
  173SOPE    C119588   6.191   6.470  10.799 -0.3192  0.1157  0.1789
  173SOPE    HA19589   6.206   6.580  10.789  2.6707 -0.0916  1.2206
  173SOPE    HB19590   6.091   6.462  10.846 -2.2400  0.4110 -3.4462
  173SOPE    C219591   6.181   6.421  10.657  0.9056  0.0782 -0.5250
  173SOPE    HS19592   6.154   6.315  10.678 -1.7604  1.1251  2.0683
  173SOPE   O2119593   6.302   6.446  10.586 -0.3013 -0.3279  0.0154
  173SOPE   C2119594   6.387   6.339  10.580 -0.7952  0.1206  0.4829
  173SOPE   O2219595   6.356   6.228  10.609  0.0428  0.2052  0.4641
  173SOPE   C2219596   6.520   6.375  10.523  0.1105  0.3567 -0.1831
  173SOPE   H2R19597   6.596   6.381  10.603 -0.9803  0.7938  0.8624
  173SOPE   H2S19598   6.506   6.478  10.483 -0.0546 -0.0276 -1.1610
  173SOPE    C319599   6.062   6.480  10.578 -0.4253  0.6170 -0.6371
  173SOPE    HX19600   6.054   6.591  10.577 -0.7462  0.6016 -0.0050
  173SOPE    HY19601   5.972   6.455  10.639 -1.4479  2.3387 -1.3731
  173SOPE   O3119602   6.049   6.428  10.444  0.4351  0.1462  0.2484
  173SOPE   C3119603   6.101   6.506  10.350 -0.0049 -0.1040  0.0876
  173SOPE   O3219604   6.153   6.616  10.366  0.2628 -0.2413 -0.1063
  173SOPE   C3219605   6.080   6.444  10.212 -0.2155 -0.3348 -0.2665
  173SOPE   H2X19606   5.979   6.399  10.198 -1.0919  1.6849 -0.8917
  173SOPE   H2Y19607   6.155   6.363  10.212  2.1886  1.7311  1.7975
  173SOPE   C2319608   6.560   6.282  10.398  0.1997  0.5636  0.8340
  173SOPE   H3R19609   6.565   6.176  10.433 -1.4280 -0.0063 -0.5039
  173SOPE   H3S19610   6.661   6.311  10.363  0.3671 -0.7675  0.1533
  173SOPE   C2419611   6.445   6.290  10.287 -0.2285 -1.1345 -0.5872
  173SOPE   H4R19612   6.354   6.235  10.317 -1.0478 -0.7004 -2.1713
  173SOPE   H4S19613   6.431   6.400  10.287  1.6903 -0.8280 -1.6134
  173SOPE   C2519614   6.494   6.255  10.151 -0.6028 -0.1531 -0.1348
  173SOPE   H5R19615   6.576   6.328  10.138  0.8247 -0.9479  3.3034
  173SOPE   H5S19616   6.551   6.160  10.138 -0.3928 -0.1470  0.7004
  173SOPE   C2619617   6.385   6.273  10.044 -0.3216 -0.1468 -0.5056
  173SOPE   H6R19618   6.296   6.207  10.051  1.6662 -3.0786 -1.0133
  173SOPE   H6S19619   6.344   6.376  10.039 -0.6617 -0.2857 -0.6065
  173SOPE   C2719620   6.459   6.239   9.910 -0.2012 -0.1307 -0.1043
  173SOPE   H7R19621   6.542   6.310   9.891 -0.3166 -0.2620 -1.1706
  173SOPE   H7S19622   6.509   6.140   9.918  0.4991  0.0756 -1.6433
  173SOPE   C2819623   6.364   6.219   9.789 -0.4708  0.2342  0.2520
  173SOPE   H8R19624   6.428   6.164   9.717  0.1477  1.0447  0.1847
  173SOPE   H8S19625   6.286   6.142   9.812  0.8776 -1.3571 -0.3259
  173SOPE   C2919626   6.309   6.353   9.748  0.0782 -0.1759 -0.3540
  173SOPE   H9119627   6.262   6.416   9.824  2.3014  0.7738  0.3180
  173SOPE  C21019628   6.301   6.398   9.623  0.2876  0.3757 -0.4305
  173SOPE  H10119629   6.267   6.502   9.609 -2.6351 -0.2498  1.1512
  173SOPE  C21119630   6.329   6.324   9.492  0.0002 -0.8623 -0.2174
  173SOPE  H11R19631   6.280   6.225   9.484 -0.4518 -0.8315  1.6368
  173SOPE  H11S19632   6.439   6.309   9.483 -0.1829 -2.1144 -0.5298
  173SOPE  C21219633   6.285   6.413   9.373  0.6609  1.5558  0.2378
  173SOPE  H12R19634   6.326   6.516   9.381  2.2836  0.9774 -0.2708
  173SOPE  H12S19635   6.174   6.419   9.373  0.5624  0.9020 -2.5438
  173SOPE  C21319636   6.329   6.344   9.239  0.0207 -0.0863 -0.2825
  173SOPE  H13R19637   6.280   6.244   9.235 -1.1125  0.3447  1.6826
  173SOPE  H13S19638   6.436   6.314   9.245  0.1436  0.4471  0.2663
  173SOPE  C21419639   6.294   6.427   9.115  0.6194 -0.4442  0.7845
  173SOPE  H14R19640   6.344   6.525   9.130 -0.2144 -0.0534  1.0992
  173SOPE  H14S19641   6.184   6.440   9.120  0.6696  0.7646 -0.6176
  173SOPE  C21519642   6.330   6.338   8.994 -0.4924  0.0137 -0.0665
  173SOPE  H15R19643   6.253   6.258   9.003 -1.2929  0.9386  1.8807
  173SOPE  H15S19644   6.434   6.302   9.011  0.9322  3.3659 -0.8501
  173SOPE  C21619645   6.325   6.411   8.863  0.1091  0.0884 -0.2430
  173SOPE  H16R19646   6.396   6.497   8.871 -0.3456  0.3386  1.4022
  173SOPE  H16S19647   6.220   6.439   8.844  0.1701  1.8119  1.6602
  173SOPE  C21719648   6.360   6.319   8.751  0.4397 -0.4217  0.7065
  173SOPE  H17R19649   6.315   6.218   8.759 -2.6406  0.6645 -1.0884
  173SOPE  H17S19650   6.470   6.304   8.749  0.4715 -0.1641 -0.3470
  173SOPE  C21819651   6.308   6.362   8.613 -0.4062 -0.8622  0.1503
  173SOPE  H18R19652   6.353   6.456   8.575 -0.1956 -2.1415 -3.0455
  173SOPE  H18S19653   6.198   6.376   8.612 -0.0844  2.6672 -1.6065
  173SOPE  H18T19654   6.335   6.282   8.542 -1.1590 -1.9100  1.0167
  173SOPE   C3319655   6.125   6.531  10.095 -0.2727 -0.5970  0.1215
  173SOPE   H3X19656   6.128   6.469  10.002  0.8686  0.1226 -0.3411
  173SOPE   H3Y19657   6.227   6.569  10.117  0.6981 -2.9546  0.0271
  173SOPE   C3419658   6.027   6.651  10.084  0.2802 -0.0924 -0.0309
  173SOPE   H4X19659   6.051   6.725  10.163 -0.5119 -1.4661  1.5568
  173SOPE   H4Y19660   5.925   6.616  10.112 -0.6312  1.9524 -0.5946
  173SOPE   C3519661   6.028   6.723   9.945  0.8272 -0.0435  0.1749
  173SOPE   H5X19662   6.131   6.759   9.924  1.3325 -2.1286 -1.1331
  173SOPE   H5Y19663   5.950   6.802   9.942  0.3745 -0.5167 -1.7464
  173SOPE   C3619664   5.986   6.636   9.836  0.0786  0.0479 -0.1107
  173SOPE   H6X19665   5.884   6.594   9.845 -0.9094  1.9441 -1.7127
  173SOPE   H6Y19666   6.038   6.538   9.824  1.5938  1.0515 -2.7392
  173SOPE   C3719667   6.004   6.698   9.697  0.2979 -0.5875  0.2041
  173SOPE   H7X19668   6.112   6.717   9.682  0.3446  4.1070  4.0682
  173SOPE   H7Y19669   5.949   6.794   9.697 -1.8410 -1.7271 -1.0455
  173SOPE   C3819670   5.961   6.612   9.582 -0.3507  0.2133  0.3104
  173SOPE   H8X19671   5.854   6.587   9.599 -0.1573 -0.8164  0.1108
  173SOPE   H8Y19672   6.007   6.511   9.573 -1.4702 -0.2900 -0.0209
  173SOPE   C3919673   5.976   6.674   9.441  0.6804 -0.2771 -0.0029
  173SOPE   H9X19674   6.086   6.677   9.422  0.7455 -1.1431  0.2006
  173SOPE   H9Y19675   5.938   6.778   9.435  1.7391  0.2220  1.4403
  173SOPE  C31019676   5.901   6.589   9.337 -0.0158  0.3387 -0.0971
  173SOPE  H10X19677   5.792   6.603   9.356 -1.0456 -0.9372 -4.0800
  173SOPE  H10Y19678   5.925   6.481   9.346  0.7411  0.2974 -2.1602
  173SOPE  C31119679   5.929   6.629   9.189  0.0497 -0.2474  0.0919
  173SOPE  H11X19680   6.039   6.629   9.171  0.1514 -2.1113  0.4787
  173SOPE  H11Y19681   5.896   6.732   9.166 -4.4856 -1.1901  1.3903
  173SOPE  C31219682   5.853   6.529   9.102  0.1075 -0.1866  0.1241
  173SOPE  H12X19683   5.746   6.535   9.132  0.5341  2.2887  1.3626
  173SOPE  H12Y19684   5.885   6.424   9.115 -1.0808 -0.3400  2.1888
  173SOPE  C31319685   5.861   6.567   8.952  0.5139  0.5732 -0.3371
  173SOPE  H13X19686   5.820   6.666   8.923 -0.6130  0.3421  0.3996
  173SOPE  H13Y19687   5.795   6.495   8.900  0.2559 -0.3174  1.1552
  173SOPE  C31419688   5.998   6.562   8.886  0.4097 -0.0582 -0.4359
  173SOPE  H14X19689   6.037   6.460   8.907  1.3742  0.4305  0.2119
  173SOPE  H14Y19690   6.070   6.615   8.952  3.6530 -3.6265 -0.7291
  173SOPE  C31519691   6.000   6.610   8.741 -0.1494  0.7332 -0.1299
  173SOPE  H15X19692   6.103   6.599   8.701 -0.5507 -2.1880 -0.5283
  173SOPE  H15Y19693   5.972   6.717   8.753  2.0258  1.4956 -1.2171
  173SOPE  C31619694   5.906   6.519   8.656 -0.7655 -0.1259  0.6191
  173SOPE  H16X19695   5.798   6.512   8.683 -0.5337 -2.5740  1.2010
  173SOPE  H16Y19696   5.940   6.414   8.675 -0.3763  0.3845  3.0995
  173SOPE  C31719697   5.905   6.566   8.505  0.2381  0.4971  0.5058
  173SOPE  H17X19698   5.884   6.675   8.508  0.6773  0.5718  0.8735
  173SOPE  H17Y19699   5.834   6.518   8.434  2.1076  0.3108 -1.3396
  173SOPE  C31819700   6.042   6.536   8.442  0.2851  0.2484 -0.0036
  173SOPE  H18X19701   6.059   6.427   8.436 -4.8697 -0.7227 -1.4596
  173SOPE  H18Y19702   6.126   6.589   8.492 -1.0374  1.3848  1.0793
  173SOPE  H18Z19703   6.054   6.577   8.339  0.0276  1.3987  0.4077
  174SOPE     N19704   0.871   3.776  11.170  0.3991  0.1665 -0.7413
  174SOPE   HN119705   0.959   3.823  11.142  0.5293  1.7373  1.9010
  174SOPE   HN219706   0.791   3.843  11.167  1.8923  2.0761  0.0560
  174SOPE   HN319707   0.895   3.736  11.263  0.6292 -1.2038 -1.3701
  174SOPE   C1219708   0.840   3.658  11.089 -0.0867 -0.5896  0.4826
  174SOPE  H12A19709   0.734   3.663  11.054  0.2240  0.7370 -0.3443
  174SOPE  H12B19710   0.869   3.569  11.149  2.2676  1.6271  2.9131
  174SOPE   C1119711   0.927   3.662  10.959 -0.2838 -0.7812  0.1134
  174SOPE  H11A19712   0.892   3.583  10.890  0.0578 -0.4428 -0.4477
  174SOPE  H11B19713   1.033   3.644  10.988  0.2862  0.5134 -1.1021
  174SOPE     P19714   0.806   3.846  10.812 -0.2906  0.1790  0.2775
  174SOPE   O1319715   0.832   3.987  10.772 -0.1583  0.1677 -0.0888
  174SOPE   O1419716   0.681   3.823  10.883  0.1969  0.3461  0.0173
  174SOPE   O1219717   0.925   3.795  10.898  0.3676  0.6134  0.1742
  174SOPE   O1119718   0.800   3.748  10.693 -0.6016 -0.0710  0.2606
  174SOPE    C119719   0.917   3.703  10.628 -0.7251  0.7690 -0.5805
  174SOPE    HA19720   0.948   3.611  10.683  0.4940  2.3130  1.4538
  174SOPE    HB19721   1.001   3.770  10.653 -0.9706  1.0195 -0.4205
  174SOPE    C219722   0.901   3.663  10.474 -0.2650 -0.4535 -0.4321
  174SOPE    HS19723   0.987   3.606  10.432  1.8244  1.8771  0.4692
  174SOPE   O2119724   0.901   3.787  10.394 -0.1145 -0.1897 -0.2787
  174SOPE   C2119725   1.020   3.852  10.385 -0.6145  0.2997  0.2274
  174SOPE   O2219726   1.127   3.808  10.431  0.4913 -0.5356  0.7994
  174SOPE   C2219727   1.003   3.984  10.319 -0.4915  0.1417 -0.3931
  174SOPE   H2R19728   1.098   4.030  10.285  0.1096  0.1819  1.2414
  174SOPE   H2S19729   0.964   4.056  10.394 -0.8707  0.2468 -0.6855
  174SOPE    C319730   0.768   3.575  10.446 -0.3596 -0.5876  0.3888
  174SOPE    HX19731   0.683   3.642  10.475 -0.4297 -0.7870  0.6532
  174SOPE    HY19732   0.759   3.492  10.519 -2.0896 -1.6870 -0.9880
  174SOPE   O3119733   0.751   3.535  10.320 -0.0589  0.1311  0.4281
  174SOPE   C3119734   0.624   3.512  10.282 -0.2617 -0.7966  0.0588
  174SOPE   O3219735   0.518   3.535  10.351  0.0000  0.3427  0.0399
  174SOPE   C3219736   0.616   3.456  10.140 -0.4837 -0.3610  1.0560
  174SOPE   H2X19737   0.551   3.366  10.132 -1.1010  0.1805 -0.1476
  174SOPE   H2Y19738   0.714   3.421  10.100  0.7002  2.4833  1.2503
  174SOPE   C2319739   0.894   3.980  10.207  0.7704 -0.1739 -0.6711
  174SOPE   H3R19740   0.867   4.086  10.186  1.2783 -0.1101 -1.0258
  174SOPE   H3S19741   0.804   3.923  10.239  0.8639  1.1625  2.2842
  174SOPE   C2419742   0.948   3.924  10.076 -0.3928 -0.9217 -0.1328
  174SOPE   H4R19743   1.020   4.002  10.043 -0.2454  0.5288  3.2877
  174SOPE   H4S19744   1.010   3.831  10.078  0.2453 -0.6138 -2.4492
  174SOPE   C2519745   0.837   3.908   9.972  0.6565 -0.1290 -0.4396
  174SOPE   H5R19746   0.775   3.821  10.000 -1.7546  1.2040 -1.3896
  174SOPE   H5S19747   0.773   3.998   9.972 -0.1730 -0.6992 -1.6400
  174SOPE   C2619748   0.888   3.884   9.829  0.5299 -0.1014  0.1854
  174SOPE   H6R19749   0.991   3.927   9.828  0.6060 -0.0364  2.9273
  174SOPE   H6S19750   0.890   3.774   9.812 -0.2104 -0.1096  0.1339
  174SOPE   C2719751   0.805   3.960   9.727 -0.6587 -0.6091 -0.1071
  174SOPE   H7R19752   0.700   3.946   9.761 -1.2213  2.4630 -0.3471
  174SOPE   H7S19753   0.831   4.067   9.741 -1.6302 -0.1039 -1.8742
  174SOPE   C2819754   0.832   3.925   9.578 -0.8043 -0.3446  0.2196
  174SOPE   H8R19755   0.800   4.012   9.517  2.3648  1.8704  1.4735
  174SOPE   H8S19756   0.942   3.922   9.558 -0.9855 -0.6090 -0.8036
  174SOPE   C2919757   0.787   3.786   9.535 -0.0540  0.5524  0.8033
  174SOPE   H9119758   0.786   3.712   9.616  0.0781 -1.1167 -0.6736
  174SOPE  C21019759   0.749   3.741   9.417  0.5788 -0.0173 -0.2736
  174SOPE  H10119760   0.705   3.640   9.414 -2.3279  1.0386  2.0029
  174SOPE  C21119761   0.744   3.814   9.285 -0.9960  0.1902 -0.5642
  174SOPE  H11R19762   0.743   3.925   9.289  1.2396  0.2569 -0.2425
  174SOPE  H11S19763   0.654   3.782   9.230 -2.4933 -0.1904  1.9709
  174SOPE  C21219764   0.875   3.771   9.203  0.2810 -0.3013 -0.4269
  174SOPE  H12R19765   0.904   3.665   9.221  1.8218  0.1501 -0.1682
  174SOPE  H12S19766   0.955   3.830   9.252  0.0752 -0.0457 -0.3954
  174SOPE  C21319767   0.851   3.797   9.058  0.3609  0.1974 -0.8772
  174SOPE  H13R19768   0.944   3.787   8.997 -0.4082  0.7844 -2.1930
  174SOPE  H13S19769   0.814   3.900   9.038  1.4415  0.7532 -0.0834
  174SOPE  C21419770   0.745   3.707   8.997  0.8220 -0.5667 -0.4493
  174SOPE  H14R19771   0.643   3.743   9.022  1.0875  0.6470 -1.0590
  174SOPE  H14S19772   0.767   3.602   9.026 -2.4282 -1.9723 -2.5491
  174SOPE  C21519773   0.728   3.712   8.840 -0.4957  0.8696 -0.4166
  174SOPE  H15R19774   0.666   3.630   8.797  0.7271  0.2245 -1.0245
  174SOPE  H15S19775   0.830   3.696   8.798  0.3086  0.9138  1.4494
  174SOPE  C21619776   0.669   3.847   8.785  0.0073  0.5444 -0.1040
  174SOPE  H16R19777   0.597   3.897   8.853 -0.4040  1.1466 -0.9638
  174SOPE  H16S19778   0.615   3.822   8.691  0.0204 -1.1605  0.3102
  174SOPE  C21719779   0.763   3.962   8.756  0.3030 -0.0535 -1.2044
  174SOPE  H17R19780   0.854   3.912   8.718 -0.0434  0.3662 -2.6605
  174SOPE  H17S19781   0.792   4.023   8.844 -0.2162  1.9387 -2.3524
  174SOPE  C21819782   0.699   4.060   8.660  0.2432 -0.2769 -0.6453
  174SOPE  H18R19783   0.766   4.145   8.638  0.2417 -0.0952  0.0431
  174SOPE  H18S19784   0.610   4.110   8.704 -0.2136  0.0218 -1.8646
  174SOPE  H18T19785   0.663   4.005   8.570 -0.6565 -0.8165  0.0283
  174SOPE   C3319786   0.557   3.551  10.028 -0.0736 -0.0264 -0.1583
  174SOPE   H3X19787   0.615   3.645  10.040  1.1333 -0.3958 -2.5255
  174SOPE   H3Y19788   0.454   3.576  10.062 -0.2416  0.1562 -0.7955
  174SOPE   C3419789   0.543   3.488   9.890  0.2933 -0.1070 -0.0052
  174SOPE   H4X19790   0.464   3.411   9.898 -2.5328  2.5596  0.0066
  174SOPE   H4Y19791   0.642   3.440   9.874  0.1578 -0.6214  0.6756
  174SOPE   C3519792   0.487   3.590   9.791 -0.4134  0.5167  0.3349
  174SOPE   H5X19793   0.559   3.672   9.770 -3.4898  3.4584  0.4707
  174SOPE   H5Y19794   0.396   3.631   9.840 -0.6209 -0.9348  1.2253
  174SOPE   C3619795   0.451   3.523   9.653  0.0355  0.2560  0.3897
  174SOPE   H6X19796   0.366   3.455   9.675  0.7230 -0.2512  1.5198
  174SOPE   H6Y19797   0.534   3.469   9.602  0.9447  1.5229  0.4788
  174SOPE   C3719798   0.409   3.635   9.564  0.5057  0.0282 -0.3968
  174SOPE   H7X19799   0.495   3.703   9.544  0.6794 -0.4116 -1.1768
  174SOPE   H7Y19800   0.329   3.703   9.601 -1.0227 -0.3331 -2.8094
  174SOPE   C3819801   0.373   3.578   9.418  0.8837  0.7327  0.1463
  174SOPE   H8X19802   0.298   3.496   9.426  1.2156  0.5508  1.7085
  174SOPE   H8Y19803   0.462   3.528   9.375 -0.2983 -1.8336  0.4959
  174SOPE   C3919804   0.322   3.684   9.325  0.0270 -0.7941  0.4971
  174SOPE   H9X19805   0.381   3.778   9.331  1.6029 -1.5670 -1.7013
  174SOPE   H9Y19806   0.218   3.714   9.347  0.0737 -0.0162 -0.2830
  174SOPE  C31019807   0.335   3.646   9.175  0.1505 -0.5028 -0.1770
  174SOPE  H10X19808   0.292   3.545   9.163  1.2520 -0.9649 -0.3625
  174SOPE  H10Y19809   0.442   3.639   9.146  0.1976  0.0233 -0.1419
  174SOPE  C31119810   0.265   3.745   9.079 -0.8172  0.4091 -0.1622
  174SOPE  H11X19811   0.309   3.847   9.083 -1.3932  0.6456  0.3006
  174SOPE  H11Y19812   0.154   3.748   9.083 -0.9002 -0.2976 -1.4835
  174SOPE  C31219813   0.303   3.698   8.932  0.7825  0.2596 -0.4472
  174SOPE  H12X19814   0.306   3.587   8.930 -1.3130  0.1736 -0.5183
  174SOPE  H12Y19815   0.409   3.729   8.919  1.0733 -0.7146 -0.5372
  174SOPE  C31319816   0.215   3.752   8.819 -0.1885 -0.1103  0.1939
  174SOPE  H13X19817   0.202   3.861   8.833 -1.4950 -0.1070 -0.8141
  174SOPE  H13Y19818   0.110   3.716   8.823  0.0435 -1.4579 -2.8636
  174SOPE  C31419819   0.289   3.718   8.686 -0.4827 -0.3733  0.3629
  174SOPE  H14X19820   0.389   3.765   8.678 -0.6099 -0.0296  0.7617
  174SOPE  H14Y19821   0.230   3.760   8.602 -1.7867 -0.0811  1.3934
  174SOPE  C31519822   0.320   3.568   8.649 -0.3884  0.5770  0.5263
  174SOPE  H15X19823   0.225   3.511   8.647  0.4462 -0.9418  1.7668
  174SOPE  H15Y19824   0.383   3.541   8.737 -1.0781 -0.1779  0.8065
  174SOPE  C31619825   0.406   3.575   8.523  0.2201  0.8303 -0.0641
  174SOPE  H16X19826   0.491   3.641   8.548  0.5677  0.4944 -0.3442
  174SOPE  H16Y19827   0.343   3.628   8.448  1.3999 -1.1863 -2.6627
  174SOPE  C31719828   0.438   3.434   8.482  0.4898  0.5799  0.3059
  174SOPE  H17X19829   0.356   3.372   8.442 -1.4062  2.7657  0.6209
  174SOPE  H17Y19830   0.500   3.394   8.565 -0.4094  0.7642  1.0764
  174SOPE  C31819831   0.537   3.443   8.361 -0.3739  0.2212  0.3186
  174SOPE  H18X19832   0.630   3.494   8.395  0.0729  0.4716 -1.1958
  174SOPE  H18Y19833   0.487   3.490   8.274 -2.4526 -1.4632  0.5235
  174SOPE  H18Z19834   0.571   3.340   8.336  0.8244 -0.4152  3.8941
  175SOPE     N19835   2.408   0.625  10.838 -0.2265  0.3524  0.0461
  175SOPE   HN119836   2.432   0.623  10.939  2.5179 -2.1696 -0.4990
  175SOPE   HN219837   2.312   0.590  10.821  0.3605 -0.7379 -1.1975
  175SOPE   HN319838   2.469   0.553  10.794 -3.2171 -2.8205  0.6850
  175SOPE   C1219839   2.416   0.760  10.777 -0.2357  0.5284  0.3002
  175SOPE  H12A19840   2.518   0.803  10.788 -0.3170  0.5665  0.9025
  175SOPE  H12B19841   2.363   0.834  10.840  0.3676  0.1865  1.2255
  175SOPE   C1119842   2.369   0.760  10.631 -0.0636 -0.5374  0.3517
  175SOPE  H11A19843   2.405   0.679  10.566 -0.3030  0.0675 -0.5594
  175SOPE  H11B19844   2.413   0.848  10.580  0.6793 -0.6807  0.7359
  175SOPE     P19845   2.137   0.893  10.606 -0.1453  0.2964 -0.0592
  175SOPE   O1319846   2.163   1.001  10.705  0.0627 -0.1735 -0.2466
  175SOPE   O1419847   2.000   0.844  10.590 -0.6850  0.0841 -0.2984
  175SOPE   O1219848   2.228   0.769  10.624 -0.3137 -0.6638  0.2279
  175SOPE   O1119849   2.186   0.946  10.467  0.6204 -0.1928 -0.0227
  175SOPE    C119850   2.131   0.914  10.339  0.0080 -0.6761 -0.6015
  175SOPE    HA19851   2.067   0.823  10.347 -0.8391 -0.0535 -0.0357
  175SOPE    HB19852   2.211   0.882  10.269  1.3389 -1.6720  1.3023
  175SOPE    C219853   2.037   1.023  10.286 -0.0154  0.1976  0.5012
  175SOPE    HS19854   1.984   0.977  10.200 -2.4174 -2.8615  3.3546
  175SOPE   O2119855   2.120   1.138  10.238 -0.1087  0.5193  0.1844
  175SOPE   C2119856   2.169   1.107  10.121 -0.1371 -0.3492  0.5865
  175SOPE   O2219857   2.139   1.004  10.060  0.3278  0.4827 -0.2599
  175SOPE   C2219858   2.255   1.223  10.067 -0.1925  0.2512 -0.9001
  175SOPE   H2R19859   2.357   1.191  10.096 -0.4088  0.6143  0.3060
  175SOPE   H2S19860   2.229   1.318  10.119  0.1829 -0.3340  0.3929
  175SOPE    C319861   1.939   1.084  10.375 -0.0788  0.2568 -0.5738
  175SOPE    HX19862   1.980   1.132  10.467 -0.1501 -0.2241 -0.2890
  175SOPE    HY19863   1.879   0.999  10.415 -0.1097  1.1430  1.4099
  175SOPE   O3119864   1.851   1.165  10.292  0.1076  0.0959  0.3845
  175SOPE   C3119865   1.873   1.296  10.293  0.2135  0.3319  0.4381
  175SOPE   O3219866   1.944   1.360  10.367  0.3859  0.1387  0.2062
  175SOPE   C3219867   1.800   1.360  10.172 -0.6171  0.1562 -0.1227
  175SOPE   H2X19868   1.706   1.399  10.216 -0.1739  2.9462 -1.4188
  175SOPE   H2Y19869   1.765   1.288  10.095 -1.5556  1.4548 -0.9442
  175SOPE   C2319870   2.246   1.235   9.915  0.4564  0.1458  0.0097
  175SOPE   H3R19871   2.264   1.133   9.875  0.1912 -0.7334  1.9906
  175SOPE   H3S19872   2.324   1.306   9.879 -0.0179  2.0379  2.4262
  175SOPE   C2419873   2.104   1.283   9.863  0.0001 -0.2258  0.4630
  175SOPE   H4R19874   2.036   1.196   9.870  0.8399 -0.8414  1.1142
  175SOPE   H4S19875   2.080   1.366   9.934  2.7298  0.5082  0.6301
  175SOPE   C2519876   2.114   1.350   9.723  0.0575  0.1575  0.5477
  175SOPE   H5R19877   2.012   1.373   9.686 -0.0640 -0.4342  0.5044
  175SOPE   H5S19878   2.173   1.442   9.743 -2.0578  1.5201  0.8749
  175SOPE   C2619879   2.173   1.269   9.612 -0.8345  0.1448  0.5774
  175SOPE   H6R19880   2.258   1.214   9.658 -0.5801  2.5341  3.2099
  175SOPE   H6S19881   2.097   1.196   9.576 -0.0054 -0.7236  0.5228
  175SOPE   C2719882   2.220   1.353   9.496  0.4659 -0.1253 -0.5257
  175SOPE   H7R19883   2.301   1.421   9.531  1.5922 -1.4491 -0.4783
  175SOPE   H7S19884   2.264   1.293   9.414 -2.2986 -0.2642 -2.0095
  175SOPE   C2819885   2.111   1.453   9.439 -0.1569  0.1892 -0.2847
  175SOPE   H8R19886   2.084   1.524   9.521 -0.4698 -0.7163  0.4095
  175SOPE   H8S19887   2.162   1.524   9.370 -1.4749 -0.2067 -1.7426
  175SOPE   C2919888   1.996   1.378   9.379  0.1518 -0.7285  0.0377
  175SOPE   H9119889   1.935   1.333   9.459  0.9795  0.2326  1.2372
  175SOPE  C21019890   1.981   1.349   9.251 -0.0726 -0.5482 -1.2590
  175SOPE  H10119891   1.889   1.303   9.211 -1.3209  1.5909 -1.0151
  175SOPE  C21119892   2.078   1.390   9.145 -0.2613 -0.1606 -0.2935
  175SOPE  H11R19893   2.180   1.426   9.171 -0.5523  0.7281 -0.3590
  175SOPE  H11S19894   2.032   1.462   9.074  2.6727 -0.0693 -2.2948
  175SOPE  C21219895   2.111   1.258   9.069 -1.1770 -1.3444 -0.5575
  175SOPE  H12R19896   2.174   1.288   8.983  0.1492  0.0522  0.8336
  175SOPE  H12S19897   2.025   1.202   9.027 -1.7276 -1.7688  1.0489
  175SOPE  C21319898   2.189   1.163   9.159  0.5620 -0.0432  0.5836
  175SOPE  H13R19899   2.121   1.099   9.219 -0.5798 -2.0043 -2.5612
  175SOPE  H13S19900   2.264   1.222   9.216  2.1577 -1.1902 -0.2194
  175SOPE  C21419901   2.273   1.055   9.088 -0.0777  0.2152 -0.6822
  175SOPE  H14R19902   2.336   0.999   9.161  0.6493 -0.8311 -2.0521
  175SOPE  H14S19903   2.352   1.104   9.027  0.5286 -0.7267 -0.6823
  175SOPE  C21519904   2.196   0.967   8.988 -0.0677  0.1128 -0.4961
  175SOPE  H15R19905   2.173   1.026   8.896 -0.4590  0.5774 -0.1012
  175SOPE  H15S19906   2.102   0.931   9.033  0.2857  1.2300  1.1899
  175SOPE  C21619907   2.296   0.852   8.956  0.3235 -0.6097  0.2202
  175SOPE  H16R19908   2.336   0.800   9.045 -1.6776 -2.7500 -0.0261
  175SOPE  H16S19909   2.379   0.893   8.895 -0.1925 -1.5175 -1.1365
  175SOPE  C21719910   2.222   0.744   8.874 -0.4557 -0.1660  0.5532
  175SOPE  H17R19911   2.163   0.785   8.789 -1.9073 -0.2533  1.4852
  175SOPE  H17S19912   2.151   0.692   8.942 -2.4798  0.9735 -0.5822
  175SOPE  C21819913   2.323   0.633   8.827  0.3914  0.3974 -0.3447
  175SOPE  H18R19914   2.404   0.677   8.764  0.8597 -0.1018 -0.1042
  175SOPE  H18S19915   2.261   0.568   8.763  0.2947 -0.7503  0.8754
  175SOPE  H18T19916   2.373   0.585   8.914  0.1432 -1.4195 -1.1688
  175SOPE   C3319917   1.876   1.486  10.129  0.7902  0.6657 -0.6225
  175SOPE   H3X19918   1.979   1.462  10.095  1.3431 -0.8307  1.8491
  175SOPE   H3Y19919   1.893   1.550  10.218 -0.7040  0.4690 -0.1613
  175SOPE   C3419920   1.798   1.562  10.025 -0.0910 -0.0870 -0.3004
  175SOPE   H4X19921   1.860   1.653  10.013 -0.3764  0.1314 -0.1164
  175SOPE   H4Y19922   1.697   1.589  10.062  0.0639 -1.3787  1.1499
  175SOPE   C3519923   1.783   1.484   9.894  0.5983  0.2316  0.0833
  175SOPE   H5X19924   1.702   1.409   9.905  2.8606 -2.3713  0.0180
  175SOPE   H5Y19925   1.871   1.425   9.860  0.0863 -0.1547 -0.5804
  175SOPE   C3619926   1.742   1.575   9.781 -0.5696  0.2812  0.3316
  175SOPE   H6X19927   1.826   1.644   9.759 -0.3029 -0.0651  0.2598
  175SOPE   H6Y19928   1.656   1.644   9.797 -1.6036 -0.1769 -2.6442
  175SOPE   C3719929   1.698   1.492   9.654  0.1276 -0.2506  0.6662
  175SOPE   H7X19930   1.613   1.427   9.684 -0.4396  0.7943  1.3614
  175SOPE   H7Y19931   1.773   1.414   9.627 -1.3893 -1.2725 -0.7583
  175SOPE   C3819932   1.664   1.585   9.532 -0.3021  0.2578  0.6486
  175SOPE   H8X19933   1.569   1.639   9.555  0.7614  2.4861  0.1010
  175SOPE   H8Y19934   1.633   1.517   9.450 -1.4565 -0.4931  1.6746
  175SOPE   C3919935   1.776   1.680   9.482  0.2821 -0.1565  0.1333
  175SOPE   H9X19936   1.864   1.620   9.449  0.2297 -0.8091  1.1124
  175SOPE   H9Y19937   1.814   1.738   9.569  0.7582 -1.0582  0.5513
  175SOPE  C31019938   1.752   1.779   9.370  0.3588 -1.1201 -0.3878
  175SOPE  H10X19939   1.837   1.844   9.340  1.0665 -2.1084 -0.5655
  175SOPE  H10Y19940   1.678   1.851   9.410  0.6566 -0.6060 -0.7437
  175SOPE  C31119941   1.705   1.721   9.240  0.0853  0.1408 -0.1519
  175SOPE  H11X19942   1.610   1.663   9.250  0.5291 -0.7825 -1.0846
  175SOPE  H11Y19943   1.790   1.661   9.202  0.8902  0.7338  0.6931
  175SOPE  C31219944   1.666   1.838   9.138 -0.8958  0.0569 -0.8571
  175SOPE  H12X19945   1.752   1.907   9.153 -2.1583  1.3165  0.9192
  175SOPE  H12Y19946   1.569   1.887   9.161 -1.5799 -0.6162 -2.1487
  175SOPE  C31319947   1.636   1.797   8.988 -0.3662  0.3854  0.2410
  175SOPE  H13X19948   1.713   1.720   8.963 -1.5944 -0.2223 -1.9513
  175SOPE  H13Y19949   1.670   1.879   8.922  2.0803 -2.1656 -1.9259
  175SOPE  C31419950   1.499   1.743   8.960  0.5433 -0.0132  0.4501
  175SOPE  H14X19951   1.433   1.832   8.950  1.0766  0.5398  1.6787
  175SOPE  H14Y19952   1.462   1.674   9.038  0.8086  0.3183  0.8738
  175SOPE  C31519953   1.500   1.673   8.824  0.3477  0.0394 -0.6052
  175SOPE  H15X19954   1.549   1.574   8.832  0.4135  0.0939 -0.3024
  175SOPE  H15Y19955   1.561   1.732   8.753  0.5608 -1.1277 -1.4183
  175SOPE  C31619956   1.354   1.656   8.777 -0.3912  0.3508  0.5041
  175SOPE  H16X19957   1.311   1.755   8.753  0.7533  0.9162  0.7129
  175SOPE  H16Y19958   1.297   1.608   8.859  0.9675  0.2020  1.3907
  175SOPE  C31719959   1.343   1.572   8.645  0.2315  0.0390  0.1437
  175SOPE  H17X19960   1.386   1.470   8.643 -3.0036 -1.4680  0.5175
  175SOPE  H17Y19961   1.402   1.638   8.577 -1.2055  3.5674  2.0128
  175SOPE  C31819962   1.201   1.565   8.593 -0.1069 -0.5897  0.4441
  175SOPE  H18X19963   1.141   1.503   8.664 -1.2350 -0.7729 -0.6359
  175SOPE  H18Y19964   1.198   1.521   8.491 -1.3348 -0.7525  0.5333
  175SOPE  H18Z19965   1.157   1.667   8.597 -0.2247 -0.5293 -1.4607
  176SOPE     N19966   1.179   0.006  11.160  0.1207 -0.0705 -0.3680
  176SOPE   HN119967   1.120   0.067  11.221 -0.2764  0.0511 -0.8624
  176SOPE   HN219968   1.127  -0.084  11.155 -0.7698  0.4923 -1.7612
  176SOPE   HN319969   1.264  -0.002  11.219  0.3430  0.0477 -0.6697
  176SOPE   C1219970   1.206   0.045  11.022  0.2903 -0.8137 -0.2068
  176SOPE  H12A19971   1.124   0.113  10.991  1.8297  0.4978 -1.5578
  176SOPE  H12B19972   1.220  -0.046  10.960  1.4973  0.2830 -1.6016
  176SOPE   C1119973   1.326   0.144  11.005  0.0503  0.4527  0.3126
  176SOPE  H11A19974   1.326   0.222  11.084 -2.8259 -0.0284  0.9007
  176SOPE  H11B19975   1.308   0.194  10.907  1.8998 -1.1817 -0.9305
  176SOPE     P19976   1.573   0.144  10.932  0.3079  0.2088  0.4289
  176SOPE   O1319977   1.699   0.067  10.964 -0.3565  0.4582  0.3599
  176SOPE   O1419978   1.570   0.290  10.961  0.7640 -0.5017 -0.8833
  176SOPE   O1219979   1.454   0.072  11.006 -0.1896 -0.2453 -0.1163
  176SOPE   O1119980   1.532   0.134  10.783 -0.6783  0.6094 -0.0207
  176SOPE    C119981   1.509   0.009  10.718 -0.3852 -0.4653 -0.8921
  176SOPE    HA19982   1.470  -0.070  10.786  0.0434  2.6525  3.3356
  176SOPE    HB19983   1.612  -0.021  10.690  0.8956  0.7516  2.1718
  176SOPE    C219984   1.420   0.029  10.589 -0.2380 -0.1552 -0.5417
  176SOPE    HS19985   1.370  -0.069  10.569  0.1233 -0.6899  1.0600
  176SOPE   O2119986   1.504   0.070  10.482  0.8108  0.2583 -0.3654
  176SOPE   C2119987   1.542  -0.028  10.406 -0.3282 -0.8651 -0.2471
  176SOPE   O2219988   1.518  -0.144  10.426 -0.0870 -0.2573  0.1425
  176SOPE   C2219989   1.625   0.019  10.286  0.1474  0.0093  0.1663
  176SOPE   H2R19990   1.710  -0.052  10.282  1.2663  1.3541 -2.1167
  176SOPE   H2S19991   1.660   0.123  10.306 -0.2215  0.2161 -0.2364
  176SOPE    C319992   1.301   0.133  10.609 -0.1480 -0.6170  0.6412
  176SOPE    HX19993   1.341   0.233  10.637 -1.9255  0.6202 -1.0282
  176SOPE    HY19994   1.231   0.094  10.686  0.8209 -1.4114  1.1539
  176SOPE   O3119995   1.232   0.145  10.482 -0.9747  0.4207  0.0931
  176SOPE   C3119996   1.115   0.209  10.487  0.3409 -0.2831 -0.1812
  176SOPE   O3219997   1.049   0.231  10.589  0.0957  0.2485  0.3503
  176SOPE   C3219998   1.072   0.252  10.345 -0.3968  0.0148  0.9051
  176SOPE   H2X19999   1.128   0.184  10.277 -1.8359  1.4502 -1.9131
  176SOPE   H2Y20000   1.103   0.358  10.338 -0.7656  0.3748  3.6011
  176SOPE   C2320001   1.545   0.007  10.157  0.1038  0.0315  0.3798
  176SOPE   H3R20002   1.491  -0.090  10.149 -0.1248  0.1767  0.1611
  176SOPE   H3S20003   1.614   0.021  10.071  0.4440  2.4147  0.9618
  176SOPE   C2420004   1.428   0.109  10.138 -0.7771  0.0775 -0.1163
  176SOPE   H4R20005   1.375   0.119  10.235 -0.5359  0.7011 -0.0456
  176SOPE   H4S20006   1.478   0.207  10.121  1.1954 -0.6270  1.1822
  176SOPE   C2520007   1.339   0.083  10.014  0.3010 -0.8033 -0.2410
  176SOPE   H5R20008   1.283  -0.013  10.019 -0.3137 -0.3849  2.0289
  176SOPE   H5S20009   1.267   0.168  10.020  0.9382 -0.2205 -0.6491
  176SOPE   C2620010   1.425   0.087   9.886  0.5038 -0.4884  0.0551
  176SOPE   H6R20011   1.486   0.180   9.887  0.0586 -0.0947 -2.6346
  176SOPE   H6S20012   1.493  -0.001   9.883 -0.7493 -1.5264  1.0599
  176SOPE   C2720013   1.332   0.084   9.765  0.0766  0.1151 -0.3158
  176SOPE   H7R20014   1.263  -0.003   9.779 -0.6456  0.9657  1.7778
  176SOPE   H7S20015   1.276   0.178   9.748  0.4162  0.0386 -2.1430
  176SOPE   C2820016   1.410   0.063   9.628  0.6347 -0.4446  0.2177
  176SOPE   H8R20017   1.476   0.151   9.617 -0.5457  0.4150 -0.1700
  176SOPE   H8S20018   1.470  -0.030   9.641  1.0419 -0.3124 -0.6673
  176SOPE   C2920019   1.331   0.046   9.507 -0.5412  0.0553  0.3278
  176SOPE   H9120020   1.255   0.124   9.490 -0.6594 -0.3385 -1.0376
  176SOPE  C21020021   1.375  -0.031   9.405 -0.4264 -0.3833 -0.5276
  176SOPE  H10120022   1.315  -0.049   9.314 -0.5866  0.4897 -0.5968
  176SOPE  C21120023   1.496  -0.127   9.403 -0.0283 -0.4373  0.0590
  176SOPE  H11R20024   1.451  -0.227   9.422 -1.4562  0.0538 -0.6445
  176SOPE  H11S20025   1.575  -0.103   9.478  1.2843 -0.1793 -1.3527
  176SOPE  C21220026   1.571  -0.128   9.269 -0.1820  0.1337 -0.4513
  176SOPE  H12R20027   1.520  -0.189   9.192  0.9021 -1.0902 -0.2396
  176SOPE  H12S20028   1.667  -0.184   9.281 -0.8198 -0.6889  0.9956
  176SOPE  C21320029   1.610   0.011   9.223 -0.3185  0.2206 -0.0968
  176SOPE  H13R20030   1.658   0.051   9.316  1.7365  0.6862 -1.2923
  176SOPE  H13S20031   1.515   0.064   9.205 -0.8491  0.2753  2.4842
  176SOPE  C21420032   1.711   0.019   9.109 -0.0655 -0.5676  0.2887
  176SOPE  H14R20033   1.684  -0.051   9.027 -0.8561 -0.7971  0.7407
  176SOPE  H14S20034   1.814  -0.019   9.127 -0.1703 -0.5810  0.8716
  176SOPE  C21520035   1.713   0.165   9.050 -1.0626  0.3678  0.1960
  176SOPE  H15R20036   1.812   0.174   9.001 -0.3876 -0.7283  1.2934
  176SOPE  H15S20037   1.720   0.242   9.129  0.3879 -0.4687  0.9222
  176SOPE  C21620038   1.594   0.204   8.965 -0.8078 -0.0485  0.3289
  176SOPE  H16R20039   1.502   0.180   9.022 -0.2508 -0.9500  0.8719
  176SOPE  H16S20040   1.599   0.151   8.867 -0.4693 -1.6178  1.1685
  176SOPE  C21720041   1.591   0.351   8.918  0.3741 -0.0661 -0.9122
  176SOPE  H17R20042   1.561   0.423   8.997  0.6336 -0.2872 -0.6131
  176SOPE  H17S20043   1.500   0.354   8.853 -0.0885 -0.3165 -0.2913
  176SOPE  C21820044   1.713   0.410   8.849 -0.0008 -0.2774 -0.1654
  176SOPE  H18R20045   1.799   0.407   8.919  1.9965 -0.5551 -2.5078
  176SOPE  H18S20046   1.709   0.520   8.840  0.7257 -0.1842  0.4760
  176SOPE  H18T20047   1.757   0.363   8.759  0.1330 -1.5937  0.5571
  176SOPE   C3320048   0.916   0.238  10.332  0.7925 -0.6931 -0.1302
  176SOPE   H3X20049   0.874   0.284  10.425  0.7935  0.7248 -0.8053
  176SOPE   H3Y20050   0.884   0.133  10.319  3.0416 -1.2796 -1.4297
  176SOPE   C3420051   0.857   0.315  10.213  0.2203  0.3803  0.1605
  176SOPE   H4X20052   0.869   0.423  10.236  1.0610  0.0591  1.3800
  176SOPE   H4Y20053   0.748   0.295  10.223  0.2845 -1.5419 -2.1205
  176SOPE   C3520054   0.910   0.277  10.082 -0.1213  0.4520  0.7751
  176SOPE   H5X20055   0.897   0.167  10.072  0.4707  0.3537  0.9960
  176SOPE   H5Y20056   1.021   0.288  10.078 -0.3469  2.6957 -0.6006
  176SOPE   C3620057   0.827   0.338   9.971 -0.0740  0.1239  0.6551
  176SOPE   H6X20058   0.838   0.449   9.976  0.7417  0.0807  0.0413
  176SOPE   H6Y20059   0.720   0.316   9.992  0.2155 -0.6935  1.3104
  176SOPE   C3720060   0.850   0.274   9.829  0.1834 -0.5460 -0.5612
  176SOPE   H7X20061   0.827   0.167   9.846  1.4544 -0.8110 -0.3780
  176SOPE   H7Y20062   0.959   0.268   9.809  0.7496 -1.5414  2.2822
  176SOPE   C3820063   0.779   0.349   9.722  0.3286  0.0661  0.1029
  176SOPE   H8X20064   0.799   0.458   9.734  0.1232 -0.0083  1.1718
  176SOPE   H8Y20065   0.671   0.324   9.728  0.4339 -0.0496  2.5964
  176SOPE   C3920066   0.834   0.320   9.582 -0.0537 -0.7034 -0.3510
  176SOPE   H9X20067   0.833   0.210   9.564 -3.7436 -0.6616 -1.1324
  176SOPE   H9Y20068   0.939   0.356   9.571 -0.6922  1.4884  0.3313
  176SOPE  C31020069   0.750   0.382   9.465  0.4713 -0.1938 -0.3546
  176SOPE  H10X20070   0.743   0.492   9.472 -1.2528 -0.2437 -0.9401
  176SOPE  H10Y20071   0.646   0.345   9.479  0.9771 -1.8406 -0.6607
  176SOPE  C31120072   0.781   0.332   9.328 -0.1220 -0.2557 -0.3998
  176SOPE  H11X20073   0.751   0.225   9.318  0.4256 -0.3071 -1.5631
  176SOPE  H11Y20074   0.891   0.325   9.317 -0.0742  1.2929 -1.1498
  176SOPE  C31220075   0.709   0.417   9.224 -0.3066  0.3594 -0.1056
  176SOPE  H12X20076   0.747   0.521   9.241 -1.0245  0.7420 -0.8087
  176SOPE  H12Y20077   0.599   0.424   9.235 -0.3478 -1.0266  0.6165
  176SOPE  C31320078   0.743   0.370   9.081 -0.3389 -0.4121 -0.9639
  176SOPE  H13X20079   0.851   0.344   9.072 -0.4638 -1.4326  0.2908
  176SOPE  H13Y20080   0.714   0.459   9.021  1.2996  0.1609 -0.9747
  176SOPE  C31420081   0.652   0.254   9.034 -0.1386 -0.0098 -0.5654
  176SOPE  H14X20082   0.552   0.278   9.076  1.7010  1.1276  3.8317
  176SOPE  H14Y20083   0.686   0.159   9.083 -2.6493 -0.6944  0.0026
  176SOPE  C31520084   0.655   0.236   8.883 -0.1419 -0.2112 -0.4858
  176SOPE  H15X20085   0.759   0.219   8.847  0.3546  0.1020  0.7750
  176SOPE  H15Y20086   0.631   0.331   8.831  2.9787 -0.5708 -2.8993
  176SOPE  C31620087   0.545   0.133   8.841  0.5020  0.4083 -0.1230
  176SOPE  H16X20088   0.445   0.178   8.861 -0.0882 -0.6783 -0.5676
  176SOPE  H16Y20089   0.553   0.036   8.896  1.8287  0.2626 -0.5433
  176SOPE  C31720090   0.540   0.103   8.690 -0.1725 -0.3914 -0.8537
  176SOPE  H17X20091   0.627   0.039   8.665  0.1523  0.7540 -2.8826
  176SOPE  H17Y20092   0.551   0.198   8.632  1.7675 -0.4231 -0.6215
  176SOPE  C31820093   0.410   0.030   8.645 -0.3152  0.0309 -0.7080
  176SOPE  H18X20094   0.401   0.033   8.534  0.5236  0.7854 -0.7626
  176SOPE  H18Y20095   0.322   0.080   8.691  1.4287  0.4610  2.4322
  176SOPE  H18Z20096   0.409  -0.072   8.688 -0.7265  0.3278  0.0037
  177SOPE     N20097   6.603   3.390  11.168 -0.3060 -0.3316 -0.5864
  177SOPE   HN120098   6.644   3.373  11.262 -2.2354 -1.4153  0.1162
  177SOPE   HN220099   6.590   3.298  11.121 -1.5653 -0.4332 -0.0813
  177SOPE   HN320100   6.670   3.451  11.117  1.5482 -0.8182  1.1510
  177SOPE   C1220101   6.470   3.466  11.189  0.8443 -1.0290 -0.0248
  177SOPE  H12A20102   6.431   3.463  11.085  3.7681 -4.0338 -1.2064
  177SOPE  H12B20103   6.495   3.567  11.227  0.5570 -1.4105  1.2317
  177SOPE   C1120104   6.384   3.379  11.280  0.1992  0.7947  0.2525
  177SOPE  H11A20105   6.295   3.437  11.314 -1.1142 -0.2558 -1.2526
  177SOPE  H11B20106   6.439   3.357  11.373 -0.2705 -0.0032  0.3492
  177SOPE     P20107   6.230   3.214  11.145 -0.2210 -0.0629  0.3660
  177SOPE   O1320108   6.126   3.178  11.244 -0.6227 -1.1637 -0.2408
  177SOPE   O1420109   6.256   3.102  11.049  0.8568 -0.8798  0.2422
  177SOPE   O1220110   6.362   3.253  11.218 -0.1269  0.3252 -0.8877
  177SOPE   O1120111   6.195   3.346  11.060  0.7113 -0.4341 -0.5417
  177SOPE    C120112   6.055   3.374  11.041 -0.3944  0.2641  0.6006
  177SOPE    HA20113   6.020   3.442  11.122  0.1462  1.7181 -0.3382
  177SOPE    HB20114   5.981   3.292  11.048 -0.2232  0.1261  0.8048
  177SOPE    C220115   6.040   3.450  10.910  0.4293 -0.5450 -0.5227
  177SOPE    HS20116   5.944   3.506  10.912  0.7716  0.0840 -1.2739
  177SOPE   O2120117   6.051   3.357  10.803  0.0801 -0.1116  0.3428
  177SOPE   C2120118   5.972   3.383  10.703  0.2421 -0.0290 -0.3970
  177SOPE   O2220119   5.887   3.468  10.695  0.5517 -0.4227  0.6509
  177SOPE   C2220120   6.007   3.276  10.594  0.0107  0.2700  0.1316
  177SOPE   H2R20121   6.002   3.183  10.654  1.9781  1.8780  3.0247
  177SOPE   H2S20122   6.111   3.282  10.555  1.0063 -1.5063  2.2579
  177SOPE    C320123   6.153   3.552  10.896 -0.2411 -1.0914 -0.3716
  177SOPE    HX20124   6.252   3.502  10.904  0.9698  1.1145 -0.8221
  177SOPE    HY20125   6.164   3.615  10.987 -0.3241  1.7650 -2.2375
  177SOPE   O3120126   6.144   3.622  10.772 -0.1262 -0.4314 -0.2289
  177SOPE   C3120127   6.109   3.747  10.790  0.1299 -0.4048  0.6032
  177SOPE   O3220128   6.086   3.809  10.891 -0.3984 -0.4122  0.0076
  177SOPE   C3220129   6.116   3.813  10.654 -0.0026 -0.4577 -0.2387
  177SOPE   H2X20130   6.222   3.821  10.624  0.3591  1.5366  1.3712
  177SOPE   H2Y20131   6.089   3.919  10.672  0.2674 -0.4340  0.0256
  177SOPE   C2320132   5.903   3.266  10.476 -0.4081  0.3092 -0.2821
  177SOPE   H3R20133   5.806   3.270  10.530 -0.1377 -0.4030  0.2841
  177SOPE   H3S20134   5.924   3.166  10.431  1.7459  0.3719  0.4245
  177SOPE   C2420135   5.925   3.371  10.370  0.6102 -0.3295  0.3069
  177SOPE   H4R20136   5.893   3.474  10.397  0.8571  0.6231 -2.7445
  177SOPE   H4S20137   6.035   3.382  10.375  0.4540  1.3663  0.9501
  177SOPE   C2520138   5.884   3.345  10.223  0.2171 -0.6317 -0.2627
  177SOPE   H5R20139   5.904   3.236  10.209  0.5260 -0.7866  1.2690
  177SOPE   H5S20140   5.774   3.361  10.216  0.2039  0.1273  1.3522
  177SOPE   C2620141   5.960   3.442  10.127  0.5619  0.0354 -0.0768
  177SOPE   H6R20142   5.976   3.525  10.199  3.0550 -2.2305  2.1966
  177SOPE   H6S20143   6.053   3.382  10.115  1.0767  0.2134  2.4276
  177SOPE   C2720144   5.897   3.482   9.995 -0.0219  0.2182  0.3767
  177SOPE   H7R20145   5.874   3.396   9.928 -2.6985  1.4208 -0.3733
  177SOPE   H7S20146   5.799   3.520  10.029  0.5853  1.7472  0.5023
  177SOPE   C2820147   5.965   3.583   9.907 -0.0529 -0.0068  0.1539
  177SOPE   H8R20148   5.900   3.598   9.818  1.0650  1.5789 -0.4316
  177SOPE   H8S20149   5.983   3.684   9.948  1.9455 -0.2993  0.0669
  177SOPE   C2920150   6.097   3.526   9.850 -0.3550  0.4263  0.2997
  177SOPE   H9120151   6.190   3.550   9.905  2.3821 -0.3059 -3.5410
  177SOPE  C21020152   6.111   3.464   9.730 -0.6980 -0.2551  0.1468
  177SOPE  H10120153   6.216   3.451   9.697 -0.5546  0.5876  0.2397
  177SOPE  C21120154   6.001   3.434   9.630 -0.0054 -0.3389 -0.0994
  177SOPE  H11R20155   5.903   3.442   9.682  0.0694 -0.8790  0.1353
  177SOPE  H11S20156   6.011   3.338   9.574  0.1603  0.1159 -0.8597
  177SOPE  C21220157   6.004   3.533   9.520 -0.2188  0.7341  0.7533
  177SOPE  H12R20158   6.007   3.637   9.561  1.1930  0.9164  0.2471
  177SOPE  H12S20159   5.917   3.520   9.452  0.4962 -0.5806  0.0599
  177SOPE  C21320160   6.123   3.502   9.429  0.3531  0.9917 -0.2196
  177SOPE  H13R20161   6.124   3.395   9.398 -0.4659  0.6398  0.9009
  177SOPE  H13S20162   6.219   3.508   9.486 -0.3803  0.2653  1.1405
  177SOPE  C21420163   6.144   3.598   9.315  0.1152 -0.0235 -0.3344
  177SOPE  H14R20164   6.242   3.603   9.263 -0.0975 -2.2582 -1.0834
  177SOPE  H14S20165   6.123   3.700   9.353 -1.8961  0.2118 -1.8958
  177SOPE  C21520166   6.035   3.589   9.202 -0.5404 -0.1296 -0.5933
  177SOPE  H15R20167   5.936   3.614   9.246 -0.4216  0.1329 -0.4759
  177SOPE  H15S20168   6.036   3.485   9.161 -0.1973 -0.8796  1.2436
  177SOPE  C21620169   6.050   3.695   9.094 -0.4229  0.0124  0.5073
  177SOPE  H16R20170   6.142   3.670   9.036  0.6163  0.4385  1.8917
  177SOPE  H16S20171   6.075   3.788   9.149 -1.3497  0.7397 -0.2759
  177SOPE  C21720172   5.932   3.707   9.007  0.9657  0.2658  0.1358
  177SOPE  H17R20173   5.942   3.794   8.938  0.9496 -0.5577 -0.9291
  177SOPE  H17S20174   5.850   3.744   9.071  0.4416  0.1245 -0.4517
  177SOPE  C21820175   5.874   3.576   8.946 -0.5996 -0.3617 -0.3071
  177SOPE  H18R20176   5.815   3.620   8.863  0.1154  1.4604  0.0800
  177SOPE  H18S20177   5.813   3.535   9.029 -0.6430  1.9174  0.8868
  177SOPE  H18T20178   5.957   3.509   8.916  0.9552  0.2743  2.2006
  177SOPE   C3320179   6.021   3.771  10.545  0.2010  0.4218  0.3906
  177SOPE   H3X20180   5.926   3.741  10.593  1.2256 -0.2094  2.1246
  177SOPE   H3Y20181   6.070   3.679  10.507 -0.5362 -0.3304  1.2239
  177SOPE   C3420182   6.010   3.869  10.429 -0.4127  0.0708  0.5948
  177SOPE   H4X20183   6.099   3.869  10.362 -0.1940  3.3940  0.7497
  177SOPE   H4Y20184   6.003   3.973  10.466  0.3729 -0.1074  1.2592
  177SOPE   C3520185   5.880   3.844  10.350  0.2805 -0.1019  0.2381
  177SOPE   H5X20186   5.793   3.871  10.414  0.4904 -1.3982  1.0970
  177SOPE   H5Y20187   5.884   3.736  10.325  1.0487  0.2860 -1.4868
  177SOPE   C3620188   5.858   3.943  10.244  0.2396  0.2737  0.0844
  177SOPE   H6X20189   5.893   4.042  10.279 -0.4007  0.7852 -0.6864
  177SOPE   H6Y20190   5.753   3.947  10.208  0.0634  0.5085  0.6154
  177SOPE   C3720191   5.939   3.911  10.119  0.4745 -0.5582 -0.0537
  177SOPE   H7X20192   5.901   3.817  10.075  1.5602 -0.9891 -0.1081
  177SOPE   H7Y20193   6.043   3.895  10.155  0.7515 -0.4968 -0.7957
  177SOPE   C3820194   5.940   4.029  10.020  0.2495 -0.3028  0.4788
  177SOPE   H8X20195   5.969   4.126  10.066  0.6234 -0.1443 -0.0924
  177SOPE   H8Y20196   5.838   4.041   9.979  0.9211  1.3521 -0.8066
  177SOPE   C3920197   6.026   3.992   9.897 -0.2093  0.7458  0.1819
  177SOPE   H9X20198   5.984   3.899   9.852  0.1275  0.5312  0.3038
  177SOPE   H9Y20199   6.130   3.978   9.932  0.0465 -0.2548 -0.9005
  177SOPE  C31020200   6.027   4.111   9.794 -0.5647  0.6954 -0.1938
  177SOPE  H10X20201   6.059   4.202   9.849 -1.7623  1.9433 -1.5070
  177SOPE  H10Y20202   5.922   4.138   9.773 -0.4733  0.2928 -1.2046
  177SOPE  C31120203   6.116   4.088   9.667 -0.4407 -0.3155  0.0982
  177SOPE  H11X20204   6.219   4.051   9.691  0.5948  1.6119 -1.1216
  177SOPE  H11Y20205   6.120   4.191   9.626 -1.4884 -1.0554 -2.0106
  177SOPE  C31220206   6.056   3.985   9.573 -0.3412  0.0687 -0.1719
  177SOPE  H12X20207   6.012   3.900   9.630 -1.8333 -0.2300 -1.7078
  177SOPE  H12Y20208   6.141   3.946   9.513 -1.3287 -1.9184 -0.3506
  177SOPE  C31320209   5.942   4.036   9.479  0.1052 -0.1629 -0.1976
  177SOPE  H13X20210   5.867   4.097   9.533  0.7827 -2.1037  3.2456
  177SOPE  H13Y20211   5.901   3.946   9.429 -0.1942 -0.4651  0.5710
  177SOPE  C31420212   6.013   4.117   9.369 -0.3448 -0.0109  0.2676
  177SOPE  H14X20213   6.078   4.053   9.305 -1.7122 -1.4344  0.2602
  177SOPE  H14Y20214   6.088   4.191   9.404  0.8598 -1.0158 -0.1168
  177SOPE  C31520215   5.920   4.193   9.277 -0.0551  0.2158 -0.0758
  177SOPE  H15X20216   5.874   4.278   9.332 -3.3581 -1.1375 -0.5170
  177SOPE  H15Y20217   5.835   4.131   9.241  0.8676 -3.0904  2.8336
  177SOPE  C31620218   6.001   4.246   9.159 -0.3655  0.1007  0.5693
  177SOPE  H16X20219   6.089   4.298   9.204 -0.3926  0.5940  0.0603
  177SOPE  H16Y20220   5.945   4.331   9.113  1.3659  1.6392  1.1730
  177SOPE  C31720221   6.025   4.150   9.044  0.0382  0.9888 -0.3923
  177SOPE  H17X20222   5.926   4.138   8.995 -0.2928  0.3639  0.3961
  177SOPE  H17Y20223   6.049   4.051   9.089  0.3073  0.9478 -0.6277
  177SOPE  C31820224   6.128   4.205   8.941  0.0786 -0.3786  0.5870
  177SOPE  H18X20225   6.230   4.200   8.986  0.0833 -2.5925  0.4364
  177SOPE  H18Y20226   6.102   4.304   8.897  1.7119  0.3017  1.0630
  177SOPE  H18Z20227   6.132   4.139   8.851 -1.5948  1.0730 -0.6223
  178SOPE     N20228   3.091   2.632  10.978  0.0168 -0.0167 -0.0513
  178SOPE   HN120229   3.178   2.688  10.982 -0.6190  0.9460  2.0187
  178SOPE   HN220230   3.038   2.665  11.062  1.2994  0.5579  0.5534
  178SOPE   HN320231   3.092   2.528  10.985 -0.8683  0.0639  1.9789
  178SOPE   C1220232   3.010   2.665  10.863 -0.1198 -0.3563 -0.0276
  178SOPE  H12A20233   3.030   2.592  10.782 -2.2956 -0.5116 -0.4896
  178SOPE  H12B20234   3.025   2.773  10.841 -1.0972 -0.5514 -1.9055
  178SOPE   C1120235   2.864   2.635  10.890  0.3540  0.5272  0.5079
  178SOPE  H11A20236   2.862   2.524  10.902  2.7011  0.1249 -1.8951
  178SOPE  H11B20237   2.816   2.674  10.798 -0.0789  0.2395  0.6090
  178SOPE     P20238   2.649   2.697  11.013 -0.4417 -0.6640 -0.4333
  178SOPE   O1320239   2.601   2.738  11.147  0.5221 -0.4333  0.1908
  178SOPE   O1420240   2.579   2.580  10.951 -0.4187  0.5723  0.1662
  178SOPE   O1220241   2.801   2.689  11.007 -0.0093  0.3242 -0.4910
  178SOPE   O1120242   2.632   2.827  10.921 -0.5006  0.5339 -0.1678
  178SOPE    C120243   2.511   2.894  10.911 -1.0293 -0.2827 -0.1228
  178SOPE    HA20244   2.538   2.992  10.866 -1.7478 -0.4114 -0.8682
  178SOPE    HB20245   2.462   2.914  11.009 -1.4262 -1.5183 -0.0592
  178SOPE    C220246   2.411   2.825  10.814 -0.1729 -0.1161  0.2873
  178SOPE    HS20247   2.354   2.748  10.869 -2.6727 -1.2449 -3.5128
  178SOPE   O2120248   2.481   2.759  10.707  0.5072  0.0690 -0.3525
  178SOPE   C2120249   2.409   2.670  10.639  0.3613 -0.2385  0.1852
  178SOPE   O2220250   2.295   2.638  10.670 -0.4868 -1.0130  0.6820
  178SOPE   C2220251   2.483   2.615  10.526  0.5635  0.0627 -0.2018
  178SOPE   H2R20252   2.414   2.543  10.476 -0.7882  1.2538 -0.1134
  178SOPE   H2S20253   2.571   2.568  10.575  0.8114  1.2941  0.5815
  178SOPE    C320254   2.298   2.920  10.760 -0.0705  0.1205 -0.2291
  178SOPE    HX20255   2.248   2.967  10.847  0.0829 -1.3671  0.6870
  178SOPE    HY20256   2.217   2.863  10.711 -0.2147 -0.9380  1.1736
  178SOPE   O3120257   2.362   3.025  10.682  0.5124  0.0707  0.0649
  178SOPE   C3120258   2.342   3.021  10.552 -0.3573  0.0074  0.0645
  178SOPE   O3220259   2.284   2.931  10.492  0.0822 -0.6967  0.1168
  178SOPE   C3220260   2.402   3.149  10.488 -0.8343 -0.4309  0.0655
  178SOPE   H2X20261   2.494   3.179  10.543  0.6605  1.3237 -3.0900
  178SOPE   H2Y20262   2.330   3.233  10.492 -0.7436 -0.0766 -3.1319
  178SOPE   C2320263   2.531   2.715  10.424 -0.4063  0.0500 -0.1897
  178SOPE   H3R20264   2.619   2.761  10.474  0.7375 -0.2845 -1.7841
  178SOPE   H3S20265   2.460   2.800  10.430 -0.5776 -0.1216  0.2304
  178SOPE   C2420266   2.550   2.661  10.283 -0.5754  0.1198 -0.4873
  178SOPE   H4R20267   2.604   2.564  10.278  1.0030  1.0287 -2.9793
  178SOPE   H4S20268   2.455   2.647  10.228 -0.2328  2.6043 -1.8633
  178SOPE   C2520269   2.633   2.774  10.204  0.2602 -0.9939 -0.4420
  178SOPE   H5R20270   2.563   2.859  10.191  0.9177  0.0484  2.1154
  178SOPE   H5S20271   2.719   2.801  10.269 -0.1477 -2.3602  0.7354
  178SOPE   C2620272   2.668   2.723  10.064  0.5966 -0.4927 -0.5947
  178SOPE   H6R20273   2.742   2.641  10.067  2.6912  1.2364 -1.9819
  178SOPE   H6S20274   2.573   2.683  10.024  1.4698 -1.5753 -1.6436
  178SOPE   C2720275   2.718   2.819   9.959 -0.1875 -0.1088  0.2334
  178SOPE   H7R20276   2.648   2.899   9.928  1.2651  1.4741  0.9092
  178SOPE   H7S20277   2.800   2.876  10.005  1.8374 -1.3763 -1.5990
  178SOPE   C2820278   2.766   2.734   9.840  0.1919  0.7783 -0.0425
  178SOPE   H8R20279   2.829   2.801   9.777 -1.3146  0.1769 -2.3412
  178SOPE   H8S20280   2.818   2.644   9.877 -3.6680 -1.1588  1.2624
  178SOPE   C2920281   2.642   2.674   9.775 -0.8052  0.2763  0.0955
  178SOPE   H9120282   2.568   2.613   9.829 -2.3466 -1.1689 -3.3655
  178SOPE  C21020283   2.619   2.694   9.642 -0.2513  0.3023  0.2237
  178SOPE  H10120284   2.527   2.647   9.605  1.1367 -1.5149 -1.1046
  178SOPE  C21120285   2.699   2.776   9.544  0.0389 -0.0300 -0.1496
  178SOPE  H11R20286   2.807   2.754   9.559 -0.3134 -0.8009  1.5717
  178SOPE  H11S20287   2.689   2.883   9.572 -2.7969 -0.2802  0.0391
  178SOPE  C21220288   2.664   2.751   9.397  0.6635 -0.4130 -0.0547
  178SOPE  H12R20289   2.556   2.768   9.376  0.6080 -1.1962 -0.4782
  178SOPE  H12S20290   2.680   2.647   9.359 -1.1725 -0.6927 -0.1934
  178SOPE  C21320291   2.745   2.851   9.308  0.6371 -0.1701  0.3025
  178SOPE  H13R20292   2.849   2.817   9.287  1.5651  1.2881  2.1818
  178SOPE  H13S20293   2.754   2.953   9.351  3.9806 -0.3266  0.2615
  178SOPE  C21420294   2.677   2.861   9.164 -0.5512  0.2470 -0.1495
  178SOPE  H14R20295   2.575   2.903   9.167 -0.8125 -0.3257 -0.8999
  178SOPE  H14S20296   2.664   2.756   9.132 -0.2829 -0.0771  0.7736
  178SOPE  C21520297   2.767   2.941   9.070 -0.0019 -0.4281  0.3274
  178SOPE  H15R20298   2.862   2.883   9.067 -0.8151 -1.7584 -1.6595
  178SOPE  H15S20299   2.782   3.035   9.128 -2.3232  0.6443 -0.6914
  178SOPE  C21620300   2.702   2.950   8.930  0.0101  0.0407 -0.2319
  178SOPE  H16R20301   2.606   3.005   8.940  0.6976  1.4269 -1.0340
  178SOPE  H16S20302   2.671   2.850   8.893 -3.4428  1.3109 -1.1685
  178SOPE  C21720303   2.790   3.022   8.830  0.9772  0.8341  0.1236
  178SOPE  H17R20304   2.881   2.961   8.819 -0.8856 -1.9607 -0.9038
  178SOPE  H17S20305   2.822   3.122   8.866  2.0827 -0.2348  2.2972
  178SOPE  C21820306   2.718   3.030   8.699  0.9919  0.2557 -0.1495
  178SOPE  H18R20307   2.618   3.078   8.707  0.6454 -0.4422 -0.2559
  178SOPE  H18S20308   2.692   2.928   8.664 -1.7959  0.7413  0.2765
  178SOPE  H18T20309   2.785   3.064   8.617 -1.4343  2.6961 -1.2609
  178SOPE   C3320310   2.443   3.125  10.340  0.3452  0.0404  0.2607
  178SOPE   H3X20311   2.499   3.030  10.335  0.0237 -0.1807  0.8642
  178SOPE   H3Y20312   2.504   3.204  10.291  0.6171  0.9333  1.9744
  178SOPE   C3420313   2.333   3.105  10.233  0.2511  0.9217  0.0746
  178SOPE   H4X20314   2.251   3.181  10.238  0.9408  1.7117 -0.3001
  178SOPE   H4Y20315   2.286   3.005  10.246 -1.3452  1.6676  0.2989
  178SOPE   C3520316   2.397   3.105  10.094 -0.2392 -0.1236  0.1640
  178SOPE   H5X20317   2.482   3.035  10.105  0.4661  1.0232  2.7374
  178SOPE   H5Y20318   2.447   3.195  10.053  1.8699 -1.5836 -0.6122
  178SOPE   C3620319   2.305   3.057   9.980  0.3367 -0.0877  0.5224
  178SOPE   H6X20320   2.202   3.099   9.982 -0.1169 -1.0334 -1.0834
  178SOPE   H6Y20321   2.301   2.946   9.985  1.0536 -0.2015 -0.8515
  178SOPE   C3720322   2.353   3.077   9.833 -0.1291 -0.8938  0.5293
  178SOPE   H7X20323   2.452   3.030   9.817  0.2613 -0.2732  1.0583
  178SOPE   H7Y20324   2.365   3.182   9.802  1.5611 -1.7384 -1.9687
  178SOPE   C3820325   2.257   3.008   9.734 -0.4261 -0.8647 -0.5495
  178SOPE   H8X20326   2.162   3.064   9.723  1.0774  2.3733  1.6422
  178SOPE   H8Y20327   2.226   2.907   9.769 -0.6741 -1.1459 -1.5485
  178SOPE   C3920328   2.315   2.981   9.592  0.5306  0.8166  0.6270
  178SOPE   H9X20329   2.227   2.933   9.543 -0.9781  1.4996  2.5198
  178SOPE   H9Y20330   2.401   2.911   9.595  1.0303  1.2590 -1.5750
  178SOPE  C31020331   2.354   3.099   9.505 -0.5325 -0.4176 -0.2814
  178SOPE  H10X20332   2.437   3.152   9.557 -0.8812 -0.5458  0.4119
  178SOPE  H10Y20333   2.270   3.171   9.497  0.3042  0.7465  0.9303
  178SOPE  C31120334   2.396   3.055   9.362  0.7101  0.5654  0.2565
  178SOPE  H11X20335   2.461   2.967   9.378 -1.9066 -1.2388  1.6952
  178SOPE  H11Y20336   2.452   3.136   9.311 -0.7832  1.0370 -0.7026
  178SOPE  C31220337   2.281   3.021   9.270 -0.1125 -0.2678 -0.4707
  178SOPE  H12X20338   2.215   3.109   9.263 -2.2690 -1.8907 -2.0897
  178SOPE  H12Y20339   2.214   2.944   9.314  0.9589 -0.5120  0.7976
  178SOPE  C31320340   2.327   2.966   9.130  0.3030 -0.0346 -0.1593
  178SOPE  H13X20341   2.374   2.868   9.152 -2.0640 -1.0933  0.5432
  178SOPE  H13Y20342   2.408   3.031   9.092  0.7135  0.7308  1.9068
  178SOPE  C31420343   2.220   2.935   9.031  0.0971  0.2773  0.5532
  178SOPE  H14X20344   2.173   3.025   8.986 -1.5712 -1.8174 -2.2050
  178SOPE  H14Y20345   2.154   2.861   9.080  3.3843 -3.8110 -0.5293
  178SOPE  C31520346   2.273   2.861   8.903  0.3957 -0.4807 -0.5188
  178SOPE  H15X20347   2.189   2.797   8.869 -1.8437  2.1063 -0.1809
  178SOPE  H15Y20348   2.363   2.802   8.933  0.5294  0.5643  1.3104
  178SOPE  C31620349   2.322   2.949   8.788  0.7444 -0.0247  0.7234
  178SOPE  H16X20350   2.374   2.885   8.714 -0.8636 -0.4108 -0.1222
  178SOPE  H16Y20351   2.399   3.019   8.825  1.0870  1.2795 -2.1652
  178SOPE  C31720352   2.206   3.022   8.718 -0.4196  0.2601  1.0511
  178SOPE  H17X20353   2.131   3.059   8.792 -0.9601 -1.2454  1.2900
  178SOPE  H17Y20354   2.146   2.959   8.649 -2.7948  2.9311  0.5004
  178SOPE  C31820355   2.255   3.154   8.653  0.4475 -0.5406 -0.0236
  178SOPE  H18X20356   2.341   3.131   8.587 -0.3444  0.0281 -1.3089
  178SOPE  H18Y20357   2.279   3.230   8.731 -0.1366  0.5950 -0.9165
  178SOPE  H18Z20358   2.174   3.195   8.588 -0.6559 -1.6681  0.5933
  179SOPE     N20359   5.641   5.850   6.435 -0.1320  0.3491  0.4287
  179SOPE   HN120360   5.597   5.922   6.374  0.2605 -1.7650 -2.5895
  179SOPE   HN220361   5.596   5.761   6.403 -0.9814  1.2377 -0.9961
  179SOPE   HN320362   5.597   5.861   6.528  0.8529  2.0249  0.7314
  179SOPE   C1220363   5.792   5.870   6.432  0.1751 -0.4895  0.1496
  179SOPE  H12A20364   5.826   5.820   6.339  0.4267 -0.8835  0.4493
  179SOPE  H12B20365   5.835   5.820   6.521 -1.3978 -1.5694  0.3343
  179SOPE   C1120366   5.828   6.018   6.427  0.2290 -0.6380 -0.2049
  179SOPE  H11A20367   5.772   6.075   6.350 -2.4426  0.9768  2.7200
  179SOPE  H11B20368   5.936   6.016   6.401  0.5696  0.4847  1.0539
  179SOPE     P20369   5.813   6.215   6.604 -0.1905  0.3805  0.1264
  179SOPE   O1320370   5.693   6.237   6.691  0.3046 -0.0983 -0.1688
  179SOPE   O1420371   5.822   6.302   6.485  0.6894  0.2807 -0.1434
  179SOPE   O1220372   5.822   6.064   6.563  0.0208  0.0235 -0.7579
  179SOPE   O1120373   5.938   6.247   6.689 -0.1843 -0.0496 -0.2066
  179SOPE    C120374   6.067   6.215   6.639 -0.2125  0.0568  0.1393
  179SOPE    HA20375   6.077   6.244   6.533 -0.3824  0.9812  0.3680
  179SOPE    HB20376   6.092   6.107   6.643  1.7754  0.4871  0.7515
  179SOPE    C220377   6.164   6.308   6.710 -0.2903 -1.0283 -0.3571
  179SOPE    HS20378   6.270   6.295   6.680  0.1382 -0.4196  0.8165
  179SOPE   O2120379   6.170   6.299   6.854  0.4777 -0.6792 -0.4313
  179SOPE   C2120380   6.218   6.186   6.902  0.5775  0.4938 -0.5131
  179SOPE   O2220381   6.264   6.095   6.835 -0.2617  0.0281 -0.2392
  179SOPE   C2220382   6.182   6.176   7.048  0.0449 -0.6761 -0.1282
  179SOPE   H2R20383   6.072   6.188   7.058  0.3193  0.0297  2.8036
  179SOPE   H2S20384   6.232   6.250   7.114 -1.8690 -0.8630  1.6028
  179SOPE    C320385   6.151   6.459   6.678 -0.0060  0.1597  0.1508
  179SOPE    HX20386   6.043   6.482   6.676  0.1480  2.1761  4.2777
  179SOPE    HY20387   6.175   6.467   6.570 -0.5934 -0.1019 -0.0021
  179SOPE   O3120388   6.236   6.538   6.755  0.0019  0.0414 -0.7854
  179SOPE   C3120389   6.168   6.597   6.854  0.3904 -0.4747  0.1156
  179SOPE   O3220390   6.051   6.636   6.844  0.6102  0.2410 -0.0062
  179SOPE   C3220391   6.250   6.594   6.984 -0.2421 -0.8168 -0.0193
  179SOPE   H2X20392   6.350   6.629   6.952 -0.6957 -1.2840 -2.0611
  179SOPE   H2Y20393   6.265   6.491   7.024  2.4414 -0.7988 -0.7695
  179SOPE   C2320394   6.223   6.042   7.106  0.0992 -0.2957  0.2217
  179SOPE   H3R20395   6.329   6.026   7.075 -0.1149 -0.5789 -0.3840
  179SOPE   H3S20396   6.152   5.962   7.076 -0.8300 -0.1464  1.8918
  179SOPE   C2420397   6.205   6.040   7.260  0.4935  0.4832 -0.2136
  179SOPE   H4R20398   6.274   6.116   7.301  2.0229 -1.9342  2.0457
  179SOPE   H4S20399   6.099   6.060   7.287  0.7409  1.4805  0.0294
  179SOPE   C2520400   6.244   5.903   7.328  0.2601 -0.2130 -0.3950
  179SOPE   H5R20401   6.213   5.814   7.270 -1.2512 -1.8630  2.7252
  179SOPE   H5S20402   6.354   5.893   7.343  0.0303 -0.3089  1.5669
  179SOPE   C2620403   6.186   5.893   7.468 -0.0996  0.2147 -0.8401
  179SOPE   H6R20404   6.189   5.986   7.528 -3.2827 -0.7373  1.0536
  179SOPE   H6S20405   6.081   5.861   7.451  0.2878 -0.6429 -1.6992
  179SOPE   C2720406   6.238   5.767   7.547 -0.4525 -0.1345 -0.1319
  179SOPE   H7R20407   6.156   5.733   7.614 -1.3187  0.3803 -0.9113
  179SOPE   H7S20408   6.248   5.687   7.470  1.4288  0.6087 -0.7135
  179SOPE   C2820409   6.374   5.791   7.602 -0.2274 -0.1284 -0.4747
  179SOPE   H8R20410   6.409   5.689   7.632  1.5158  0.4045 -0.5684
  179SOPE   H8S20411   6.443   5.841   7.531  0.8543 -0.4596  0.3163
  179SOPE   C2920412   6.376   5.884   7.724  0.4967 -0.4169  0.1355
  179SOPE   H9120413   6.379   5.992   7.705  0.4720 -0.6092 -1.0400
  179SOPE  C21020414   6.364   5.851   7.858 -0.1526 -0.1384  0.8657
  179SOPE  H10120415   6.372   5.935   7.928 -1.4314 -0.5217  1.5087
  179SOPE  C21120416   6.353   5.710   7.910 -0.3468 -1.1987  0.3594
  179SOPE  H11R20417   6.452   5.674   7.947 -0.9122 -0.5674  2.6842
  179SOPE  H11S20418   6.333   5.642   7.825  3.1930  0.3092 -1.8803
  179SOPE  C21220419   6.253   5.694   8.021  0.0040 -0.1976  0.4603
  179SOPE  H12R20420   6.262   5.783   8.086  0.0300 -0.7698  1.2648
  179SOPE  H12S20421   6.268   5.597   8.075  2.4690  1.2439  2.5757
  179SOPE  C21320422   6.110   5.694   7.970  0.0420 -0.1356 -0.1450
  179SOPE  H13R20423   6.096   5.761   7.883  0.2328  0.0735 -0.0181
  179SOPE  H13S20424   6.028   5.722   8.041  0.3128 -0.6781  0.3877
  179SOPE  C21420425   6.071   5.555   7.911 -0.1577 -0.8286 -0.8059
  179SOPE  H14R20426   6.075   5.486   7.998 -2.2195  0.7729  0.6479
  179SOPE  H14S20427   6.141   5.523   7.830  1.3376  0.5367 -0.1137
  179SOPE  C21520428   5.934   5.546   7.854 -0.1720  0.1195  0.1877
  179SOPE  H15R20429   5.924   5.616   7.769 -1.0131 -1.8066 -1.3781
  179SOPE  H15S20430   5.846   5.574   7.916 -0.4751 -0.4104  0.0014
  179SOPE  C21620431   5.920   5.401   7.793 -0.7728 -0.4504 -0.1329
  179SOPE  H16R20432   5.994   5.389   7.711  0.1103  0.7110  0.4543
  179SOPE  H16S20433   5.817   5.393   7.752 -1.4825  4.4811  0.0877
  179SOPE  C21720434   5.926   5.296   7.915  0.3409 -0.4105  0.8986
  179SOPE  H17R20435   5.866   5.338   7.999  0.7038 -2.1163  2.0580
  179SOPE  H17S20436   6.028   5.264   7.947  0.8566  2.2269  2.1799
  179SOPE  C21820437   5.849   5.167   7.887  0.7166 -0.9869 -0.5193
  179SOPE  H18R20438   5.890   5.122   7.793 -0.2450  0.3725 -1.6326
  179SOPE  H18S20439   5.742   5.195   7.879  0.7543 -1.1387 -1.8838
  179SOPE  H18T20440   5.863   5.098   7.973 -2.7809  0.5516  1.4925
  179SOPE   C3320441   6.200   6.695   7.088 -0.0468  0.7910 -0.9986
  179SOPE   H3X20442   6.100   6.670   7.131 -0.7691  3.6423 -0.8304
  179SOPE   H3Y20443   6.180   6.797   7.049 -1.8922  1.0068  0.3330
  179SOPE   C3420444   6.298   6.716   7.212  0.0859 -0.2010 -0.2749
  179SOPE   H4X20445   6.274   6.816   7.253 -1.7769 -0.9057  0.4585
  179SOPE   H4Y20446   6.400   6.724   7.170  1.4029  0.0786  2.7334
  179SOPE   C3520447   6.283   6.600   7.305 -0.1373 -0.3657 -0.7288
  179SOPE   H5X20448   6.329   6.515   7.251 -0.1991  0.5584 -2.3309
  179SOPE   H5Y20449   6.176   6.580   7.326  0.2160 -0.4657  1.1004
  179SOPE   C3620450   6.354   6.607   7.443  0.0394  1.0434  0.6304
  179SOPE   H6X20451   6.456   6.646   7.426 -0.7048  2.9560  0.2527
  179SOPE   H6Y20452   6.356   6.504   7.483 -0.0766  0.1831 -1.4604
  179SOPE   C3720453   6.293   6.700   7.546 -0.0416 -0.2039  0.6685
  179SOPE   H7X20454   6.192   6.669   7.581  0.2040 -0.2101  1.3837
  179SOPE   H7Y20455   6.299   6.803   7.506 -1.7964 -0.4429 -0.3166
  179SOPE   C3820456   6.364   6.687   7.678 -0.0264 -0.1746  0.2538
  179SOPE   H8X20457   6.468   6.724   7.671 -0.7610  1.8692 -0.5055
  179SOPE   H8Y20458   6.371   6.584   7.721 -2.0684 -0.6589 -0.4365
  179SOPE   C3920459   6.290   6.775   7.784 -0.2521  0.5979 -0.1479
  179SOPE   H9X20460   6.179   6.782   7.785 -0.3627 -0.5110  1.8661
  179SOPE   H9Y20461   6.317   6.877   7.750  0.9145  0.2703 -0.2597
  179SOPE  C31020462   6.334   6.756   7.931 -0.2858  0.1468 -0.1157
  179SOPE  H10X20463   6.278   6.831   7.991 -0.3472  1.4319 -1.7029
  179SOPE  H10Y20464   6.445   6.764   7.942 -0.0891  0.0408 -1.8158
  179SOPE  C31120465   6.299   6.609   7.978 -0.3225  0.5680 -0.4677
  179SOPE  H11X20466   6.379   6.542   7.941  0.7749  1.3024  0.5206
  179SOPE  H11Y20467   6.200   6.567   7.947  0.1853 -1.8941  1.0164
  179SOPE  C31220468   6.291   6.583   8.129  0.1352  0.0736  0.5050
  179SOPE  H12X20469   6.256   6.488   8.174  1.3672 -0.4214  0.4636
  179SOPE  H12Y20470   6.215   6.656   8.164 -1.1741 -0.6251 -0.7925
  179SOPE  C31320471   6.433   6.618   8.191  0.2020  0.1617 -0.9667
  179SOPE  H13X20472   6.456   6.726   8.176  2.7038  0.0601  1.3508
  179SOPE  H13Y20473   6.512   6.566   8.132  2.3775  2.5589 -0.3687
  179SOPE  C31420474   6.441   6.599   8.347  0.0350  0.4793 -0.0513
  179SOPE  H14X20475   6.438   6.491   8.373  0.0163  0.6644  0.7369
  179SOPE  H14Y20476   6.362   6.654   8.402 -0.9109 -1.4903  0.6577
  179SOPE  C31520477   6.576   6.635   8.400 -0.7070  0.0890  0.4574
  179SOPE  H15X20478   6.596   6.741   8.372  0.0438  0.1479  1.1685
  179SOPE  H15Y20479   6.645   6.575   8.338 -0.8969 -0.7992  1.0781
  179SOPE  C31620480   6.601   6.607   8.548 -0.2310  0.0915 -0.7658
  179SOPE  H16X20481   6.605   6.497   8.563  1.0159  0.4019  1.5920
  179SOPE  H16Y20482   6.519   6.646   8.611  1.4211 -0.4032  1.8639
  179SOPE  C31720483   6.731   6.667   8.612  0.7166  0.9780  0.0689
  179SOPE  H17X20484   6.711   6.680   8.721  0.6845  1.2546  0.0304
  179SOPE  H17Y20485   6.751   6.767   8.567  0.6577  1.0808  0.2672
  179SOPE  C31820486   6.850   6.576   8.591  0.0927 -1.0748 -0.4840
  179SOPE  H18X20487   6.829   6.470   8.617  1.2885 -1.0366  0.7531
  179SOPE  H18Y20488   6.929   6.604   8.664 -0.5814 -2.0563  0.6633
  179SOPE  H18Z20489   6.893   6.578   8.489 -1.1089 -0.2613 -0.9964
  180SOPE     N20490   6.234   5.626   6.235 -0.0781 -0.4273  0.4369
  180SOPE   HN120491   6.288   5.693   6.294  0.5298 -1.4945  1.1278
  180SOPE   HN220492   6.277   5.532   6.247 -2.8117 -2.0045 -1.0189
  180SOPE   HN320493   6.248   5.662   6.139  0.1064 -0.1051  0.5854
  180SOPE   C1220494   6.092   5.625   6.275  0.7328 -0.1184 -0.0940
  180SOPE  H12A20495   6.035   5.552   6.215  0.1567  0.8369 -0.7486
  180SOPE  H12B20496   6.047   5.726   6.259  0.2027 -0.1367  1.2105
  180SOPE   C1120497   6.081   5.575   6.412 -0.1128  0.2955 -0.0971
  180SOPE  H11A20498   6.132   5.639   6.488  1.7166 -0.4613 -0.6389
  180SOPE  H11B20499   6.120   5.471   6.418 -0.9070  0.0561  3.0582
  180SOPE     P20500   5.847   5.455   6.414  0.0680  0.0850  0.1544
  180SOPE   O1320501   5.894   5.327   6.461 -0.1373  0.2323 -0.4871
  180SOPE   O1420502   5.814   5.463   6.272  0.2232  0.1175 -0.3993
  180SOPE   O1220503   5.945   5.577   6.452 -0.3241  0.2846  0.1854
  180SOPE   O1120504   5.715   5.490   6.502 -0.0145 -0.0770  0.2496
  180SOPE    C120505   5.719   5.526   6.636 -0.7019 -0.3131 -0.1290
  180SOPE    HA20506   5.740   5.635   6.634  0.0114 -0.4519 -1.2507
  180SOPE    HB20507   5.802   5.481   6.695  0.5241  2.4729  0.4760
  180SOPE    C220508   5.585   5.479   6.703 -0.1025 -0.1989 -0.1107
  180SOPE    HS20509   5.494   5.526   6.659 -0.0879 -0.8909 -0.9141
  180SOPE   O2120510   5.595   5.492   6.844 -0.0263 -0.0983 -0.0216
  180SOPE   C2120511   5.519   5.586   6.899  0.1051  0.6760  0.4000
  180SOPE   O2220512   5.476   5.686   6.850  0.4633 -0.8527  0.5712
  180SOPE   C2220513   5.490   5.544   7.038 -0.0176  0.0267 -0.1289
  180SOPE   H2R20514   5.460   5.634   7.095 -0.6753  0.4537 -1.1217
  180SOPE   H2S20515   5.590   5.514   7.077  0.4636  1.3407 -0.3009
  180SOPE    C320516   5.560   5.325   6.683 -0.8578 -0.1520  0.8192
  180SOPE    HX20517   5.639   5.274   6.743 -0.9167  0.7186  1.6729
  180SOPE    HY20518   5.566   5.311   6.573  1.3994  0.6916  0.7794
  180SOPE   O3120519   5.431   5.279   6.728  0.0345 -0.4975  0.4061
  180SOPE   C3120520   5.329   5.283   6.643 -0.6143  0.2909  0.6426
  180SOPE   O3220521   5.335   5.286   6.522 -0.3585 -0.2452 -0.2809
  180SOPE   C3220522   5.203   5.269   6.731 -0.1734  0.5441  0.3943
  180SOPE   H2X20523   5.128   5.348   6.711 -1.1030  0.0867  1.8919
  180SOPE   H2Y20524   5.232   5.285   6.837  0.8049  1.4382  0.0093
  180SOPE   C2320525   5.379   5.434   7.045  0.4837  0.5399 -1.0010
  180SOPE   H3R20526   5.402   5.345   6.983  0.4829  0.1722 -0.4773
  180SOPE   H3S20527   5.284   5.480   7.010  0.0824 -1.1206 -2.2178
  180SOPE   C2420528   5.359   5.381   7.188  0.0698  0.7123 -0.6465
  180SOPE   H4R20529   5.457   5.346   7.227 -0.9723 -2.7696 -0.7820
  180SOPE   H4S20530   5.328   5.467   7.251 -1.2156  0.6091 -1.1142
  180SOPE   C2520531   5.273   5.257   7.196  0.2291  0.0535  0.5117
  180SOPE   H5R20532   5.169   5.280   7.165 -0.1527 -2.8548 -0.6359
  180SOPE   H5S20533   5.317   5.183   7.126  0.9627 -0.2642  1.2860
  180SOPE   C2620534   5.277   5.193   7.332  0.1913  0.1009 -0.8445
  180SOPE   H6R20535   5.228   5.094   7.340  1.0945 -0.2917  0.0209
  180SOPE   H6S20536   5.380   5.162   7.360  0.8282  2.0978 -0.7958
  180SOPE   C2720537   5.219   5.277   7.447  0.3687 -0.2704  0.1574
  180SOPE   H7R20538   5.267   5.377   7.439  0.5916 -0.4996 -2.1741
  180SOPE   H7S20539   5.111   5.291   7.424  0.4168 -1.3286 -0.8257
  180SOPE   C2820540   5.227   5.224   7.586 -0.6390 -0.2873 -0.6292
  180SOPE   H8R20541   5.195   5.302   7.659  1.6537 -1.6608  2.0463
  180SOPE   H8S20542   5.148   5.146   7.585 -0.4692 -0.4863 -2.7248
  180SOPE   C2920543   5.362   5.160   7.616  0.1416  0.8250  0.1452
  180SOPE   H9120544   5.404   5.077   7.557  1.2843  1.5663 -0.1123
  180SOPE  C21020545   5.438   5.187   7.726  0.0406 -0.0340  0.6860
  180SOPE  H10120546   5.539   5.144   7.738 -0.6620 -1.2713  2.4917
  180SOPE  C21120547   5.405   5.282   7.846  0.3052  0.0433  0.5064
  180SOPE  H11R20548   5.453   5.242   7.938 -0.4817  3.3060  2.5088
  180SOPE  H11S20549   5.298   5.293   7.871 -0.4915 -4.8784  0.1849
  180SOPE  C21220550   5.468   5.419   7.806  0.9795  0.6005  0.7134
  180SOPE  H12R20551   5.386   5.461   7.743  0.2419 -2.2609 -0.3848
  180SOPE  H12S20552   5.562   5.406   7.749 -0.8296 -3.2878 -1.7939
  180SOPE  C21320553   5.490   5.516   7.921 -0.1235 -0.0514  0.4041
  180SOPE  H13R20554   5.394   5.535   7.974 -0.4105  3.7830 -1.2050
  180SOPE  H13S20555   5.523   5.617   7.891 -1.0297  0.0034 -0.4594
  180SOPE  C21420556   5.580   5.460   8.035 -0.2850  0.1601  0.2544
  180SOPE  H14R20557   5.676   5.421   7.996 -0.8319  0.4716 -1.5026
  180SOPE  H14S20558   5.509   5.388   8.080  0.1713  0.0084  0.7380
  180SOPE  C21520559   5.621   5.576   8.133  0.8513  0.0879 -0.5374
  180SOPE  H15R20560   5.538   5.649   8.145  2.3773  1.7223  0.3874
  180SOPE  H15S20561   5.709   5.634   8.099  2.2814 -0.7618  1.5597
  180SOPE  C21620562   5.660   5.506   8.267  0.2811 -0.3179  0.2532
  180SOPE  H16R20563   5.731   5.423   8.249  0.3581 -0.3302  0.5954
  180SOPE  H16S20564   5.569   5.458   8.307  0.6503 -0.9494  0.3368
  180SOPE  C21720565   5.734   5.603   8.366  0.3814  0.1495 -0.3187
  180SOPE  H17R20566   5.764   5.553   8.461  0.2756  0.6950  0.0078
  180SOPE  H17S20567   5.666   5.683   8.402  1.9873  1.2446  0.4300
  180SOPE  C21820568   5.862   5.673   8.306  0.0204  0.9169  0.3932
  180SOPE  H18R20569   5.947   5.606   8.281  0.1363  0.6871  1.3543
  180SOPE  H18S20570   5.893   5.738   8.390  0.5413 -1.4431  2.1369
  180SOPE  H18T20571   5.842   5.739   8.219  1.2818  0.6981 -0.0912
  180SOPE   C3320572   5.140   5.125   6.715 -0.0681 -0.1681  0.3014
  180SOPE   H3X20573   5.208   5.039   6.737 -2.1592 -1.8628  0.4446
  180SOPE   H3Y20574   5.125   5.119   6.605  1.9884 -0.5217 -0.0068
  180SOPE   C3420575   5.004   5.105   6.779  0.0627  0.6384  0.3267
  180SOPE   H4X20576   4.987   5.002   6.741 -2.9818  0.6296  1.4768
  180SOPE   H4Y20577   4.926   5.172   6.735  0.3264  0.7148 -0.0373
  180SOPE   C3520578   5.000   5.107   6.928  0.2719  0.3100 -0.2904
  180SOPE   H5X20579   4.983   5.211   6.962  1.3071  0.7979 -1.1841
  180SOPE   H5Y20580   5.092   5.067   6.977 -1.4731  0.1530  3.1817
  180SOPE   C3620581   4.894   5.015   6.985  0.3710  0.2897  0.7675
  180SOPE   H6X20582   4.866   4.930   6.919 -1.2449  2.0696 -0.9644
  180SOPE   H6Y20583   4.800   5.075   6.985  0.9597  1.2361  1.3035
  180SOPE   C3720584   4.924   4.959   7.118  0.0136 -0.3882  0.7594
  180SOPE   H7X20585   5.026   4.915   7.121  0.1048 -0.3973 -1.1246
  180SOPE   H7Y20586   4.849   4.878   7.126 -0.3506 -0.0585  0.7203
  180SOPE   C3820587   4.904   5.055   7.233  0.7439  0.1141 -0.3163
  180SOPE   H8X20588   4.814   5.117   7.214 -0.8448 -1.1989  2.2645
  180SOPE   H8Y20589   4.992   5.122   7.242 -0.2650  1.4413  0.0998
  180SOPE   C3920590   4.885   4.991   7.373  0.4141 -0.2009 -1.0675
  180SOPE   H9X20591   4.982   4.944   7.401  0.7378  1.1366  0.0939
  180SOPE   H9Y20592   4.808   4.912   7.357  0.9535 -0.4941 -2.4055
  180SOPE  C31020593   4.831   5.094   7.469 -0.4288  0.0776 -0.9879
  180SOPE  H10X20594   4.732   5.127   7.431  0.5555  0.1657 -3.7194
  180SOPE  H10Y20595   4.898   5.181   7.489  3.6132 -2.6679 -1.5109
  180SOPE  C31120596   4.809   5.032   7.602  0.3638 -0.2355 -0.1640
  180SOPE  H11X20597   4.909   5.007   7.643  0.4945  0.9763  0.3074
  180SOPE  H11Y20598   4.740   4.946   7.590 -0.5858  0.8171 -2.9142
  180SOPE  C31220599   4.766   5.134   7.713 -0.6553  0.3740  0.0229
  180SOPE  H12X20600   4.662   5.169   7.693 -1.1052 -0.0617  1.5096
  180SOPE  H12Y20601   4.837   5.219   7.705  0.2672 -0.4511 -0.8012
  180SOPE  C31320602   4.773   5.078   7.858  0.2970 -0.1707 -0.5451
  180SOPE  H13X20603   4.879   5.051   7.876  0.3854 -0.3728 -1.3446
  180SOPE  H13Y20604   4.704   4.990   7.854 -1.8524  1.1658  2.5236
  180SOPE  C31420605   4.717   5.173   7.961 -0.1662 -0.9287  0.3423
  180SOPE  H14X20606   4.611   5.201   7.942  0.1352 -0.5547 -0.8519
  180SOPE  H14Y20607   4.766   5.273   7.952 -0.6206 -0.9104 -3.4067
  180SOPE  C31520608   4.718   5.113   8.108  0.2474  0.8496  0.7408
  180SOPE  H15X20609   4.689   5.006   8.110 -0.5727  1.0662  0.9193
  180SOPE  H15Y20610   4.646   5.175   8.166 -1.8353 -1.1132  0.3845
  180SOPE  C31620611   4.860   5.107   8.167 -0.1969  0.6385 -0.1346
  180SOPE  H16X20612   4.898   5.210   8.146  0.0886  0.3938 -0.8364
  180SOPE  H16Y20613   4.909   5.035   8.099 -1.1351  0.2038 -0.3622
  180SOPE  C31720614   4.872   5.090   8.317 -0.4327 -0.1409  0.0711
  180SOPE  H17X20615   4.809   5.159   8.377  1.3539 -0.4592  2.4526
  180SOPE  H17Y20616   4.976   5.109   8.352 -1.1165  0.9185  1.6138
  180SOPE  C31820617   4.836   4.952   8.367  0.3036  0.3416 -0.1530
  180SOPE  H18X20618   4.842   4.952   8.478  3.1343 -0.7868 -0.2152
  180SOPE  H18Y20619   4.913   4.878   8.334  1.7537  0.3636  2.7622
  180SOPE  H18Z20620   4.735   4.925   8.330 -0.2897  0.5629  1.2185
  181SOPE     N20621   3.529   5.000   6.644  0.9837 -0.3533 -0.2000
  181SOPE   HN120622   3.519   4.907   6.597 -2.4308  0.8142 -2.1534
  181SOPE   HN220623   3.533   5.070   6.567  0.3419  1.4877  1.3780
  181SOPE   HN320624   3.622   5.011   6.689  1.1744  0.3188 -0.7480
  181SOPE   C1220625   3.409   5.018   6.731 -0.4239 -0.0768 -0.5627
  181SOPE  H12A20626   3.427   4.979   6.833  1.8877  1.9677 -0.1029
  181SOPE  H12B20627   3.326   4.969   6.675 -2.0217  2.5679 -0.7074
  181SOPE   C1120628   3.380   5.163   6.755  0.2765  0.1763  0.3879
  181SOPE  H11A20629   3.456   5.200   6.827  0.9138 -1.5655  0.6614
  181SOPE  H11B20630   3.281   5.161   6.805  0.1529 -0.5993  0.1254
  181SOPE     P20631   3.263   5.235   6.531  0.0782  0.1685  0.1574
  181SOPE   O1320632   3.257   5.095   6.481 -0.5469  0.0052  0.0187
  181SOPE   O1420633   3.273   5.347   6.434 -0.2278  0.8495  0.0413
  181SOPE   O1220634   3.378   5.248   6.639 -0.1864 -0.7995  0.1710
  181SOPE   O1120635   3.140   5.257   6.624  0.0082 -0.8944 -0.2806
  181SOPE    C120636   3.107   5.385   6.692  0.2127  0.0220 -0.2020
  181SOPE    HA20637   3.001   5.409   6.668  0.6047  1.6218 -0.5011
  181SOPE    HB20638   3.176   5.464   6.655  0.4032 -0.4180 -0.8046
  181SOPE    C220639   3.121   5.381   6.850  0.3900 -0.3711  0.1953
  181SOPE    HS20640   3.226   5.360   6.878  0.7209  0.2376 -0.5537
  181SOPE   O2120641   3.040   5.271   6.884  0.9096  0.0408  0.1810
  181SOPE   C2120642   3.074   5.206   6.997 -0.5520  0.0799 -0.0134
  181SOPE   O2220643   3.169   5.233   7.065 -0.1761  0.0884  0.1225
  181SOPE   C2220644   2.967   5.106   7.021 -0.1943  0.4488  0.7081
  181SOPE   H2R20645   2.958   5.046   6.928 -0.5120  1.5226  0.0193
  181SOPE   H2S20646   2.875   5.163   7.048 -0.9313  0.7837 -2.1030
  181SOPE    C320647   3.079   5.515   6.924 -0.0960  0.0590 -0.1617
  181SOPE    HX20648   2.971   5.536   6.907  0.0628  0.7369 -0.3564
  181SOPE    HY20649   3.122   5.600   6.867 -1.3523  1.8504  1.4694
  181SOPE   O3120650   3.116   5.508   7.065  0.1040 -0.5680 -0.0707
  181SOPE   C3120651   3.246   5.534   7.086  0.1012 -0.0409  0.6663
  181SOPE   O3220652   3.320   5.560   6.993  0.5308  0.0487 -0.5029
  181SOPE   C3220653   3.283   5.509   7.227 -0.1416 -0.4304 -1.0932
  181SOPE   H2X20654   3.272   5.402   7.253 -1.6161 -0.3699 -1.4162
  181SOPE   H2Y20655   3.201   5.549   7.291  0.1949 -0.8015 -0.4096
  181SOPE   C2320656   3.012   5.019   7.144 -0.0156 -0.1849 -0.5346
  181SOPE   H3R20657   3.119   4.995   7.159  0.0575  0.6736  0.4185
  181SOPE   H3S20658   2.959   4.922   7.136 -0.3151 -0.0929  0.2870
  181SOPE   C2420659   2.992   5.091   7.272 -0.2316 -0.2270  0.4167
  181SOPE   H4R20660   3.063   5.177   7.280 -1.4249  0.7510  0.7331
  181SOPE   H4S20661   2.889   5.131   7.275  0.3347  1.2604  2.8234
  181SOPE   C2520662   3.009   5.017   7.406  0.2499 -0.5107  0.3513
  181SOPE   H5R20663   2.979   5.085   7.489  1.0595 -2.5286  2.4118
  181SOPE   H5S20664   2.936   4.934   7.408 -1.3972  0.8541 -0.4605
  181SOPE   C2620665   3.150   4.965   7.435  0.2751  0.4398  0.4751
  181SOPE   H6R20666   3.215   4.960   7.345 -0.7977  1.6948 -0.4058
  181SOPE   H6S20667   3.204   5.018   7.516 -0.3894 -0.1712  1.3451
  181SOPE   C2720668   3.139   4.815   7.481 -0.0768 -0.3125  0.5467
  181SOPE   H7R20669   3.058   4.816   7.558 -1.1301 -1.3594 -0.4927
  181SOPE   H7S20670   3.100   4.748   7.401  2.2328 -1.1898  0.0734
  181SOPE   C2820671   3.271   4.761   7.528 -0.1673 -0.7878  0.4726
  181SOPE   H8R20672   3.357   4.791   7.463  0.3284 -1.9651  0.5531
  181SOPE   H8S20673   3.306   4.804   7.624  0.3953 -0.5268  0.1614
  181SOPE   C2920674   3.284   4.612   7.527 -0.2056  0.2020  0.4138
  181SOPE   H9120675   3.259   4.568   7.429 -0.4936  1.6846 -0.2053
  181SOPE  C21020676   3.316   4.540   7.637 -0.3553 -0.0654  0.7266
  181SOPE  H10120677   3.322   4.431   7.621  1.0934  0.0717  0.1537
  181SOPE  C21120678   3.350   4.586   7.776 -0.9936 -0.3663 -0.5871
  181SOPE  H11R20679   3.279   4.533   7.843  0.2110 -1.4094 -0.0912
  181SOPE  H11S20680   3.343   4.696   7.792  1.5958 -0.1458 -0.5184
  181SOPE  C21220681   3.491   4.538   7.825  0.4520 -0.1196  0.5868
  181SOPE  H12R20682   3.569   4.605   7.783  0.0183 -0.4190 -0.7373
  181SOPE  H12S20683   3.512   4.438   7.781  1.0079 -0.9404  2.5705
  181SOPE  C21320684   3.489   4.535   7.978  0.5634  0.0432 -0.2689
  181SOPE  H13R20685   3.426   4.446   8.000  0.2760  0.5517  1.0686
  181SOPE  H13S20686   3.448   4.631   8.015 -0.5073  0.1707 -1.7140
  181SOPE  C21420687   3.623   4.506   8.036 -0.3737  0.0094  0.3458
  181SOPE  H14R20688   3.688   4.568   7.971  0.2250 -1.6827 -0.7431
  181SOPE  H14S20689   3.650   4.400   8.014  1.2624  0.3021  0.8252
  181SOPE  C21520690   3.634   4.525   8.184 -0.6191 -0.3828 -0.1517
  181SOPE  H15R20691   3.583   4.441   8.236  1.7281 -0.0703  2.9198
  181SOPE  H15S20692   3.579   4.619   8.208  0.7229  1.0219 -2.2035
  181SOPE  C21620693   3.778   4.547   8.233 -0.2121 -0.4353  0.2195
  181SOPE  H16R20694   3.802   4.654   8.212 -1.2973 -0.3396 -0.6481
  181SOPE  H16S20695   3.850   4.477   8.187 -0.1624  0.2146 -0.7250
  181SOPE  C21720696   3.773   4.552   8.388  0.0286  0.0621 -0.4139
  181SOPE  H17R20697   3.740   4.454   8.429 -2.1210  0.9311  0.0501
  181SOPE  H17S20698   3.696   4.624   8.421 -1.6445 -2.2160  0.9592
  181SOPE  C21820699   3.918   4.576   8.447 -0.6612 -0.0602  0.3358
  181SOPE  H18R20700   3.949   4.675   8.408 -0.3665  0.1284  1.0351
  181SOPE  H18S20701   3.982   4.497   8.403  1.5227  2.3723 -1.1093
  181SOPE  H18T20702   3.921   4.573   8.558 -0.0736  2.1183  0.4219
  181SOPE   C3320703   3.424   5.556   7.264  0.7551  0.0135 -0.1832
  181SOPE   H3X20704   3.494   5.542   7.179  1.6808  0.8106  0.4262
  181SOPE   H3Y20705   3.459   5.486   7.343  3.7010 -0.3187 -1.6456
  181SOPE   C3420706   3.430   5.702   7.311 -0.3670 -0.3896 -0.1362
  181SOPE   H4X20707   3.359   5.755   7.245  1.4569  2.2441 -0.1452
  181SOPE   H4Y20708   3.529   5.744   7.284  0.0833 -0.1774  1.6802
  181SOPE   C3520709   3.386   5.726   7.460  0.5654 -0.9651  0.5218
  181SOPE   H5X20710   3.282   5.690   7.473 -0.2085  1.6714  2.5487
  181SOPE   H5Y20711   3.385   5.832   7.493  0.1251 -0.8281  0.0844
  181SOPE   C3620712   3.471   5.648   7.569  0.4759 -0.3108  0.1647
  181SOPE   H6X20713   3.576   5.683   7.573  0.8099 -0.8255 -2.3045
  181SOPE   H6Y20714   3.462   5.540   7.544 -1.2974 -0.1593  0.0109
  181SOPE   C3720715   3.407   5.645   7.707 -0.2956 -0.4246  0.4857
  181SOPE   H7X20716   3.303   5.606   7.705 -0.3641 -0.2369  0.3896
  181SOPE   H7Y20717   3.412   5.750   7.744  3.5683 -0.1815 -0.3061
  181SOPE   C3820718   3.498   5.554   7.791 -0.2392  0.6581  0.0298
  181SOPE   H8X20719   3.593   5.611   7.795  2.1797 -3.0888  1.6770
  181SOPE   H8Y20720   3.523   5.466   7.729  0.3039  0.5637  0.3781
  181SOPE   C3920721   3.449   5.528   7.933  0.0629  0.5495  0.4507
  181SOPE   H9X20722   3.356   5.469   7.931  0.4019 -0.0007  0.8119
  181SOPE   H9Y20723   3.422   5.626   7.977 -1.8261  0.3533 -0.1644
  181SOPE  C31020724   3.527   5.440   8.026 -0.2715 -0.2090  0.3094
  181SOPE  H10X20725   3.629   5.481   8.036  0.5144 -2.0949  0.3381
  181SOPE  H10Y20726   3.541   5.340   7.979 -1.1228 -0.7078  1.0860
  181SOPE  C31120727   3.459   5.420   8.163 -0.1853 -0.4897 -0.9646
  181SOPE  H11X20728   3.370   5.355   8.149 -0.5719  0.0438 -1.0126
  181SOPE  H11Y20729   3.426   5.518   8.205 -0.1399 -1.0590  0.4263
  181SOPE  C31220730   3.553   5.356   8.269  0.0849  0.0193  0.6396
  181SOPE  H12X20731   3.644   5.415   8.294 -0.1334  0.7491 -0.2626
  181SOPE  H12Y20732   3.595   5.264   8.223  1.8173  1.6531 -1.2693
  181SOPE  C31320733   3.481   5.321   8.396  0.0220 -0.4874 -0.8500
  181SOPE  H13X20734   3.404   5.244   8.376  0.3274 -0.8332 -0.7192
  181SOPE  H13Y20735   3.430   5.407   8.444  0.8434 -0.3168 -0.2494
  181SOPE  C31420736   3.583   5.286   8.505  0.5056  0.7079 -0.2228
  181SOPE  H14X20737   3.532   5.305   8.602  0.5201 -0.3781  0.0053
  181SOPE  H14Y20738   3.678   5.343   8.506  0.8443  0.1895  1.9691
  181SOPE  C31520739   3.630   5.136   8.496  0.9602  0.4021 -0.1463
  181SOPE  H15X20740   3.541   5.077   8.469  1.3670  0.4164 -1.5654
  181SOPE  H15Y20741   3.652   5.100   8.599 -0.9008  0.7922  0.4145
  181SOPE  C31620742   3.762   5.122   8.426 -0.0864 -0.3155  0.4259
  181SOPE  H16X20743   3.841   5.126   8.503  0.8366  1.2794 -0.5631
  181SOPE  H16Y20744   3.771   5.202   8.350  1.4776 -0.6852  0.1966
  181SOPE  C31720745   3.783   4.992   8.347  0.0455  0.1045 -0.0067
  181SOPE  H17X20746   3.727   5.003   8.251 -0.7846  0.0056  0.4578
  181SOPE  H17Y20747   3.751   4.904   8.407  1.8484 -1.9113 -1.8062
  181SOPE  C31820748   3.923   4.952   8.296 -0.4160 -0.4252  0.5087
  181SOPE  H18X20749   3.937   4.847   8.264 -0.7053 -1.2695  2.9121
  181SOPE  H18Y20750   3.994   4.960   8.381 -0.3436  0.6023  0.3716
  181SOPE  H18Z20751   3.938   5.021   8.210 -0.1905 -0.7150  0.3143
  182SOPE     N20752   5.246   2.984   6.076  0.1515  0.4661 -0.5924
  182SOPE   HN120753   5.205   2.924   6.002 -2.7100  2.9739 -1.2546
  182SOPE   HN220754   5.207   3.081   6.075  2.0289  1.2623 -0.4975
  182SOPE   HN320755   5.350   2.986   6.070  0.3825 -1.3297  1.4773
  182SOPE   C1220756   5.202   2.920   6.210 -0.1422 -0.3203  0.1639
  182SOPE  H12A20757   5.244   2.817   6.211 -1.5011 -0.9687 -1.8885
  182SOPE  H12B20758   5.092   2.928   6.204 -0.0363  1.9540  0.6074
  182SOPE   C1120759   5.259   2.997   6.327  0.3037 -0.3992  0.7367
  182SOPE  H11A20760   5.220   2.945   6.417  1.1129 -0.0383  1.3078
  182SOPE  H11B20761   5.212   3.097   6.335  1.2770  0.3155 -1.5887
  182SOPE     P20762   5.486   3.138   6.312  0.7548 -0.1762 -0.1987
  182SOPE   O1320763   5.433   3.223   6.202 -0.1516  0.2381 -0.4790
  182SOPE   O1420764   5.633   3.113   6.305  0.4016 -0.2221 -0.0377
  182SOPE   O1220765   5.405   3.000   6.338 -0.6558 -0.4778 -0.2448
  182SOPE   O1120766   5.456   3.207   6.448  0.0756 -0.2202  0.7188
  182SOPE    C120767   5.450   3.125   6.566  0.2829 -0.3694  0.4866
  182SOPE    HA20768   5.548   3.074   6.575  1.0017  1.0040  0.7374
  182SOPE    HB20769   5.360   3.059   6.565 -1.4468  1.8337 -1.0501
  182SOPE    C220770   5.418   3.209   6.695 -0.5380 -0.0357 -0.0382
  182SOPE    HS20771   5.511   3.264   6.721 -0.3241 -0.6987  0.6508
  182SOPE   O2120772   5.377   3.113   6.793  0.3567 -0.5257  0.4131
  182SOPE   C2120773   5.383   3.161   6.918 -0.4667  0.5626  0.7196
  182SOPE   O2220774   5.431   3.270   6.948  0.3515 -0.3079  0.4452
  182SOPE   C2220775   5.321   3.071   7.022 -0.0784  0.0188  0.0043
  182SOPE   H2R20776   5.357   2.968   7.005 -0.5244  0.0815 -1.4961
  182SOPE   H2S20777   5.211   3.079   7.005 -0.0552 -1.5025 -1.0001
  182SOPE    C320778   5.304   3.315   6.661 -0.0369 -0.0375  0.4625
  182SOPE    HX20779   5.212   3.259   6.633 -0.3021  0.8470 -0.5243
  182SOPE    HY20780   5.338   3.374   6.573  0.2526  1.4045  1.4998
  182SOPE   O3120781   5.272   3.400   6.774 -0.3375  0.0010 -0.5158
  182SOPE   C3120782   5.327   3.518   6.778 -1.2626  0.2186  0.3217
  182SOPE   O3220783   5.401   3.566   6.688  0.9668  0.1657  0.1450
  182SOPE   C3220784   5.301   3.604   6.906  0.0581  0.1884  0.4922
  182SOPE   H2X20785   5.341   3.540   6.987  1.4365  2.5081  1.7571
  182SOPE   H2Y20786   5.191   3.615   6.898  0.2276  0.3375 -2.6773
  182SOPE   C2320787   5.345   3.109   7.167  0.8248  0.5677 -1.5674
  182SOPE   H3R20788   5.288   3.201   7.192  0.0642 -0.4262  0.5850
  182SOPE   H3S20789   5.449   3.138   7.193 -0.1539  1.7476  1.4464
  182SOPE   C2420790   5.301   3.005   7.271 -0.0885  0.6563  0.2892
  182SOPE   H4R20791   5.212   2.945   7.243  0.5041  0.2067 -0.6928
  182SOPE   H4S20792   5.379   2.928   7.289 -0.4510  0.4763  1.1366
  182SOPE   C2520793   5.267   3.076   7.401  0.5361 -0.2677 -0.2446
  182SOPE   H5R20794   5.345   3.154   7.417 -0.6550  1.1217 -0.9056
  182SOPE   H5S20795   5.174   3.131   7.375  1.0799 -0.2208 -2.2874
  182SOPE   C2620796   5.240   2.996   7.527 -0.3802  0.2632  0.5917
  182SOPE   H6R20797   5.207   3.063   7.609  0.2595  0.9476  0.3097
  182SOPE   H6S20798   5.160   2.921   7.511 -0.9332  0.7030  1.2162
  182SOPE   C2720799   5.368   2.932   7.581  0.0950  0.6625 -0.0711
  182SOPE   H7R20800   5.407   2.871   7.497 -0.0757  1.6959 -0.9348
  182SOPE   H7S20801   5.442   3.015   7.592  0.6166  0.6283 -2.6471
  182SOPE   C2820802   5.340   2.833   7.697 -0.6759 -0.5295 -0.5297
  182SOPE   H8R20803   5.248   2.772   7.684 -1.6360  0.8865 -0.7163
  182SOPE   H8S20804   5.424   2.764   7.714 -0.0441  0.2993 -0.1988
  182SOPE   C2920805   5.328   2.926   7.815  0.0602  0.7067 -0.3163
  182SOPE   H9120806   5.428   2.968   7.835  0.8695 -1.1719 -0.2072
  182SOPE  C21020807   5.214   2.973   7.877 -0.3740 -0.1061 -0.6638
  182SOPE  H10120808   5.227   3.053   7.952  3.1507  0.6967 -1.9091
  182SOPE  C21120809   5.072   2.943   7.848  0.0925 -0.0676 -0.4496
  182SOPE  H11R20810   5.063   2.930   7.738  1.0767 -0.0077 -0.5443
  182SOPE  H11S20811   5.011   3.034   7.871  1.8494  1.2078 -0.6343
  182SOPE  C21220812   5.011   2.817   7.920  0.0704  0.2907 -0.4673
  182SOPE  H12R20813   5.081   2.731   7.916 -2.8776 -2.2477 -1.7882
  182SOPE  H12S20814   4.914   2.782   7.876  0.4587  0.6416 -1.6594
  182SOPE  C21320815   4.986   2.843   8.073  0.1827  0.4280  0.4179
  182SOPE  H13R20816   4.913   2.926   8.087 -0.9309 -0.6557  1.3569
  182SOPE  H13S20817   5.075   2.893   8.117 -0.7329  2.6013 -0.0273
  182SOPE  C21420818   4.938   2.728   8.149  0.1170  0.0576 -0.4741
  182SOPE  H14R20819   5.019   2.652   8.152 -0.2063 -0.2520  0.8665
  182SOPE  H14S20820   4.848   2.685   8.100  0.1238  2.2833 -2.6478
  182SOPE  C21520821   4.906   2.757   8.295  0.3234 -0.7331 -0.3707
  182SOPE  H15R20822   4.834   2.841   8.295  0.3263 -0.7007 -2.0547
  182SOPE  H15S20823   4.996   2.787   8.353 -0.9660  1.2917  0.6694
  182SOPE  C21620824   4.831   2.646   8.368  0.8104  0.2270 -0.7369
  182SOPE  H16R20825   4.758   2.604   8.295  0.8355  2.4747 -2.1387
  182SOPE  H16S20826   4.773   2.693   8.451  0.5551  1.9398 -1.8247
  182SOPE  C21720827   4.918   2.554   8.447 -0.0965 -0.7966  0.4654
  182SOPE  H17R20828   4.978   2.618   8.515  0.5243 -2.1709  1.2666
  182SOPE  H17S20829   4.999   2.510   8.385  2.0738  1.5199  1.4794
  182SOPE  C21820830   4.850   2.445   8.520  0.4673 -0.1019 -0.2500
  182SOPE  H18R20831   4.748   2.467   8.559  0.8838 -0.3546  1.0121
  182SOPE  H18S20832   4.901   2.403   8.610  1.5057  0.1255 -0.7179
  182SOPE  H18T20833   4.847   2.352   8.458  1.0639 -0.7448  0.6623
  182SOPE   C3320834   5.368   3.748   6.911  0.3557  0.1180 -0.6706
  182SOPE   H3X20835   5.353   3.794   6.811 -2.6462 -1.8027 -1.2160
  182SOPE   H3Y20836   5.474   3.737   6.945 -0.3207 -0.6210  1.3539
  182SOPE   C3420837   5.300   3.846   7.016 -0.1454 -0.3442 -0.0205
  182SOPE   H4X20838   5.194   3.851   6.986  0.5142 -0.4766 -2.5847
  182SOPE   H4Y20839   5.351   3.945   7.013  0.4217 -0.5845  1.1183
  182SOPE   C3520840   5.305   3.795   7.159 -0.1631 -0.5372  0.4319
  182SOPE   H5X20841   5.404   3.806   7.208  0.0160  0.9401 -0.2069
  182SOPE   H5Y20842   5.288   3.685   7.171 -0.8281 -0.2705  2.4240
  182SOPE   C3620843   5.199   3.870   7.253 -0.4016  0.7143  0.6941
  182SOPE   H6X20844   5.103   3.815   7.240  0.4859 -1.0107  1.0811
  182SOPE   H6Y20845   5.190   3.974   7.216 -1.0751 -0.4459 -2.8350
  182SOPE   C3720846   5.247   3.852   7.404  0.7380 -0.0418  0.4109
  182SOPE   H7X20847   5.348   3.895   7.415  1.4620 -1.3496 -0.7751
  182SOPE   H7Y20848   5.258   3.742   7.418  0.1177 -0.2030 -0.2653
  182SOPE   C3820849   5.139   3.909   7.493  0.2769 -0.0494  0.9268
  182SOPE   H8X20850   5.048   3.846   7.492 -0.4300  0.9558  0.7799
  182SOPE   H8Y20851   5.131   4.014   7.458 -1.2163 -0.2192  0.6985
  182SOPE   C3920852   5.197   3.907   7.636  0.0315 -0.5765  0.2473
  182SOPE   H9X20853   5.306   3.927   7.643 -0.0639 -0.4543  1.7964
  182SOPE   H9Y20854   5.183   3.801   7.666  0.5342 -1.0837 -1.2423
  182SOPE  C31020855   5.131   3.995   7.741  0.7581  0.1758 -0.2995
  182SOPE  H10X20856   5.030   3.950   7.752  0.0706  0.9950 -2.7027
  182SOPE  H10Y20857   5.119   4.100   7.707  0.0253  0.7904  1.7274
  182SOPE  C31120858   5.204   4.005   7.876 -0.3470  0.7139 -0.3872
  182SOPE  H11X20859   5.293   4.070   7.865 -0.7384  1.6761  1.6460
  182SOPE  H11Y20860   5.241   3.904   7.902 -1.0405  0.1714 -1.4556
  182SOPE  C31220861   5.122   4.056   7.997  0.4152 -0.3159  0.1861
  182SOPE  H12X20862   5.033   3.991   8.003 -0.3534  0.7121  0.1626
  182SOPE  H12Y20863   5.097   4.162   7.976  1.4731  0.2484  1.6095
  182SOPE  C31320864   5.204   4.054   8.130 -0.2096  1.0186  0.0734
  182SOPE  H13X20865   5.270   4.142   8.146 -2.0911  2.3322  0.9653
  182SOPE  H13Y20866   5.277   3.971   8.117  0.0382  1.1173  0.7697
  182SOPE  C31420867   5.121   4.023   8.254 -0.0565  0.4459 -0.7559
  182SOPE  H14X20868   5.074   3.922   8.245  1.2475 -0.1222 -1.5425
  182SOPE  H14Y20869   5.040   4.098   8.267  1.3374  1.6634  1.5846
  182SOPE  C31520870   5.203   4.052   8.386 -0.0866 -0.2658  0.4356
  182SOPE  H15X20871   5.225   4.161   8.378 -1.2350  0.0932  1.6286
  182SOPE  H15Y20872   5.301   4.000   8.395 -0.0863 -0.0327  2.1048
  182SOPE  C31620873   5.119   4.034   8.514 -0.4843 -0.3117 -0.9283
  182SOPE  H16X20874   5.087   3.928   8.524 -0.8405 -0.2271 -1.1349
  182SOPE  H16Y20875   5.028   4.097   8.511 -1.3357 -1.4172  0.6090
  182SOPE  C31720876   5.203   4.070   8.641 -0.4041  0.3187  0.3209
  182SOPE  H17X20877   5.251   4.170   8.639 -1.3829  0.8061  0.5638
  182SOPE  H17Y20878   5.274   3.988   8.665 -0.2065 -0.0719 -1.4399
  182SOPE  C31820879   5.115   4.063   8.767 -0.4491  0.1497 -1.0279
  182SOPE  H18X20880   5.068   3.964   8.787 -0.4755  0.4398  0.4856
  182SOPE  H18Y20881   5.034   4.139   8.765 -0.4264  0.1599 -1.7671
  182SOPE  H18Z20882   5.168   4.081   8.863 -0.6746  1.0290 -1.0561
  183SOPE     N20883   1.286   6.665   6.372  0.3929 -0.4118  0.3833
  183SOPE   HN120884   1.361   6.625   6.312  0.0758 -0.1871 -0.1707
  183SOPE   HN220885   1.215   6.597   6.406 -0.7721  0.5892  0.0466
  183SOPE   HN320886   1.254   6.756   6.333 -0.8789 -0.0957  2.0248
  183SOPE   C1220887   1.354   6.704   6.500 -0.1228 -0.8803 -0.9127
  183SOPE  H12A20888   1.420   6.619   6.528 -1.2804 -0.8099  2.4151
  183SOPE  H12B20889   1.272   6.717   6.574 -1.4251 -0.0546 -2.4437
  183SOPE   C1120890   1.437   6.837   6.495 -0.3687  0.3130  0.3192
  183SOPE  H11A20891   1.523   6.823   6.426 -0.2772 -0.2044  0.5309
  183SOPE  H11B20892   1.467   6.854   6.601  0.4715  1.3766 -0.0674
  183SOPE     P20893   1.300   7.055   6.546 -0.1534 -0.0819  0.2360
  183SOPE   O1320894   1.196   6.997   6.638 -0.4014  0.5152  0.5417
  183SOPE   O1420895   1.255   7.171   6.468 -0.6526 -0.4991  0.0471
  183SOPE   O1220896   1.364   6.949   6.445  0.2350 -0.4795 -0.5305
  183SOPE   O1120897   1.422   7.100   6.631  0.1862  0.0535 -0.2861
  183SOPE    C120898   1.538   7.144   6.562  0.2199  0.0602  0.5162
  183SOPE    HA20899   1.512   7.217   6.483  0.5033 -0.9056 -0.4910
  183SOPE    HB20900   1.596   7.060   6.518  0.0281 -0.0936  0.5525
  183SOPE    C220901   1.620   7.214   6.665  0.1730  0.2837 -0.8892
  183SOPE    HS20902   1.719   7.248   6.626  0.5039 -1.3604 -1.6069
  183SOPE   O2120903   1.645   7.128   6.787  0.3527  0.0300 -0.0259
  183SOPE   C2120904   1.760   7.062   6.791 -0.8786  0.3935  0.4813
  183SOPE   O2220905   1.844   7.064   6.700 -0.6818 -0.0915 -1.1024
  183SOPE   C2220906   1.767   6.992   6.920  0.5336 -0.2086  0.0932
  183SOPE   H2R20907   1.855   6.926   6.935 -0.3133 -1.1111  1.3289
  183SOPE   H2S20908   1.677   6.926   6.920  0.0335  0.4635 -0.2143
  183SOPE    C320909   1.547   7.345   6.708 -0.0041  0.2088  0.1034
  183SOPE    HX20910   1.448   7.310   6.746  0.2662 -1.6254 -0.7435
  183SOPE    HY20911   1.513   7.404   6.620  3.0226 -2.0072 -2.7987
  183SOPE   O3120912   1.619   7.416   6.811  0.3146  0.1809 -0.0349
  183SOPE   C3120913   1.597   7.400   6.937  0.3260  0.4398  0.3882
  183SOPE   O3220914   1.499   7.344   6.984 -0.3589  0.2519 -1.0004
  183SOPE   C3220915   1.692   7.488   7.032  0.5131 -0.3471 -0.2104
  183SOPE   H2X20916   1.667   7.589   6.994 -3.0552 -0.9512  0.1750
  183SOPE   H2Y20917   1.799   7.459   7.021 -0.0887 -2.8082 -0.1193
  183SOPE   C2320918   1.754   7.088   7.038  0.7192 -0.2339  0.0444
  183SOPE   H3R20919   1.651   7.129   7.043  0.3083 -1.1923 -0.2410
  183SOPE   H3S20920   1.820   7.176   7.022  3.8127 -2.3962  0.1286
  183SOPE   C2420921   1.790   7.037   7.172 -0.4823 -0.2799 -0.2909
  183SOPE   H4R20922   1.707   6.971   7.206 -1.7148  1.3691  0.0339
  183SOPE   H4S20923   1.884   6.979   7.165 -1.3576 -1.8677  0.4259
  183SOPE   C2520924   1.804   7.154   7.272 -0.4245  0.2828 -0.0934
  183SOPE   H5R20925   1.854   7.246   7.235 -0.4906  1.2316  2.0393
  183SOPE   H5S20926   1.699   7.188   7.287 -0.7787 -0.1776 -1.4191
  183SOPE   C2620927   1.877   7.113   7.401  0.2835  0.1392 -0.7006
  183SOPE   H6R20928   1.801   7.056   7.458 -0.6901  0.1472 -1.9428
  183SOPE   H6S20929   1.975   7.066   7.379  0.2235  0.6301 -2.1097
  183SOPE   C2720930   1.892   7.246   7.482  0.8230  0.1309  0.8063
  183SOPE   H7R20931   1.971   7.310   7.437 -0.7480  0.9715 -0.8824
  183SOPE   H7S20932   1.797   7.302   7.469  2.4773  3.5139  1.8291
  183SOPE   C2820933   1.931   7.239   7.630  0.3371  0.9896  0.1538
  183SOPE   H8R20934   1.943   7.342   7.670  2.6682  1.3842 -1.3813
  183SOPE   H8S20935   1.851   7.189   7.689 -1.5338  1.6854 -1.6460
  183SOPE   C2920936   2.066   7.172   7.655 -0.4190 -0.9350  0.0580
  183SOPE   H9120937   2.147   7.247   7.658 -0.9008 -0.3891 -0.2653
  183SOPE  C21020938   2.105   7.049   7.681 -0.2372  0.3982 -0.2532
  183SOPE  H10120939   2.209   7.022   7.703  0.4361  2.2393 -0.9485
  183SOPE  C21120940   2.007   6.931   7.691  0.0558 -0.1408 -0.4707
  183SOPE  H11R20941   2.052   6.841   7.644  2.1450 -0.5847  2.1588
  183SOPE  H11S20942   1.910   6.959   7.644  0.8482  0.3883 -1.8644
  183SOPE  C21220943   1.974   6.876   7.828  0.0249  0.1751 -1.5287
  183SOPE  H12R20944   2.071   6.870   7.882 -1.7995  1.1729  2.1909
  183SOPE  H12S20945   1.935   6.772   7.830  0.9711 -0.1771 -0.7256
  183SOPE  C21320946   1.890   6.963   7.925 -0.0652 -0.1720  0.7819
  183SOPE  H13R20947   1.800   6.990   7.866  2.4592 -1.2091 -4.0000
  183SOPE  H13S20948   1.948   7.051   7.961  0.1510 -1.1570  3.0092
  183SOPE  C21420949   1.860   6.895   8.057 -0.7076  0.2372 -0.2998
  183SOPE  H14R20950   1.813   6.797   8.034  2.7589 -1.9885  1.1482
  183SOPE  H14S20951   1.803   6.959   8.127  1.2464  0.3249  1.3110
  183SOPE  C21520952   1.977   6.864   8.144 -0.6917  0.2361  0.0616
  183SOPE  H15R20953   2.046   6.790   8.098  0.7290  1.8764 -0.5933
  183SOPE  H15S20954   1.939   6.823   8.240 -0.5043 -1.8987 -0.7225
  183SOPE  C21620955   2.067   6.983   8.196  0.0614  0.6044  0.1521
  183SOPE  H16R20956   1.983   7.047   8.229 -2.2403 -2.8373  1.5549
  183SOPE  H16S20957   2.119   7.047   8.121 -2.5994  1.4540 -1.0903
  183SOPE  C21720958   2.160   6.950   8.314  0.9964 -0.0297 -0.2430
  183SOPE  H17R20959   2.242   6.878   8.292  1.6610 -1.0075  4.3761
  183SOPE  H17S20960   2.101   6.910   8.399 -2.0615  2.2493 -1.1146
  183SOPE  C21820961   2.229   7.077   8.371  0.5676 -0.0516  0.1299
  183SOPE  H18R20962   2.147   7.151   8.380 -1.0122 -1.8267  1.1759
  183SOPE  H18S20963   2.312   7.109   8.305  0.8111 -2.0861 -0.6425
  183SOPE  H18T20964   2.272   7.056   8.472  1.2157  0.2142 -0.0845
  183SOPE   C3320965   1.643   7.486   7.175  0.1789 -0.2615 -0.5306
  183SOPE   H3X20966   1.668   7.394   7.233 -1.3803 -0.9011 -0.8206
  183SOPE   H3Y20967   1.532   7.495   7.177  0.3158  1.6901  0.9929
  183SOPE   C3420968   1.698   7.603   7.261  0.4588 -0.1145  0.2887
  183SOPE   H4X20969   1.676   7.704   7.222 -0.1759 -1.4938 -3.2850
  183SOPE   H4Y20970   1.805   7.586   7.236  0.1056 -0.5440 -1.0130
  183SOPE   C3520971   1.667   7.602   7.401  0.4281  1.0209  0.0448
  183SOPE   H5X20972   1.680   7.505   7.454 -2.8537  1.3745  1.7434
  183SOPE   H5Y20973   1.558   7.616   7.413  0.5313  1.2555  0.7879
  183SOPE   C3620974   1.727   7.720   7.490 -0.3758 -0.5349  0.2346
  183SOPE   H6X20975   1.684   7.816   7.456  2.2673  1.2286  1.5250
  183SOPE   H6Y20976   1.836   7.723   7.466 -0.3116 -2.6628  0.0776
  183SOPE   C3720977   1.710   7.719   7.642  0.3846 -0.2932  0.0855
  183SOPE   H7X20978   1.605   7.688   7.662  0.2737 -1.3162 -1.8066
  183SOPE   H7Y20979   1.715   7.819   7.690  0.8881 -0.6798  0.8581
  183SOPE   C3820980   1.812   7.623   7.715 -0.4327 -0.4784  0.0246
  183SOPE   H8X20981   1.917   7.656   7.698 -0.4716  1.0054  2.1859
  183SOPE   H8Y20982   1.793   7.522   7.674  2.7237 -0.9775 -0.4902
  183SOPE   C3920983   1.790   7.619   7.863 -0.1306  0.0275 -0.2035
  183SOPE   H9X20984   1.682   7.598   7.881  0.4607 -2.3060  0.9490
  183SOPE   H9Y20985   1.819   7.719   7.902  1.7639 -0.3767 -0.5074
  183SOPE  C31020986   1.869   7.503   7.931 -0.5797 -0.2592 -0.6829
  183SOPE  H10X20987   1.824   7.405   7.906 -2.5369 -0.1812  2.0806
  183SOPE  H10Y20988   1.839   7.522   8.036  2.5180  1.1688  0.0724
  183SOPE  C31120989   2.017   7.507   7.922  0.1327 -0.0475  0.7628
  183SOPE  H11X20990   2.060   7.605   7.952  0.0200  0.0828  0.5053
  183SOPE  H11Y20991   2.033   7.501   7.812  0.7456  2.1727  0.6734
  183SOPE  C31220992   2.090   7.400   7.998 -0.1314 -0.1422 -0.7654
  183SOPE  H12X20993   2.039   7.302   7.982 -1.4315  0.6645 -1.7282
  183SOPE  H12Y20994   2.084   7.424   8.106  0.6551  0.7369 -0.9013
  183SOPE  C31320995   2.239   7.390   7.952 -0.1862  0.2321  0.1998
  183SOPE  H13X20996   2.277   7.494   7.962  0.6460 -0.0773  0.4432
  183SOPE  H13Y20997   2.231   7.349   7.849 -0.6845 -0.0852  0.3652
  183SOPE  C31420998   2.329   7.298   8.042  0.1511  0.0483  0.4433
  183SOPE  H14X20999   2.264   7.211   8.066 -1.4894  1.2359  0.5170
  183SOPE  H14Y21000   2.342   7.352   8.138 -0.5805 -0.6421  0.9444
  183SOPE  C31521001   2.465   7.267   7.980 -0.1165  0.4635 -0.2185
  183SOPE  H15X21002   2.520   7.361   7.961  2.4213 -1.0430 -0.7191
  183SOPE  H15Y21003   2.445   7.226   7.879 -1.2614 -0.0163  0.1720
  183SOPE  C31621004   2.542   7.169   8.068 -0.2806  0.0199 -0.6800
  183SOPE  H16X21005   2.488   7.072   8.072 -0.5383  0.1597  2.8106
  183SOPE  H16Y21006   2.547   7.213   8.170  3.3983  0.4267 -0.9059
  183SOPE  C31721007   2.692   7.159   8.038 -0.1988  0.3075  0.5495
  183SOPE  H17X21008   2.733   7.262   8.033 -0.9647  0.6281  0.6773
  183SOPE  H17Y21009   2.693   7.121   7.933 -1.0833  0.9838  0.2750
  183SOPE  C31821010   2.753   7.062   8.135 -0.1049  1.0203 -0.0210
  183SOPE  H18X21011   2.701   6.965   8.122  1.0870  0.4759 -0.7941
  183SOPE  H18Y21012   2.738   7.101   8.239  1.6573  1.5701  0.0678
  183SOPE  H18Z21013   2.863   7.054   8.125 -0.2389 -0.4093 -0.5458
  184SOPE     N21014   0.977   1.907   6.314 -0.0573  0.4983  0.0923
  184SOPE   HN121015   0.957   2.003   6.281 -1.6062 -0.4049 -1.7787
  184SOPE   HN221016   0.913   1.845   6.261  0.8057  1.0310 -1.6381
  184SOPE   HN321017   0.957   1.889   6.415 -1.9661  1.0596 -0.1467
  184SOPE   C1221018   1.118   1.857   6.280 -0.1669 -0.1275  0.4698
  184SOPE  H12A21019   1.183   1.939   6.315 -2.1744  1.0580  1.6149
  184SOPE  H12B21020   1.124   1.865   6.169  0.2880  2.6332  0.6419
  184SOPE   C1121021   1.136   1.722   6.350 -0.0781 -0.6458 -0.1799
  184SOPE  H11A21022   1.131   1.731   6.461  3.9300 -3.2312  0.4020
  184SOPE  H11B21023   1.245   1.703   6.344 -0.2400 -2.8538  2.0746
  184SOPE     P21024   1.093   1.485   6.260  0.2471  0.3676 -0.0259
  184SOPE   O1321025   1.201   1.514   6.165  0.1993  0.0210 -0.5280
  184SOPE   O1421026   0.979   1.403   6.222 -0.1170  0.0340  0.1323
  184SOPE   O1221027   1.040   1.624   6.307 -0.1522  0.6055 -0.2442
  184SOPE   O1121028   1.161   1.417   6.384  0.1890 -0.2811 -0.1326
  184SOPE    C121029   1.095   1.389   6.509  0.7894 -0.3766  0.0972
  184SOPE    HA21030   1.126   1.290   6.548  0.7401 -0.5065 -0.1886
  184SOPE    HB21031   0.985   1.378   6.497  0.9765 -0.1289 -2.3664
  184SOPE    C221032   1.101   1.489   6.624 -0.5439 -0.7277 -0.6155
  184SOPE    HS21033   1.051   1.582   6.590 -3.0857 -1.1124  1.6967
  184SOPE   O2121034   1.239   1.497   6.659  0.9817  0.5248  0.1950
  184SOPE   C2121035   1.283   1.620   6.692 -0.3969  0.1402 -0.2801
  184SOPE   O2221036   1.212   1.714   6.701 -0.0377 -0.3583  0.0568
  184SOPE   C2221037   1.436   1.630   6.711 -0.6955  0.7868 -0.7098
  184SOPE   H2R21038   1.469   1.696   6.628  1.3953 -1.8609 -2.1257
  184SOPE   H2S21039   1.483   1.532   6.689  0.5694  0.9824  0.9014
  184SOPE    C321040   1.034   1.440   6.754 -0.2901 -0.1972  0.0196
  184SOPE    HX21041   1.070   1.335   6.761  0.1997 -0.0037  0.5226
  184SOPE    HY21042   0.925   1.440   6.734 -0.3894  2.8083  0.0355
  184SOPE   O3121043   1.062   1.522   6.872 -0.1347 -0.1222 -0.0994
  184SOPE   C3121044   0.973   1.621   6.893 -0.6064  0.4293 -0.4211
  184SOPE   O3221045   0.884   1.663   6.817 -0.1489 -0.2549  0.0155
  184SOPE   C3221046   1.024   1.680   7.028 -0.6627 -0.7950 -0.1521
  184SOPE   H2X21047   1.134   1.672   7.036 -0.6312  0.7224  1.8320
  184SOPE   H2Y21048   0.988   1.611   7.108 -0.2982  0.0410  0.7540
  184SOPE   C2321049   1.490   1.675   6.847 -0.2972  0.1440 -0.4806
  184SOPE   H3R21050   1.474   1.783   6.863  1.2063  0.2403  0.5741
  184SOPE   H3S21051   1.600   1.662   6.850 -0.2979 -0.5623  4.6471
  184SOPE   C2421052   1.436   1.590   6.961  0.1790  0.0594  0.3011
  184SOPE   H4R21053   1.327   1.609   6.952  0.0418 -1.3303 -1.7665
  184SOPE   H4S21054   1.440   1.479   6.952 -1.8287 -0.3541  3.1968
  184SOPE   C2521055   1.500   1.630   7.098  0.3930 -0.2115 -1.2824
  184SOPE   H5R21056   1.610   1.612   7.103  0.4767  0.6057  0.4622
  184SOPE   H5S21057   1.474   1.738   7.104 -1.4064 -0.5931 -1.8371
  184SOPE   C2621058   1.414   1.571   7.215  0.2970  1.5160 -0.3090
  184SOPE   H6R21059   1.307   1.570   7.187 -0.0841 -2.6489  0.6801
  184SOPE   H6S21060   1.439   1.463   7.222 -0.0554  1.2276 -2.8095
  184SOPE   C2721061   1.440   1.641   7.354  0.2525 -0.4993 -0.2420
  184SOPE   H7R21062   1.437   1.751   7.338 -0.6642 -0.5904 -0.7521
  184SOPE   H7S21063   1.357   1.618   7.424 -0.1456  1.4452 -0.0297
  184SOPE   C2821064   1.572   1.593   7.419  0.2079 -0.3150 -0.1024
  184SOPE   H8R21065   1.646   1.598   7.336 -0.6601  0.4779 -0.8529
  184SOPE   H8S21066   1.604   1.673   7.490 -0.8142  0.7329 -0.7910
  184SOPE   C2921067   1.563   1.456   7.478 -0.1299  0.4835  0.1151
  184SOPE   H9121068   1.587   1.374   7.409 -0.9240  3.0865 -3.5672
  184SOPE  C21021069   1.528   1.433   7.608  0.2660 -0.2765 -0.1385
  184SOPE  H10121070   1.503   1.331   7.640 -1.6172  0.0918 -0.3143
  184SOPE  C21121071   1.497   1.540   7.710 -0.0303 -0.8344 -0.5961
  184SOPE  H11R21072   1.413   1.505   7.773  0.3272  0.9227  0.9556
  184SOPE  H11S21073   1.461   1.628   7.652  0.7550 -0.4475 -0.5073
  184SOPE  C21221074   1.626   1.573   7.801  0.8731  0.0496 -0.2935
  184SOPE  H12R21075   1.690   1.637   7.737 -0.4122  0.3433 -1.3217
  184SOPE  H12S21076   1.692   1.484   7.810  1.0456  0.0284 -1.5667
  184SOPE  C21321077   1.608   1.637   7.937  0.1849 -0.2245 -0.0464
  184SOPE  H13R21078   1.546   1.566   7.996 -0.7769  0.8907  0.3247
  184SOPE  H13S21079   1.548   1.730   7.929  2.8913  1.6682  0.1223
  184SOPE  C21421080   1.740   1.662   8.014  0.0307 -0.2248  0.1390
  184SOPE  H14R21081   1.802   1.741   7.965 -0.5818  1.7317  2.3178
  184SOPE  H14S21082   1.796   1.566   8.015 -0.3308 -0.5020 -2.3655
  184SOPE  C21521083   1.714   1.699   8.158 -0.0476 -0.3007  0.1086
  184SOPE  H15R21084   1.634   1.776   8.173  0.1047 -0.3897  1.5082
  184SOPE  H15S21085   1.808   1.737   8.204 -0.8487  0.4905  1.1535
  184SOPE  C21621086   1.664   1.573   8.232  0.3841 -0.2236 -1.0322
  184SOPE  H16R21087   1.727   1.485   8.211  0.2723 -0.3863 -0.6985
  184SOPE  H16S21088   1.556   1.552   8.215 -0.9011  3.2900  1.6094
  184SOPE  C21721089   1.677   1.590   8.386 -0.2944 -0.9793 -0.6563
  184SOPE  H17R21090   1.606   1.517   8.430  0.3151 -0.0852  1.9440
  184SOPE  H17S21091   1.640   1.693   8.406 -0.7637 -1.6650  2.3994
  184SOPE  C21821092   1.824   1.582   8.437  0.3310 -0.2746 -0.0922
  184SOPE  H18R21093   1.858   1.477   8.423  1.6943  0.4411 -2.7090
  184SOPE  H18S21094   1.825   1.595   8.548  2.2756 -3.8112  0.4612
  184SOPE  H18T21095   1.883   1.660   8.385 -1.2670  2.0216  1.3181
  184SOPE   C3321096   0.973   1.826   7.050 -0.3856  0.2042  0.2179
  184SOPE   H3X21097   0.866   1.835   7.018 -0.0899 -1.0709 -1.3145
  184SOPE   H3Y21098   1.019   1.894   6.975  2.3424 -0.9886  0.7089
  184SOPE   C3421099   0.992   1.863   7.192  0.3754  0.0438 -0.1539
  184SOPE   H4X21100   0.915   1.816   7.257 -2.6759  2.7592 -1.5136
  184SOPE   H4Y21101   0.969   1.972   7.193 -2.6582 -0.5119 -0.3778
  184SOPE   C3521102   1.119   1.836   7.265  0.1824  0.2805  0.4841
  184SOPE   H5X21103   1.211   1.861   7.209 -0.0294 -2.5217 -1.3019
  184SOPE   H5Y21104   1.134   1.728   7.285 -0.4951 -0.1391 -1.1913
  184SOPE   C3621105   1.125   1.893   7.406  0.1083  0.4261 -0.0022
  184SOPE   H6X21106   1.205   1.844   7.465  0.8170  0.8608 -0.5947
  184SOPE   H6Y21107   1.029   1.865   7.456  0.0213  0.8715  0.0840
  184SOPE   C3721108   1.166   2.038   7.408 -0.2085 -0.2073  0.5870
  184SOPE   H7X21109   1.110   2.085   7.323 -1.9529 -2.8192  0.1809
  184SOPE   H7Y21110   1.273   2.057   7.386  0.5141 -2.3656  1.9759
  184SOPE   C3821111   1.115   2.116   7.530 -0.1468 -0.4589  0.1023
  184SOPE   H8X21112   1.017   2.072   7.560 -0.4775  0.8961  1.1033
  184SOPE   H8Y21113   1.095   2.223   7.508 -0.7495 -0.9970 -2.2267
  184SOPE   C3921114   1.219   2.116   7.644 -0.0156 -0.3776 -0.3563
  184SOPE   H9X21115   1.192   2.200   7.712  0.2860 -0.7375  0.2123
  184SOPE   H9Y21116   1.317   2.148   7.602  1.3189 -0.7959  2.2722
  184SOPE  C31021117   1.207   1.995   7.730 -0.5000  0.4207  0.1858
  184SOPE  H10X21118   1.288   1.925   7.699 -1.8096 -1.2835  0.4420
  184SOPE  H10Y21119   1.121   1.927   7.711  1.2977 -1.8974 -0.1192
  184SOPE  C31121120   1.223   2.024   7.885  0.5569  0.2982 -0.4657
  184SOPE  H11X21121   1.209   1.929   7.941  0.5762 -0.6741 -2.0534
  184SOPE  H11Y21122   1.127   2.079   7.899 -0.3216  0.0450 -4.2768
  184SOPE  C31221123   1.356   2.099   7.925 -0.3576  0.5117  0.2657
  184SOPE  H12X21124   1.382   2.181   7.854 -0.7903 -1.5126 -2.4016
  184SOPE  H12Y21125   1.439   2.024   7.923 -0.8004  0.0089  0.5901
  184SOPE  C31321126   1.336   2.157   8.067 -0.2099 -0.5376  0.3293
  184SOPE  H13X21127   1.267   2.090   8.122  0.6374 -2.5918 -0.9546
  184SOPE  H13Y21128   1.293   2.259   8.061 -0.0873 -0.4822  0.3939
  184SOPE  C31421129   1.475   2.161   8.142 -0.8744  0.1242  0.2956
  184SOPE  H14X21130   1.535   2.253   8.128 -0.3825 -0.1198  0.7612
  184SOPE  H14Y21131   1.535   2.072   8.114  1.2735  1.7582 -0.5414
  184SOPE  C31521132   1.453   2.156   8.292 -0.8527 -0.3858  0.7570
  184SOPE  H15X21133   1.550   2.128   8.338 -0.4750 -0.9913 -0.3638
  184SOPE  H15Y21134   1.381   2.073   8.310 -0.2730 -1.2279 -0.6401
  184SOPE  C31621135   1.403   2.294   8.345  0.0611 -0.8267  0.1273
  184SOPE  H16X21136   1.310   2.318   8.291  1.2093  2.5946 -0.5655
  184SOPE  H16Y21137   1.490   2.353   8.307 -0.3801  0.4967  1.1027
  184SOPE  C31721138   1.385   2.306   8.497 -0.4336  0.7031  0.7971
  184SOPE  H17X21139   1.289   2.254   8.520  0.8799 -2.3672 -0.1256
  184SOPE  H17Y21140   1.377   2.412   8.527 -2.1107  0.8757 -0.1522
  184SOPE  C31821141   1.494   2.239   8.580 -0.0387 -0.0576 -0.3320
  184SOPE  H18X21142   1.480   2.247   8.690  0.3352  0.4053 -0.3195
  184SOPE  H18Y21143   1.597   2.272   8.558  0.2186  2.0468  3.3150
  184SOPE  H18Z21144   1.482   2.128   8.572 -1.8251 -0.1434  2.4272
  185SAPI   C1221145   0.264   4.171  11.402 -0.3358 -0.0709  0.5118
  185SAPI    H221146   0.341   4.230  11.456  1.0233 -0.9680 -0.3723
  185SAPI    O221147   0.345   4.069  11.350 -0.4684  0.2560  0.5141
  185SAPI   HO221148   0.352   4.080  11.255 -0.5416  1.2203  0.6141
  185SAPI   C1321149   0.168   4.115  11.512 -0.1738  0.1480 -0.2562
  185SAPI    H321150   0.114   4.201  11.557  0.3664 -0.3574  1.4333
  185SAPI    O321151   0.242   4.045  11.615 -0.3479 -0.5878  0.4482
  185SAPI   HO321152   0.303   3.988  11.567  0.1244  2.1553 -2.5700
  185SAPI   C1421153   0.065   4.021  11.441  0.3270 -0.3848  0.0327
  185SAPI    H421154   0.130   3.945  11.391  1.4149  1.2939 -1.2237
  185SAPI    O421155  -0.025   3.954  11.532  0.5463  0.0301 -0.2181
  185SAPI   HO421156  -0.034   4.004  11.614 -1.6598 -0.9693  0.2310
  185SAPI   C1521157  -0.015   4.098  11.336 -0.4032 -0.3703 -0.2284
  185SAPI    H521158  -0.075   4.178  11.384 -0.2759 -0.3439 -0.1155
  185SAPI    O521159  -0.119   4.018  11.285 -0.0562 -0.0596 -0.5145
  185SAPI   HO521160  -0.081   3.933  11.262  1.4136 -0.4224  2.7205
  185SAPI   C1621161   0.075   4.160  11.237  0.3988  0.3723  0.5291
  185SAPI    H621162   0.132   4.080  11.184 -2.6191 -0.5548 -1.6046
  185SAPI    O621163   0.003   4.242  11.144 -0.2730 -0.4509 -0.0919
  185SAPI   HO621164   0.068   4.265  11.078 -0.3419 -1.2126 -0.4361
  185SAPI   C1121165   0.188   4.250  11.297  0.1626  0.0899 -0.7034
  185SAPI    H121166   0.134   4.332  11.349  0.0262  0.9030 -2.0577
  185SAPI     P21167   0.344   4.251  11.072  0.5511 -0.0921  0.0328
  185SAPI   O1321168   0.361   4.105  11.088 -0.0095  0.5121 -0.4718
  185SAPI   O1421169   0.463   4.334  11.045 -0.4354  0.1834  0.3456
  185SAPI   O1221170   0.284   4.319  11.202  1.1096 -0.1180 -0.1437
  185SAPI   O1121171   0.239   4.288  10.959 -0.0381 -0.2079 -0.3222
  185SAPI    C121172   0.191   4.418  10.936  0.1575 -0.2688  0.7925
  185SAPI    HA21173   0.081   4.420  10.925  0.2682 -3.3067 -2.3375
  185SAPI    HB21174   0.221   4.491  11.015 -0.3074 -0.2205  0.9248
  185SAPI    C221175   0.242   4.473  10.796 -0.5915  1.4319  0.1124
  185SAPI    HS21176   0.217   4.581  10.805 -0.1337  1.3387  4.1820
  185SAPI   O2121177   0.168   4.413  10.681 -0.4055  0.0125  0.3121
  185SAPI   C2121178   0.054   4.470  10.644 -0.5299 -0.0760  0.0149
  185SAPI   O2221179  -0.004   4.556  10.711  0.7426  0.0026  0.2385
  185SAPI   C2221180   0.022   4.430  10.499  0.1048 -0.3946  0.0794
  185SAPI   H2R21181  -0.015   4.325  10.500  1.7264 -1.0037 -0.4515
  185SAPI   H2S21182  -0.069   4.485  10.466  0.0120 -1.0244 -0.7581
  185SAPI    C321183   0.397   4.452  10.767 -0.6058 -0.1041 -0.1774
  185SAPI    HX21184   0.441   4.350  10.760  2.7100  1.2834 -1.1684
  185SAPI    HY21185   0.448   4.496  10.856 -0.2753  0.0423 -0.4406
  185SAPI   O3121186   0.441   4.525  10.650  0.1548 -0.0072  0.0692
  185SAPI   C3121187   0.467   4.654  10.655  0.6941  0.8339  0.3573
  185SAPI   O3221188   0.449   4.730  10.749  0.3652 -0.4577 -0.2281
  185SAPI   C3221189   0.517   4.709  10.520  0.2132 -0.4002 -0.1256
  185SAPI   H2X21190   0.601   4.776  10.549  0.5629 -1.2853  0.9557
  185SAPI   H2Y21191   0.431   4.765  10.479 -0.3900 -1.1534  0.0886
  185SAPI   C2321192   0.139   4.451  10.403 -0.6522 -0.8407 -0.0890
  185SAPI   H3R21193   0.220   4.394  10.453 -1.7038 -1.1872  1.2683
  185SAPI   H3S21194   0.173   4.557  10.396  0.2009 -0.9282  2.0324
  185SAPI   C2421195   0.119   4.408  10.262  0.3170 -0.3356  0.2300
  185SAPI   H4R21196   0.034   4.457  10.210 -0.8544 -1.6958  0.7845
  185SAPI   H4S21197   0.087   4.304  10.285  1.3398 -0.7134  0.0280
  185SAPI   C2521198   0.250   4.386  10.192 -1.3838 -0.0380  0.7321
  185SAPI   H5R21199   0.321   4.331  10.255 -0.5785  2.0459  1.7370
  185SAPI   C2621200   0.302   4.435  10.069 -0.0817  0.4129  0.1909
  185SAPI   H6R21201   0.397   4.399  10.029  0.8497  0.8373  1.9127
  185SAPI   C2721202   0.235   4.528   9.966  0.3050  0.6343  0.1216
  185SAPI   H7R21203   0.303   4.589   9.902 -2.5423 -0.1382 -4.0377
  185SAPI   H7S21204   0.167   4.590  10.027 -0.8852 -0.2415 -0.2911
  185SAPI   C2821205   0.148   4.442   9.874 -0.3339  0.3114 -0.5688
  185SAPI   H8R21206   0.106   4.348   9.911 -0.8808  0.5542 -0.5689
  185SAPI   C2921207   0.129   4.460   9.741  0.1254 -0.4158  0.0121
  185SAPI   H9R21208   0.097   4.376   9.677  2.1948 -0.0702 -1.5761
  185SAPI  C21021209   0.183   4.570   9.659 -0.4552  0.2334 -0.2978
  185SAPI  H10R21210   0.219   4.654   9.722 -1.2943 -0.4729  1.1773
  185SAPI  H10S21211   0.096   4.619   9.611 -0.5413  0.7480  0.3705
  185SAPI  C21121212   0.293   4.527   9.565  0.4283  0.0836 -0.1606
  185SAPI  H11R21213   0.395   4.514   9.605  1.5101 -0.4953 -2.8559
  185SAPI  C21221214   0.292   4.504   9.436  0.4895  0.0941 -0.2341
  185SAPI  H12R21215   0.389   4.483   9.388  0.8493  1.6349 -0.2390
  185SAPI  C21321216   0.163   4.522   9.357  0.0698  0.0250 -0.2323
  185SAPI  H13R21217   0.152   4.632   9.342  2.4113  0.3281 -0.1469
  185SAPI  H13S21218   0.074   4.492   9.416  1.3450 -1.8274  0.8204
  185SAPI  C21421219   0.148   4.440   9.236 -0.3649  0.3508 -0.8129
  185SAPI  H14R21220   0.136   4.336   9.269 -0.6728  0.7895  0.5207
  185SAPI  C21521221   0.160   4.479   9.109  0.0390  0.5049 -0.0818
  185SAPI  H15R21222   0.150   4.393   9.041  0.4164 -1.8572  2.6381
  185SAPI  C21621223   0.198   4.615   9.056 -0.4745  0.5161  0.4520
  185SAPI  H16R21224   0.304   4.616   9.021 -0.5725 -2.6560 -0.2362
  185SAPI  H16S21225   0.189   4.688   9.139 -1.0330  0.3309  0.5571
  185SAPI  C21721226   0.099   4.653   8.943  0.3057 -0.2069 -0.0258
  185SAPI  H17R21227   0.102   4.760   8.913  0.1156 -0.7230 -2.0604
  185SAPI  H17S21228   0.002   4.645   8.997 -0.5644  2.5087 -1.0209
  185SAPI  C21821229   0.116   4.563   8.817  0.3353 -0.9149  0.1798
  185SAPI  H18R21230   0.043   4.480   8.821 -0.3211 -0.4218 -1.0711
  185SAPI  H18S21231   0.223   4.534   8.810  0.7259  0.3093  0.6578
  185SAPI  C21921232   0.078   4.646   8.684  0.0793 -0.7556  0.5731
  185SAPI  H19R21233   0.141   4.737   8.678 -0.4600 -0.3401  1.1343
  185SAPI  H19S21234  -0.031   4.663   8.679  0.4041  1.2244 -0.6977
  185SAPI  C22021235   0.115   4.561   8.559 -0.1884  0.1550  0.5155
  185SAPI  H20R21236   0.099   4.605   8.458 -2.7022  0.7702  1.0985
  185SAPI  H20S21237   0.049   4.471   8.561 -2.8036  1.9340 -0.2957
  185SAPI  H20T21238   0.221   4.529   8.557 -0.2447  0.0002 -0.2741
  185SAPI   C3321239   0.558   4.605  10.415 -0.5611 -0.6237 -0.5209
  185SAPI   H3X21240   0.474   4.533  10.402  0.3912 -1.8612 -0.0434
  185SAPI   H3Y21241   0.651   4.552  10.444 -1.1170 -0.0232  2.6806
  185SAPI   C3421242   0.597   4.689  10.288 -0.4092  0.3606  0.1754
  185SAPI   H4X21243   0.671   4.766  10.317  1.7537 -1.8793  0.9842
  185SAPI   H4Y21244   0.505   4.736  10.248 -0.7196 -0.6600 -0.3543
  185SAPI   C3521245   0.671   4.606  10.170  0.8285 -0.8884  0.0868
  185SAPI   H5X21246   0.599   4.525  10.149 -0.2700  0.8400 -3.8334
  185SAPI   H5Y21247   0.771   4.577  10.210  2.0189  2.6605  0.0962
  185SAPI   C3621248   0.700   4.696  10.050  0.4273 -0.4870  0.2035
  185SAPI   H6X21249   0.800   4.742  10.065  1.2108 -1.6878 -1.0477
  185SAPI   H6Y21250   0.616   4.769  10.050 -0.7638 -1.8090  0.0731
  185SAPI   C3721251   0.692   4.629   9.917  0.0695 -0.0219  0.2756
  185SAPI   H7X21252   0.592   4.586   9.895  0.5558 -0.3654 -1.3794
  185SAPI   H7Y21253   0.747   4.532   9.924  1.0523  0.6155  2.2238
  185SAPI   C3821254   0.737   4.706   9.801 -0.6706  0.3549  0.3091
  185SAPI   H8X21255   0.847   4.716   9.812 -0.8885  2.2392  1.1169
  185SAPI   H8Y21256   0.694   4.806   9.823 -0.3943  0.3291  1.0023
  185SAPI   C3921257   0.701   4.646   9.664 -0.2757 -0.2805  0.2947
  185SAPI   H9X21258   0.594   4.661   9.637  0.5230  3.0567 -1.5690
  185SAPI   H9Y21259   0.728   4.539   9.676  1.8253  0.3272  1.4942
  185SAPI  C31021260   0.791   4.706   9.547  0.5468  0.1124 -0.6405
  185SAPI  H10X21261   0.897   4.681   9.570  0.9402  1.9874 -0.2663
  185SAPI  H10Y21262   0.770   4.815   9.545  2.0880  0.5429  2.0140
  185SAPI  C31121263   0.757   4.642   9.419 -0.1018  0.2422  0.1793
  185SAPI  H11X21264   0.658   4.677   9.381 -0.0968  1.4055  1.1752
  185SAPI  H11Y21265   0.746   4.533   9.433  0.2748  0.3946  1.8844
  185SAPI  C31221266   0.864   4.664   9.307 -0.2509 -0.3509 -0.3254
  185SAPI  H12X21267   0.955   4.602   9.326  0.4559 -0.2986 -3.1430
  185SAPI  H12Y21268   0.906   4.767   9.309  0.0936 -0.4977  0.8359
  185SAPI  C31321269   0.819   4.623   9.169 -0.2367  0.3474 -0.4678
  185SAPI  H13X21270   0.769   4.706   9.115 -1.1195 -0.3683 -0.7684
  185SAPI  H13Y21271   0.735   4.552   9.177  1.2134 -1.5205 -1.0723
  185SAPI  C31421272   0.920   4.561   9.065  0.6476 -0.1145 -0.5526
  185SAPI  H14X21273   0.865   4.558   8.969 -1.7932  0.0360  0.7815
  185SAPI  H14Y21274   0.941   4.458   9.104  0.3844  0.2884  0.7060
  185SAPI  C31521275   1.047   4.637   9.039 -0.4151 -0.5189 -0.1721
  185SAPI  H15X21276   1.117   4.639   9.125  0.1060 -1.9776 -0.5370
  185SAPI  H15Y21277   1.015   4.744   9.039  0.1074 -0.3560  0.9899
  185SAPI  C31621278   1.136   4.587   8.920 -0.1505 -0.5249  0.0786
  185SAPI  H16X21279   1.187   4.490   8.941  1.9157  0.3411 -0.6092
  185SAPI  H16Y21280   1.221   4.657   8.902  1.1380 -1.2709  2.6950
  185SAPI  C31721281   1.068   4.549   8.792 -0.3084  0.3404 -0.0552
  185SAPI  H17X21282   1.027   4.647   8.760  1.7228  0.1046 -3.8610
  185SAPI  H17Y21283   0.982   4.481   8.811  0.3333 -0.7042 -0.8053
  185SAPI  C31821284   1.146   4.519   8.665  0.2594 -0.3489  0.1917
  185SAPI  H18X21285   1.198   4.420   8.666 -0.6031 -0.8250 -0.3196
  185SAPI  H18Y21286   1.212   4.607   8.653 -0.3723  0.1880  0.6325
  185SAPI  H18Z21287   1.078   4.518   8.577  0.7795  2.2298 -0.3055
  186SAPI   C1221288   0.138   2.162  11.001  0.4709  0.4390  0.0385
  186SAPI    H221289   0.081   2.195  10.912  0.1381  0.0616  0.1098
  186SAPI    O221290   0.218   2.273  11.035 -0.1147 -0.1237  0.2368
  186SAPI   HO221291   0.188   2.347  10.981 -2.1632  0.1554  1.6809
  186SAPI   C1321292   0.042   2.116  11.113  0.0912  0.7496 -0.5323
  186SAPI    H321293  -0.017   2.033  11.069  2.7451 -0.8967 -1.2104
  186SAPI    O321294  -0.056   2.215  11.139  0.0468  0.5793 -0.1883
  186SAPI   HO321295  -0.128   2.191  11.198  0.0409  0.8868 -0.0676
  186SAPI   C1421296   0.120   2.064  11.235  0.4306  0.0948 -0.7908
  186SAPI    H421297   0.186   2.141  11.280 -0.3992  0.1843  0.3170
  186SAPI    O421298   0.029   2.027  11.339  0.2236 -0.3260  0.3036
  186SAPI   HO421299   0.078   2.044  11.420  1.6053  0.3372 -0.6294
  186SAPI   C1521300   0.212   1.949  11.195 -0.0983  0.0931  0.0939
  186SAPI    H521301   0.164   1.862  11.146 -1.9535  0.4286  1.2299
  186SAPI    O521302   0.282   1.897  11.305 -0.3515 -0.3963  0.3895
  186SAPI   HO521303   0.268   1.955  11.380  0.6990  0.4648 -0.0432
  186SAPI   C1621304   0.307   1.997  11.080 -0.2275  0.1192 -0.1123
  186SAPI    H621305   0.359   2.083  11.126 -0.6718 -0.4185  1.4701
  186SAPI    O621306   0.405   1.900  11.046 -0.1065 -0.0735  0.2511
  186SAPI   HO621307   0.450   1.935  10.969 -0.7247  0.3303  0.0643
  186SAPI   C1121308   0.229   2.045  10.958  0.2668 -0.4573 -0.7424
  186SAPI    H121309   0.163   1.959  10.932  0.0694 -0.1443 -1.2953
  186SAPI     P21310   0.277   2.041  10.692  0.3510  0.1020  0.3796
  186SAPI   O1321311   0.193   1.921  10.693 -0.0721 -0.1033  0.2943
  186SAPI   O1421312   0.397   2.030  10.612 -0.5047 -0.1446  0.5214
  186SAPI   O1221313   0.318   2.079  10.848 -0.4874 -0.3316 -0.7227
  186SAPI   O1121314   0.196   2.164  10.632  0.6359 -0.3989  0.0956
  186SAPI    C121315   0.262   2.281  10.586 -0.0195 -0.2015  1.2058
  186SAPI    HA21316   0.250   2.363  10.660  1.1309 -0.7245  1.9981
  186SAPI    HB21317   0.372   2.267  10.576 -0.2141 -1.2196  0.3635
  186SAPI    C221318   0.215   2.321  10.441  0.0982  0.2002 -0.1168
  186SAPI    HS21319   0.292   2.386  10.395  0.6561  0.0667  0.6188
  186SAPI   O2121320   0.070   2.367  10.449 -0.4852 -0.0600 -0.4358
  186SAPI   C2121321   0.055   2.489  10.393  1.0076 -0.4527  0.5076
  186SAPI   O2221322   0.143   2.558  10.346  0.5697 -0.5851  0.0030
  186SAPI   C2221323  -0.097   2.535  10.391  0.3366 -0.0839  0.2375
  186SAPI   H2R21324  -0.158   2.448  10.358  0.4473  0.9904 -3.1826
  186SAPI   H2S21325  -0.122   2.564  10.495 -0.1576  1.0460 -0.1790
  186SAPI    C321326   0.223   2.196  10.350  0.4961  0.5860 -0.1191
  186SAPI    HX21327   0.143   2.119  10.357  1.4090 -0.4126 -0.3734
  186SAPI    HY21328   0.307   2.140  10.398 -0.6482 -0.3037  0.9298
  186SAPI   O3121329   0.248   2.228  10.212  0.1025  0.6555  0.2847
  186SAPI   C3121330   0.144   2.259  10.130  1.0041 -1.0252  0.9214
  186SAPI   O3221331   0.023   2.252  10.155  0.1054  0.0520  0.4077
  186SAPI   C3221332   0.201   2.297   9.998 -0.2520  0.2443  0.0708
  186SAPI   H2X21333   0.245   2.203   9.957 -1.3131  0.1002 -0.7780
  186SAPI   H2Y21334   0.277   2.378  10.004 -0.1205  0.0565  1.1705
  186SAPI   C2321335  -0.136   2.657  10.302  0.3189  0.4791 -0.0344
  186SAPI   H3R21336  -0.061   2.738  10.313 -1.0220  1.5483  1.7202
  186SAPI   H3S21337  -0.239   2.691  10.326 -0.7273 -2.5052  0.0579
  186SAPI   C2421338  -0.140   2.615  10.153  0.1843 -0.4937 -0.4922
  186SAPI   H4R21339  -0.041   2.565  10.144  0.7300  0.2958  0.8758
  186SAPI   H4S21340  -0.153   2.699  10.081 -0.4004 -1.0004 -0.9929
  186SAPI   C2521341  -0.251   2.515  10.124 -0.1766 -0.6205 -0.3155
  186SAPI   H5R21342  -0.227   2.414  10.162  0.2420 -0.8773 -1.2216
  186SAPI   C2621343  -0.353   2.526  10.034 -0.7602 -0.5862  0.1610
  186SAPI   H6R21344  -0.430   2.448  10.026 -0.8144 -0.5134 -0.0536
  186SAPI   C2721345  -0.393   2.649   9.949 -0.3658  0.3838 -0.4301
  186SAPI   H7R21346  -0.317   2.686   9.877 -0.2737 -0.8628 -1.0027
  186SAPI   H7S21347  -0.408   2.736  10.016 -0.7767  0.2175 -0.3048
  186SAPI   C2821348  -0.497   2.617   9.853  0.0526 -0.3092 -0.7094
  186SAPI   H8R21349  -0.597   2.640   9.892  0.6414 -0.6482  1.0884
  186SAPI   C2921350  -0.483   2.550   9.733  0.1547 -0.4780  0.1647
  186SAPI   H9R21351  -0.569   2.558   9.666  1.4465  0.3956 -1.4560
  186SAPI  C21021352  -0.357   2.497   9.673  0.0776  0.7732 -0.2030
  186SAPI  H10R21353  -0.280   2.486   9.752 -2.4144 -1.2815  2.1152
  186SAPI  H10S21354  -0.332   2.581   9.604  1.5790  1.1502  0.7748
  186SAPI  C21121355  -0.381   2.376   9.589 -0.1983  0.5140  0.2855
  186SAPI  H11R21356  -0.400   2.276   9.632 -0.3878  0.4675  0.0925
  186SAPI  C21221357  -0.375   2.379   9.451 -0.3090  0.0208 -0.0948
  186SAPI  H12R21358  -0.376   2.284   9.396 -1.1683  1.3328 -2.5606
  186SAPI  C21321359  -0.339   2.497   9.357  0.8873  0.1015  0.3643
  186SAPI  H13R21360  -0.329   2.470   9.250 -1.1719  0.1928  0.1096
  186SAPI  H13S21361  -0.241   2.543   9.385  1.1817  0.4355 -1.1119
  186SAPI  C21421362  -0.438   2.607   9.345  0.3386 -0.0413 -0.1104
  186SAPI  H14R21363  -0.535   2.592   9.396  0.7717  0.1093  0.7902
  186SAPI  C21521364  -0.422   2.727   9.285 -0.7858 -0.5356  0.1834
  186SAPI  H15R21365  -0.502   2.803   9.283 -1.0634 -0.8369 -0.5288
  186SAPI  C21621366  -0.293   2.773   9.218 -0.1895 -0.8986  0.2363
  186SAPI  H16R21367  -0.212   2.700   9.198  0.5204 -0.2984  0.8351
  186SAPI  H16S21368  -0.243   2.847   9.284 -0.1758  0.1719 -0.9280
  186SAPI  C21721369  -0.324   2.851   9.086  0.1488 -1.4616 -0.3970
  186SAPI  H17R21370  -0.405   2.926   9.104 -0.2545 -2.0973  0.5272
  186SAPI  H17S21371  -0.367   2.784   9.008 -3.2737  0.5209 -0.4360
  186SAPI  C21821372  -0.197   2.911   9.026 -0.3769 -0.3295 -0.2461
  186SAPI  H18R21373  -0.143   2.831   8.972 -0.0436  0.8981 -1.8258
  186SAPI  H18S21374  -0.134   2.958   9.104 -0.0144  1.0840 -1.3355
  186SAPI  C21921375  -0.222   3.016   8.917 -0.1801  0.4229  0.3036
  186SAPI  H19R21376  -0.252   3.111   8.966 -3.0031  0.5296 -1.4178
  186SAPI  H19S21377  -0.313   2.992   8.858  1.0637 -1.9589 -0.8030
  186SAPI  C22021378  -0.101   3.025   8.826  0.2195 -0.1294  0.0266
  186SAPI  H20R21379  -0.015   3.057   8.888  0.8842 -0.0932 -0.9028
  186SAPI  H20S21380  -0.115   3.109   8.755 -0.3868 -0.8530 -0.7295
  186SAPI  H20T21381  -0.088   2.936   8.761  0.0436  0.3054 -0.6114
  186SAPI   C3321382   0.096   2.339   9.889  0.1763 -0.3237  0.2870
  186SAPI   H3X21383   0.025   2.416   9.926  0.6080 -0.1689  0.8088
  186SAPI   H3Y21384   0.036   2.252   9.857 -0.4799 -0.1279  0.9700
  186SAPI   C3421385   0.149   2.402   9.754 -0.1467  0.2464  0.0776
  186SAPI   H4X21386   0.244   2.355   9.723 -0.4815  0.0384 -0.6488
  186SAPI   H4Y21387   0.174   2.503   9.794  0.4490 -0.5774  1.8890
  186SAPI   C3521388   0.051   2.406   9.631  0.7007 -0.5140 -0.1756
  186SAPI   H5X21389  -0.041   2.460   9.660  1.8951 -0.0559  3.2010
  186SAPI   H5Y21390   0.020   2.304   9.598 -0.7345 -0.4801  0.9590
  186SAPI   C3621391   0.132   2.470   9.513  0.2826  0.6526  0.5447
  186SAPI   H6X21392   0.213   2.400   9.483 -3.0459 -2.7501 -1.1989
  186SAPI   H6Y21393   0.172   2.569   9.544 -1.3185  0.9629  1.7588
  186SAPI   C3721394   0.054   2.488   9.380  0.0992  0.4786 -0.3560
  186SAPI   H7X21395  -0.016   2.572   9.401 -0.2658 -0.0007  0.3666
  186SAPI   H7Y21396  -0.003   2.394   9.367  1.4529 -0.6197  1.1994
  186SAPI   C3821397   0.131   2.515   9.255 -0.0515 -0.3607  0.6023
  186SAPI   H8X21398   0.183   2.426   9.214  0.5819  0.5267 -0.5929
  186SAPI   H8Y21399   0.210   2.590   9.276 -0.5809 -0.5115  3.5028
  186SAPI   C3921400   0.042   2.574   9.140  0.8915  0.1405  0.5173
  186SAPI   H9X21401   0.002   2.674   9.167 -2.4905 -0.6649 -0.9483
  186SAPI   H9Y21402  -0.050   2.515   9.120  1.7182 -1.1529  0.3941
  186SAPI  C31021403   0.123   2.596   9.012 -0.3728 -0.1956  0.2562
  186SAPI  H10X21404   0.214   2.654   9.040 -1.2173  1.8480 -1.0174
  186SAPI  H10Y21405   0.072   2.669   8.946 -0.7910  1.0197  1.8477
  186SAPI  C31121406   0.161   2.485   8.925  0.5824  1.0363 -0.3991
  186SAPI  H11X21407   0.219   2.413   8.986 -0.9465  0.9206  0.9798
  186SAPI  H11Y21408   0.217   2.539   8.845  1.8750  2.1731  1.2162
  186SAPI  C31221409   0.029   2.418   8.872  0.4065  0.9949 -0.1878
  186SAPI  H12X21410  -0.047   2.492   8.838 -2.7634 -1.5469  0.7996
  186SAPI  H12Y21411  -0.017   2.358   8.954  0.6321  0.0572 -0.7265
  186SAPI  C31321412   0.054   2.322   8.754 -0.0062 -0.3385  0.6155
  186SAPI  H13X21413   0.144   2.262   8.781 -0.2765 -1.0651 -0.0785
  186SAPI  H13Y21414   0.088   2.387   8.671  2.1165 -1.0119  0.9004
  186SAPI  C31421415  -0.073   2.250   8.709  0.4534  0.3152  0.0913
  186SAPI  H14X21416  -0.161   2.318   8.702  0.8473  0.6692 -3.4241
  186SAPI  H14Y21417  -0.080   2.170   8.786 -1.8083 -0.0197 -0.3855
  186SAPI  C31521418  -0.054   2.175   8.580  0.7378  0.0079 -0.3012
  186SAPI  H15X21419   0.010   2.089   8.609  0.8674  0.6425  1.4039
  186SAPI  H15Y21420  -0.005   2.230   8.497  0.9897 -2.2163 -1.7106
  186SAPI  C31621421  -0.193   2.119   8.538 -0.3203 -0.8725  0.1063
  186SAPI  H16X21422  -0.273   2.195   8.535 -1.3921 -1.9332  0.8143
  186SAPI  H16Y21423  -0.224   2.045   8.614  2.4970 -0.7534  1.5020
  186SAPI  C31721424  -0.191   2.056   8.398 -0.1091 -0.7073 -0.3512
  186SAPI  H17X21425  -0.175   2.129   8.315  2.4586  0.8726  1.4195
  186SAPI  H17Y21426  -0.295   2.017   8.386  1.2048 -5.2385  1.1912
  186SAPI  C31821427  -0.089   1.947   8.373  0.0010  0.2108 -0.5429
  186SAPI  H18X21428   0.014   1.984   8.394 -0.1227 -0.3306  1.1230
  186SAPI  H18Y21429  -0.087   1.904   8.271  1.1397 -2.0178  0.3499
  186SAPI  H18Z21430  -0.114   1.865   8.443 -0.9409 -0.4059 -1.5651
  187SAPI   C1221431   0.023   4.797   6.428  0.6939  0.4646 -0.9480
  187SAPI    H221432   0.080   4.815   6.521  2.8115 -0.7075 -1.9580
  187SAPI    O221433   0.005   4.652   6.430 -0.0468 -0.2481 -0.1210
  187SAPI   HO221434   0.088   4.609   6.408  1.4298  2.3996 -0.1620
  187SAPI   C1321435  -0.093   4.892   6.423  0.4940 -0.3107 -0.1731
  187SAPI    H321436  -0.050   4.993   6.444 -2.1445  0.7106  0.7493
  187SAPI    O321437  -0.185   4.860   6.533  0.7654  0.5133  0.5766
  187SAPI   HO321438  -0.200   4.765   6.534 -0.4882  0.6517 -1.0342
  187SAPI   C1421439  -0.170   4.874   6.295  0.5037  0.9238 -0.2770
  187SAPI    H421440  -0.219   4.775   6.287  0.5201  0.9507 -0.7542
  187SAPI    O421441  -0.278   4.967   6.288 -0.2182 -0.4207  0.0741
  187SAPI   HO421442  -0.243   5.056   6.287  1.7670 -1.1286  1.3239
  187SAPI   C1521443  -0.082   4.897   6.175  0.1231 -0.1580  0.1556
  187SAPI    H521444  -0.058   5.004   6.166 -1.9482  0.2730 -0.8668
  187SAPI    O521445  -0.149   4.864   6.057 -0.3321 -0.3666  0.1058
  187SAPI   HO521446  -0.185   4.775   6.057 -0.6824 -0.2336  0.8740
  187SAPI   C1621447   0.043   4.823   6.179  0.3853  0.7208 -0.3165
  187SAPI    H621448   0.028   4.714   6.166  0.2132  0.4038  2.1049
  187SAPI    O621449   0.132   4.865   6.076 -0.2250 -0.3787  0.2060
  187SAPI   HO621450   0.091   4.853   5.991 -0.3158  2.8600 -0.3411
  187SAPI   C1121451   0.117   4.835   6.317 -0.1936 -0.1169 -0.1439
  187SAPI    H121452   0.130   4.945   6.327 -0.1471 -0.0130 -1.2491
  187SAPI     P21453   0.379   4.839   6.381  0.2947  0.4159  0.0203
  187SAPI   O1321454   0.379   4.981   6.356  1.2740 -0.3021 -0.6817
  187SAPI   O1421455   0.495   4.760   6.327 -0.2181 -0.7148 -0.1831
  187SAPI   O1221456   0.238   4.764   6.334 -1.0889 -0.1490 -0.1996
  187SAPI   O1121457   0.380   4.818   6.530 -0.1465 -0.0702 -0.4383
  187SAPI    C121458   0.491   4.828   6.612 -0.2166  0.1392  0.0787
  187SAPI    HA21459   0.573   4.882   6.559 -0.1145  1.2779  1.3446
  187SAPI    HB21460   0.458   4.886   6.700  0.0552 -1.4652  1.2770
  187SAPI    C221461   0.544   4.694   6.671  0.1961 -0.6134 -0.3247
  187SAPI    HS21462   0.589   4.633   6.590  0.0929 -2.6926  1.1253
  187SAPI   O2121463   0.441   4.620   6.736 -0.0749 -0.2026  0.8281
  187SAPI   C2121464   0.369   4.534   6.655  0.0660  0.2898 -0.5426
  187SAPI   O2221465   0.402   4.506   6.543  0.2073 -0.2941  0.5521
  187SAPI   C2221466   0.238   4.503   6.719 -0.3171  0.4724  0.1719
  187SAPI   H2R21467   0.243   4.543   6.822  0.6618  0.0088  0.3107
  187SAPI   H2S21468   0.158   4.546   6.654 -0.1545 -0.1312 -0.4434
  187SAPI    C321469   0.659   4.726   6.776  1.1464  0.8606  0.5309
  187SAPI    HX21470   0.608   4.785   6.856  0.8665  1.8376 -0.3455
  187SAPI    HY21471   0.734   4.793   6.730  1.7417  0.1639  0.4671
  187SAPI   O3121472   0.725   4.610   6.834  0.1323 -0.4260 -0.4736
  187SAPI   C3121473   0.813   4.549   6.757  1.2518 -0.2390 -0.2709
  187SAPI   O3221474   0.849   4.582   6.646 -0.2430  0.3158  0.0371
  187SAPI   C3221475   0.873   4.437   6.837 -0.1578  0.0430 -0.8594
  187SAPI   H2X21476   0.947   4.394   6.767  1.3327  3.0400 -1.2666
  187SAPI   H2Y21477   0.801   4.354   6.855  0.0201 -0.3891 -2.0675
  187SAPI   C2321478   0.212   4.354   6.723 -0.4336  0.0688  0.1127
  187SAPI   H3R21479   0.273   4.312   6.640 -0.4759  1.2549 -0.5419
  187SAPI   H3S21480   0.109   4.341   6.683 -0.1506  0.9586 -0.9513
  187SAPI   C2421481   0.214   4.279   6.857  0.1110 -1.0984 -0.0168
  187SAPI   H4R21482   0.160   4.182   6.852 -1.7780 -0.0375 -1.9244
  187SAPI   H4S21483   0.161   4.329   6.941 -0.0833 -1.1768 -0.0936
  187SAPI   C2521484   0.354   4.261   6.899 -0.0293  0.1214 -0.1252
  187SAPI   H5R21485   0.416   4.187   6.846  1.9458  1.6726 -0.1235
  187SAPI   C2621486   0.421   4.314   6.999 -0.6333  0.7742  0.5112
  187SAPI   H6R21487   0.524   4.274   7.007 -1.7277 -2.5385 -0.4850
  187SAPI   C2721488   0.371   4.418   7.096 -0.3221  0.3842 -0.4647
  187SAPI   H7R21489   0.364   4.365   7.194 -1.0710  1.6930  0.2085
  187SAPI   H7S21490   0.273   4.465   7.077 -0.2049  1.3651  1.1178
  187SAPI   C2821491   0.462   4.538   7.097 -0.4614  0.0048  0.4303
  187SAPI   H8R21492   0.481   4.580   6.997  1.0417 -0.6686  0.4072
  187SAPI   C2921493   0.527   4.594   7.206 -0.1074  0.1998 -0.5426
  187SAPI   H9R21494   0.592   4.680   7.186 -0.6422  1.1106  1.4004
  187SAPI  C21021495   0.514   4.548   7.350 -0.4291  0.9057 -0.2975
  187SAPI  H10R21496   0.604   4.579   7.408 -0.1183 -2.1757  1.0685
  187SAPI  H10S21497   0.520   4.437   7.361 -2.5954  0.6302 -1.4691
  187SAPI  C21121498   0.401   4.613   7.425 -0.0796  0.1894  0.5087
  187SAPI  H11R21499   0.332   4.685   7.380  0.4800 -0.2065 -1.0644
  187SAPI  C21221500   0.373   4.587   7.555  0.2961 -0.4813 -0.0853
  187SAPI  H12R21501   0.290   4.646   7.598  1.1641 -0.1607  1.2153
  187SAPI  C21321502   0.439   4.489   7.652 -0.2142 -0.1330  0.2448
  187SAPI  H13R21503   0.498   4.419   7.590 -0.8191  0.8159 -1.4544
  187SAPI  H13S21504   0.365   4.415   7.689  0.6530 -1.4624 -0.6176
  187SAPI  C21421505   0.532   4.546   7.754 -0.4288  0.2912 -0.3956
  187SAPI  H14R21506   0.621   4.602   7.722  0.8207 -1.9220 -1.0043
  187SAPI  C21521507   0.518   4.543   7.888  0.4808 -0.3850  0.5509
  187SAPI  H15R21508   0.612   4.572   7.938  1.4898  0.2204 -1.5780
  187SAPI  C21621509   0.408   4.467   7.966  0.1490 -0.1652  0.6308
  187SAPI  H16R21510   0.363   4.394   7.896 -1.0004 -0.5325  1.7141
  187SAPI  H16S21511   0.327   4.542   7.982  1.4843  1.1199  1.6885
  187SAPI  C21721512   0.468   4.405   8.089 -0.3884 -0.2316 -0.2980
  187SAPI  H17R21513   0.562   4.347   8.074  0.1399  0.6031 -0.2450
  187SAPI  H17S21514   0.399   4.332   8.138  1.9605 -1.8009  0.8918
  187SAPI  C21821515   0.508   4.507   8.206  0.2319  0.8087  0.0644
  187SAPI  H18R21516   0.428   4.583   8.221  0.7903  1.5533 -0.6379
  187SAPI  H18S21517   0.606   4.553   8.184  1.0149 -0.1919  1.3530
  187SAPI  C21921518   0.534   4.434   8.340 -0.3145  0.1020 -0.0351
  187SAPI  H19R21519   0.445   4.371   8.362 -0.6894  0.2710 -1.0194
  187SAPI  H19S21520   0.538   4.515   8.416  0.4674 -2.1046  2.4416
  187SAPI  C22021521   0.658   4.354   8.359  0.0326  0.1388  0.4940
  187SAPI  H20R21522   0.746   4.417   8.334 -0.0136 -0.2074 -0.5961
  187SAPI  H20S21523   0.659   4.260   8.300  1.7336  0.4932 -0.1210
  187SAPI  H20T21524   0.667   4.320   8.465 -1.3344 -1.3618  0.1723
  187SAPI   C3321525   0.931   4.485   6.976 -0.8085  0.7190  0.5493
  187SAPI   H3X21526   0.934   4.596   6.987  0.9368  0.6950  0.7241
  187SAPI   H3Y21527   1.037   4.453   6.987 -0.8583  0.1321 -0.6486
  187SAPI   C3421528   0.858   4.431   7.098 -0.0895 -0.7265 -0.7802
  187SAPI   H4X21529   0.882   4.326   7.124 -1.6025 -0.8418  0.3044
  187SAPI   H4Y21530   0.749   4.440   7.079 -0.4607 -1.7111  0.6970
  187SAPI   C3521531   0.894   4.515   7.219  0.1474  0.4050 -0.4313
  187SAPI   H5X21532   0.839   4.611   7.206 -3.3853 -1.4061 -0.0590
  187SAPI   H5Y21533   1.005   4.526   7.224  0.3203 -0.3748 -1.9514
  187SAPI   C3621534   0.858   4.456   7.355  0.1954  0.7016  0.1572
  187SAPI   H6X21535   0.748   4.440   7.355  0.2281  0.1169  2.1760
  187SAPI   H6Y21536   0.869   4.526   7.441 -0.1800 -0.4327  1.1681
  187SAPI   C3721537   0.939   4.338   7.403  0.1413 -0.5438  0.3266
  187SAPI   H7X21538   1.047   4.355   7.381 -0.0323 -1.0959 -1.0349
  187SAPI   H7Y21539   0.918   4.253   7.335 -1.1155  1.9292 -2.5507
  187SAPI   C3821540   0.925   4.302   7.552  0.6754 -0.1540  0.1916
  187SAPI   H8X21541   0.946   4.397   7.606 -1.3663  0.6378 -0.3289
  187SAPI   H8Y21542   0.998   4.228   7.591  1.4612  0.5072  0.0110
  187SAPI   C3921543   0.778   4.269   7.587  0.2091 -0.0008 -0.5032
  187SAPI   H9X21544   0.744   4.175   7.538  0.9961  0.2029 -1.4908
  187SAPI   H9Y21545   0.713   4.351   7.550 -0.3652  0.0839  0.6594
  187SAPI  C31021546   0.752   4.261   7.742 -0.2209 -0.1333  0.1959
  187SAPI  H10X21547   0.644   4.265   7.768 -0.3301  0.8888 -0.3410
  187SAPI  H10Y21548   0.793   4.351   7.793 -1.3957  0.0441  0.8616
  187SAPI  C31121549   0.815   4.138   7.818 -0.1430  0.0980  0.0495
  187SAPI  H11X21550   0.926   4.147   7.822 -0.2057  2.2773 -1.4142
  187SAPI  H11Y21551   0.799   4.050   7.752  1.2346  0.1766 -0.4159
  187SAPI  C31221552   0.767   4.101   7.962 -0.2155 -0.9154  0.2748
  187SAPI  H12X21553   0.657   4.118   7.965 -0.1900  0.0205 -2.2351
  187SAPI  H12Y21554   0.811   4.162   8.043 -1.1831 -0.1036  0.2157
  187SAPI  C31321555   0.814   3.956   7.990  0.5637  0.3548 -0.0006
  187SAPI  H13X21556   0.925   3.964   7.993  0.5209  1.0104  0.0193
  187SAPI  H13Y21557   0.781   3.874   7.923  1.2602  0.0092  0.0677
  187SAPI  C31421558   0.780   3.910   8.130 -0.1332  0.6945 -0.2604
  187SAPI  H14X21559   0.672   3.925   8.150 -0.0034  0.6269  0.5006
  187SAPI  H14Y21560   0.819   3.979   8.207 -3.0891  0.2577  1.8048
  187SAPI  C31521561   0.829   3.770   8.176  0.1573  0.4914  0.0840
  187SAPI  H15X21562   0.936   3.759   8.151  0.4207 -0.5756  1.5941
  187SAPI  H15Y21563   0.774   3.692   8.118  1.7392 -0.7541  0.2111
  187SAPI  C31621564   0.818   3.736   8.327  0.0074 -0.7402 -0.6676
  187SAPI  H16X21565   0.720   3.692   8.354 -0.5460  0.8088 -0.0314
  187SAPI  H16Y21566   0.830   3.833   8.380  1.5958  0.6135 -3.2811
  187SAPI  C31721567   0.928   3.638   8.379  0.0354 -0.1237  0.2306
  187SAPI  H17X21568   0.910   3.628   8.488 -0.3872 -1.2716  0.0685
  187SAPI  H17Y21569   1.028   3.683   8.359  0.8889 -1.9221  0.2808
  187SAPI  C31821570   0.925   3.501   8.322 -0.3928 -0.2938 -0.4407
  187SAPI  H18X21571   1.015   3.440   8.342 -0.2773 -0.2093 -0.7005
  187SAPI  H18Y21572   0.922   3.515   8.212 -0.6037  1.4823 -0.2341
  187SAPI  H18Z21573   0.832   3.445   8.344 -0.8414 -0.1413 -1.8301
  188SAPI   C1221574   3.891   3.085   6.172  0.2855 -0.4757 -0.1984
  188SAPI    H221575   3.895   3.103   6.281 -1.1400  3.6460 -0.6161
  188SAPI    O221576   3.977   3.181   6.114 -0.5922  0.1205  0.6038
  188SAPI   HO221577   3.911   3.244   6.086 -1.3591 -0.5843  0.8117
  188SAPI   C1321578   3.932   2.944   6.127 -0.1790 -0.0818 -1.3727
  188SAPI    H321579   3.865   2.891   6.198 -0.0902  2.3699  0.6815
  188SAPI    O321580   4.066   2.915   6.163  0.1165  0.4050  0.6244
  188SAPI   HO321581   4.071   2.820   6.176 -3.9360  0.0537  1.0531
  188SAPI   C1421582   3.902   2.918   5.985  0.9396 -0.3000  0.3706
  188SAPI    H421583   3.975   2.987   5.936  3.5758 -2.1904  1.4118
  188SAPI    O421584   3.947   2.798   5.931  0.3911  0.2941 -0.0368
  188SAPI   HO421585   3.919   2.724   5.986 -1.3086  0.3821 -0.7124
  188SAPI   C1521586   3.763   2.964   5.939  0.9529 -0.1302 -0.6477
  188SAPI    H521587   3.698   2.892   5.994 -0.9601 -0.0109 -2.6157
  188SAPI    O521588   3.728   2.933   5.803 -0.5945  0.0903 -0.4334
  188SAPI   HO521589   3.770   3.001   5.749  3.1246 -1.4307  0.1897
  188SAPI   C1621590   3.725   3.104   5.990 -0.3953 -0.1519 -0.4303
  188SAPI    H621591   3.788   3.180   5.939  0.2010 -0.3263  0.0345
  188SAPI    O621592   3.593   3.136   5.951 -0.1544  0.2489  0.3411
  188SAPI   HO621593   3.580   3.229   5.968 -2.5887 -0.1260  0.8226
  188SAPI   C1121594   3.741   3.108   6.141 -0.0009 -0.3480 -0.2730
  188SAPI    H121595   3.692   3.021   6.188  1.0414 -1.4664 -1.2109
  188SAPI     P21596   3.539   3.231   6.262  0.3890 -0.2194  0.3975
  188SAPI   O1321597   3.460   3.120   6.205 -0.0409  0.1728  0.4890
  188SAPI   O1421598   3.474   3.366   6.254 -0.7112  0.1376 -0.0066
  188SAPI   O1221599   3.681   3.234   6.195 -0.0641 -0.2271  0.0013
  188SAPI   O1121600   3.573   3.188   6.407 -0.3371  0.1567 -0.0480
  188SAPI    C121601   3.624   3.278   6.508 -0.5761 -0.6105  0.1007
  188SAPI    HA21602   3.575   3.377   6.493  0.4609 -0.4451 -2.8722
  188SAPI    HB21603   3.603   3.237   6.609  1.9551 -1.1688  0.4619
  188SAPI    C221604   3.780   3.291   6.502 -0.0277  0.1781 -0.8374
  188SAPI    HS21605   3.813   3.286   6.397  1.3290 -0.7125 -0.3944
  188SAPI   O2121606   3.839   3.175   6.578 -1.1007 -0.4530 -0.0232
  188SAPI   C2121607   3.971   3.165   6.577  0.3159  0.1337 -0.2595
  188SAPI   O2221608   4.044   3.220   6.495 -0.8122 -0.0794 -0.3038
  188SAPI   C2221609   4.020   3.093   6.702  0.5594 -0.1218  0.0452
  188SAPI   H2R21610   3.959   3.115   6.793  0.7621 -0.9810  0.4002
  188SAPI   H2S21611   4.021   2.983   6.685  0.9720 -0.3331  1.3065
  188SAPI    C321612   3.814   3.424   6.563  0.1253 -0.6357  0.5357
  188SAPI    HX21613   3.752   3.496   6.506 -0.5309 -1.5882  0.0028
  188SAPI    HY21614   3.920   3.455   6.555 -0.8593  3.3604  1.2151
  188SAPI   O3121615   3.780   3.419   6.703  0.6040 -0.0108  0.0556
  188SAPI   C3121616   3.861   3.459   6.796 -0.2750 -0.4355  0.0395
  188SAPI   O3221617   3.968   3.510   6.779 -0.4972 -0.8022  0.1754
  188SAPI   C3221618   3.791   3.470   6.929 -0.0581 -0.1729 -0.6603
  188SAPI   H2X21619   3.680   3.468   6.925 -0.1430 -1.1753  0.9374
  188SAPI   H2Y21620   3.809   3.568   6.978 -3.1292 -1.1066  2.7473
  188SAPI   C2321621   4.166   3.122   6.738 -0.0873 -0.5124  0.2866
  188SAPI   H3R21622   4.159   3.225   6.781  1.9057 -0.4667  0.6172
  188SAPI   H3S21623   4.230   3.120   6.647  0.7167 -0.6463  0.8335
  188SAPI   C2421624   4.222   3.039   6.847  0.5862  0.0636 -0.0955
  188SAPI   H4R21625   4.165   3.063   6.939  0.8139  0.6122 -0.0909
  188SAPI   H4S21626   4.324   3.079   6.866 -0.0151  0.4631  2.6479
  188SAPI   C2521627   4.234   2.892   6.803 -0.3391 -0.6215 -0.1715
  188SAPI   H5R21628   4.322   2.870   6.741  1.5340  2.1973  1.2488
  188SAPI   C2621629   4.150   2.791   6.824  0.4528 -0.0324 -0.0819
  188SAPI   H6R21630   4.165   2.708   6.753 -0.8854  0.5126 -1.0290
  188SAPI   C2721631   4.022   2.789   6.909 -0.0215 -0.1208 -0.1171
  188SAPI   H7R21632   3.934   2.779   6.842 -0.6311  0.2099  0.6169
  188SAPI   H7S21633   4.012   2.886   6.962  0.1572  0.9486 -1.9712
  188SAPI   C2821634   4.028   2.668   6.992 -0.3473 -0.4362 -0.3577
  188SAPI   H8R21635   4.017   2.575   6.935 -0.2741  0.2248 -1.4628
  188SAPI   C2921636   4.050   2.656   7.124  0.4905  0.5890  0.0251
  188SAPI   H9R21637   4.076   2.555   7.158  2.3415  1.0232 -0.0060
  188SAPI  C21021638   4.067   2.775   7.216  0.6002  0.8234 -0.2135
  188SAPI  H10R21639   3.988   2.762   7.294  0.9173 -1.8244 -0.2500
  188SAPI  H10S21640   4.055   2.875   7.168 -0.2927  1.7072  1.7068
  188SAPI  C21121641   4.199   2.764   7.286 -0.4916 -0.2822  0.4020
  188SAPI  H11R21642   4.276   2.711   7.227  2.4571  1.0778  2.7676
  188SAPI  C21221643   4.241   2.832   7.397 -0.4846  0.0364  0.1217
  188SAPI  H12R21644   4.342   2.804   7.433 -1.1242 -3.1834 -0.2798
  188SAPI  C21321645   4.146   2.919   7.472 -0.7597 -0.3584  1.1840
  188SAPI  H13R21646   4.125   2.871   7.570 -1.3054 -0.1616  1.1677
  188SAPI  H13S21647   4.047   2.925   7.421 -0.0787 -0.3188 -0.1594
  188SAPI  C21421648   4.198   3.051   7.498 -0.4966  0.1405  0.3036
  188SAPI  H14R21649   4.191   3.113   7.408 -0.1799 -0.3753 -0.0827
  188SAPI  C21521650   4.265   3.098   7.605 -1.5302  0.5034 -0.0481
  188SAPI  H15R21651   4.306   3.200   7.605  1.1882 -0.4678 -1.5179
  188SAPI  C21621652   4.306   3.033   7.736 -0.0621 -0.0924 -0.0751
  188SAPI  H16R21653   4.416   3.019   7.739 -0.0660 -0.2367 -0.5384
  188SAPI  H16S21654   4.259   2.933   7.746  0.4914 -0.2849  0.7544
  188SAPI  C21721655   4.263   3.088   7.871 -0.2798  0.1360 -0.1838
  188SAPI  H17R21656   4.287   3.196   7.871  0.7009 -0.0709 -0.3331
  188SAPI  H17S21657   4.316   3.037   7.954 -1.3692 -0.1132  0.3661
  188SAPI  C21821658   4.112   3.062   7.896  0.4193 -0.0463 -0.9616
  188SAPI  H18R21659   4.098   2.952   7.902  0.0504 -0.2330 -3.8909
  188SAPI  H18S21660   4.045   3.103   7.818  1.0088  1.2146 -0.8410
  188SAPI  C21921661   4.082   3.118   8.034  0.0471  0.3801  0.5360
  188SAPI  H19R21662   4.085   3.228   8.014 -1.9865  0.7525  1.9498
  188SAPI  H19S21663   4.159   3.094   8.109 -1.7675  0.1959  2.4369
  188SAPI  C22021664   3.935   3.088   8.069 -0.1302  0.2873 -0.2075
  188SAPI  H20R21665   3.934   2.981   8.099  1.6194  0.2704 -0.0987
  188SAPI  H20S21666   3.850   3.106   8.000 -0.9455  0.2004  0.7542
  188SAPI  H20T21667   3.919   3.137   8.167  0.7408  0.4842 -0.1550
  188SAPI   C3321668   3.838   3.349   7.022  0.4518 -0.0079 -0.4896
  188SAPI   H3X21669   3.839   3.263   6.952  1.0062 -0.1654 -0.2942
  188SAPI   H3Y21670   3.764   3.343   7.105  2.4170  1.4815  1.4951
  188SAPI   C3421671   3.973   3.368   7.092 -0.0459  0.1415 -0.1717
  188SAPI   H4X21672   3.970   3.471   7.134 -1.6719  0.1558 -0.2467
  188SAPI   H4Y21673   4.050   3.362   7.012  0.8884 -1.2516  0.7820
  188SAPI   C3521674   4.018   3.257   7.183  0.1793 -0.0561  0.2426
  188SAPI   H5X21675   4.125   3.262   7.215  0.1071  0.2192  0.4410
  188SAPI   H5Y21676   4.013   3.160   7.128  3.6194 -0.0682 -0.2596
  188SAPI   C3621677   3.942   3.259   7.319 -0.5306 -0.2397  0.9429
  188SAPI   H6X21678   3.970   3.169   7.378 -0.3236 -1.0925 -0.4359
  188SAPI   H6Y21679   3.833   3.265   7.300 -0.0113  0.6073 -2.3108
  188SAPI   C3721680   3.965   3.373   7.413 -0.1457 -1.1586  0.0172
  188SAPI   H7X21681   3.915   3.464   7.374  2.3858 -0.2735 -1.4334
  188SAPI   H7Y21682   4.073   3.395   7.423 -0.3734  0.9379 -1.3474
  188SAPI   C3821683   3.896   3.344   7.547  0.0957  0.6407  0.3403
  188SAPI   H8X21684   3.939   3.250   7.589 -0.6292 -0.2248 -0.8008
  188SAPI   H8Y21685   3.789   3.327   7.521  0.7158 -2.2796 -0.5993
  188SAPI   C3921686   3.912   3.450   7.649 -0.0865 -1.0485  0.7435
  188SAPI   H9X21687   3.868   3.546   7.617  0.8645 -1.2141 -1.1939
  188SAPI   H9Y21688   4.022   3.456   7.661 -0.1968 -0.9721  1.8338
  188SAPI  C31021689   3.853   3.404   7.784 -0.1590 -0.1373  0.5996
  188SAPI  H10X21690   3.899   3.306   7.806  0.5561  0.1917  0.5840
  188SAPI  H10Y21691   3.742   3.404   7.791 -0.2947  0.8741 -1.0161
  188SAPI  C31121692   3.912   3.486   7.896 -0.7149 -0.2576  0.3563
  188SAPI  H11X21693   3.884   3.590   7.870 -0.3696 -0.5115 -1.1255
  188SAPI  H11Y21694   4.023   3.479   7.893 -0.7146 -0.1016  0.0280
  188SAPI  C31221695   3.869   3.440   8.040  0.1177 -1.1697 -0.4888
  188SAPI  H12X21696   3.960   3.416   8.099  0.5571 -0.2029 -0.7595
  188SAPI  H12Y21697   3.789   3.363   8.039 -3.1729  2.0037 -1.0012
  188SAPI  C31321698   3.796   3.551   8.123  0.0808 -0.0647  0.3345
  188SAPI  H13X21699   3.695   3.564   8.080 -0.3561 -0.0761  1.3392
  188SAPI  H13Y21700   3.851   3.647   8.113 -1.2606  0.8420  1.3958
  188SAPI  C31421701   3.784   3.526   8.277 -0.0856  0.0897  0.1097
  188SAPI  H14X21702   3.882   3.521   8.329  0.6231 -0.7577 -1.2312
  188SAPI  H14Y21703   3.747   3.422   8.292  0.8441 -0.6478 -2.2011
  188SAPI  C31521704   3.699   3.635   8.347 -0.2152 -0.1405 -0.0423
  188SAPI  H15X21705   3.615   3.652   8.275 -0.6378 -4.2797 -0.7561
  188SAPI  H15Y21706   3.760   3.726   8.365 -1.2660  0.1191  2.6549
  188SAPI  C31621707   3.661   3.581   8.490 -0.6326  0.0039  0.5068
  188SAPI  H16X21708   3.752   3.569   8.552  0.5548  2.3447 -0.6577
  188SAPI  H16Y21709   3.609   3.483   8.478  1.3557 -0.9871 -0.5179
  188SAPI  C31721710   3.570   3.668   8.578 -0.0409 -0.7928 -0.9788
  188SAPI  H17X21711   3.512   3.599   8.643 -1.1956  2.3440  1.5573
  188SAPI  H17Y21712   3.488   3.713   8.519 -1.5383 -2.3113 -0.1259
  188SAPI  C31821713   3.650   3.773   8.653  0.6620  0.0385 -0.6998
  188SAPI  H18X21714   3.704   3.829   8.573 -1.1473  1.9877 -0.6357
  188SAPI  H18Y21715   3.713   3.729   8.733 -2.1207 -1.8737  0.5980
  188SAPI  H18Z21716   3.585   3.847   8.703 -0.5060 -1.8514  0.6846
  189POPC     N21717   3.720   1.560  11.381  0.2465  0.3664  0.2937
  189POPC   C1221718   3.828   1.637  11.317 -0.3387  0.0015 -0.2885
  189POPC  H12A21719   3.925   1.634  11.364 -0.3579  0.5846 -0.2081
  189POPC  H12B21720   3.795   1.740  11.317 -1.4746 -0.2755 -3.0415
  189POPC   C1321721   3.599   1.570  11.293 -0.5367  0.6580 -0.1601
  189POPC  H13A21722   3.545   1.662  11.305 -2.1176 -0.5175  3.0101
  189POPC  H13B21723   3.628   1.543  11.193  0.8363  0.3439  0.2997
  189POPC  H13C21724   3.531   1.492  11.325 -2.7553  2.4770 -0.2291
  189POPC   C1421725   3.768   1.421  11.416  0.6782 -0.6436  0.7147
  189POPC  H14A21726   3.841   1.431  11.495  0.5508  2.6882  0.5359
  189POPC  H14B21727   3.690   1.354  11.449  0.3180 -1.3766 -1.4211
  189POPC  H14C21728   3.826   1.373  11.339  2.2334 -1.9732  2.6316
  189POPC   C1521729   3.691   1.629  11.514  0.6114  0.0935  0.2659
  189POPC  H15A21730   3.679   1.733  11.489 -2.1876  0.0608  1.1484
  189POPC  H15B21731   3.774   1.609  11.581  0.5052 -1.5442 -0.0398
  189POPC  H15C21732   3.595   1.602  11.553  0.1149  1.6820  0.2082
  189POPC   C1121733   3.855   1.599  11.172  0.0942  0.5475 -0.5809
  189POPC  H11A21734   3.929   1.660  11.116 -2.2521  1.1507 -3.2442
  189POPC  H11B21735   3.765   1.623  11.112  0.1167 -0.3386 -0.9935
  189POPC     P21736   4.045   1.423  11.143  0.4468 -0.1245 -0.1488
  189POPC   O1321737   4.048   1.289  11.088  0.0258 -0.0700  0.4481
  189POPC   O1421738   4.110   1.440  11.272  0.0879 -0.3062 -0.4754
  189POPC   O1221739   3.890   1.460  11.155 -0.4403  0.3645 -0.0720
  189POPC   O1121740   4.114   1.514  11.035  0.1081 -0.3252 -0.2296
  189POPC    C121741   4.082   1.499  10.896 -0.4260  0.1491 -0.4317
  189POPC    HA21742   3.971   1.512  10.888 -0.5097 -0.9161 -1.0861
  189POPC    HB21743   4.097   1.396  10.859  0.3563  0.1488 -0.1339
  189POPC    C221744   4.181   1.597  10.827  0.1188 -0.1990  0.4619
  189POPC    HS21745   4.129   1.691  10.853 -0.7075 -0.4392 -0.2481
  189POPC   O2121746   4.180   1.569  10.681  0.3572  0.1436 -0.6480
  189POPC   C2121747   4.212   1.669  10.608  0.7211 -0.4384 -0.6430
  189POPC   O2221748   4.234   1.781  10.640  0.5113  0.0541 -0.9838
  189POPC   C2221749   4.237   1.618  10.470 -0.1608  0.6725  0.6627
  189POPC   H2R21750   4.146   1.559  10.445 -0.4008  0.9766  0.8132
  189POPC   H2S21751   4.329   1.557  10.487 -0.0407  1.0155  1.2661
  189POPC    C321752   4.321   1.593  10.891  0.4990  0.0588  0.7297
  189POPC    HX21753   4.331   1.484  10.908 -0.9507 -0.1170  0.5814
  189POPC    HY21754   4.311   1.650  10.986 -1.1414  2.5077 -0.7762
  189POPC   O3121755   4.424   1.657  10.814 -0.1932 -0.5585  0.0143
  189POPC   C3121756   4.536   1.664  10.886  0.8106  0.4848  0.2116
  189POPC   O3221757   4.552   1.613  10.997  0.0735 -0.2542 -0.0540
  189POPC   C3221758   4.650   1.714  10.800 -0.0744 -0.0526 -0.2722
  189POPC   H2X21759   4.741   1.713  10.864  0.0005  1.7207 -0.2813
  189POPC   H2Y21760   4.628   1.822  10.783  0.2524 -0.0406 -0.6361
  189POPC   C2321761   4.267   1.733  10.364  0.3330 -0.0517  0.2603
  189POPC   H3R21762   4.355   1.788  10.404  0.5236  0.1123 -0.3707
  189POPC   H3S21763   4.183   1.804  10.378 -0.2212 -0.4357 -1.0010
  189POPC   C2421764   4.284   1.674  10.219 -0.6056 -0.2080  0.2006
  189POPC   H4R21765   4.185   1.627  10.203 -0.0122 -0.7217 -2.3989
  189POPC   H4S21766   4.360   1.595  10.206 -0.9494 -0.6607  0.8713
  189POPC   C2521767   4.295   1.782  10.105 -0.6599  0.3150  0.1112
  189POPC   H5R21768   4.382   1.846  10.132  0.4182 -0.0029 -2.3050
  189POPC   H5S21769   4.211   1.854  10.098 -0.1752  1.1201  2.1009
  189POPC   C2621770   4.309   1.719   9.962 -0.1955 -0.4295  0.5257
  189POPC   H6R21771   4.225   1.647   9.950 -1.2488  0.5546  1.6971
  189POPC   H6S21772   4.405   1.665   9.948  0.2606  0.8300 -1.6453
  189POPC   C2721773   4.304   1.823   9.848  0.6238 -0.2707  0.1961
  189POPC   H7R21774   4.396   1.884   9.843  0.8195 -0.6609 -1.5932
  189POPC   H7S21775   4.221   1.889   9.880 -1.1289 -2.4881  0.5055
  189POPC   C2821776   4.263   1.766   9.716  0.2710  0.7614  0.2707
  189POPC   H8R21777   4.168   1.709   9.726 -0.2893  1.8801  1.6968
  189POPC   H8S21778   4.338   1.695   9.676 -1.3522  0.0953 -1.7361
  189POPC   C2921779   4.228   1.885   9.628  0.6489 -0.0504  1.3904
  189POPC   H9121780   4.147   1.953   9.657  0.1869 -0.0851  0.2330
  189POPC  C21021781   4.284   1.914   9.506  0.2174 -0.3205 -0.5268
  189POPC  H10121782   4.251   2.006   9.457  0.8557 -0.0890 -0.5324
  189POPC  C21121783   4.381   1.829   9.424 -0.3383 -0.7451 -0.3428
  189POPC  H11R21784   4.410   1.734   9.474  1.9509  0.4131  0.7447
  189POPC  H11S21785   4.478   1.883   9.428 -0.1502 -1.0461 -0.7646
  189POPC  C21221786   4.335   1.817   9.278 -0.5961 -0.3506  1.3408
  189POPC  H12R21787   4.230   1.782   9.268 -0.7673 -0.0400  2.0486
  189POPC  H12S21788   4.383   1.727   9.234 -1.1596  0.3204 -0.7927
  189POPC  C21321789   4.364   1.939   9.190 -0.7659 -0.5988  0.3467
  189POPC  H13R21790   4.342   2.039   9.235  1.2879 -0.1101  0.3865
  189POPC  H13S21791   4.292   1.927   9.106 -0.9447 -1.8804  0.6620
  189POPC  C21421792   4.503   1.955   9.125 -0.4106  0.8007  0.0854
  189POPC  H14R21793   4.534   1.852   9.095  0.4089  1.5958 -1.9924
  189POPC  H14S21794   4.574   1.992   9.201  0.0462 -2.4752  1.4093
  189POPC  C21521795   4.498   2.045   9.002  0.2631 -0.1648 -0.6153
  189POPC  H15R21796   4.431   2.124   9.043 -1.2867 -1.0311 -1.3749
  189POPC  H15S21797   4.452   1.985   8.920 -0.5525 -2.6787  1.5294
  189POPC  C21621798   4.637   2.099   8.956  0.4149 -0.5244  0.2636
  189POPC  H16R21799   4.710   2.024   8.917  1.0581 -0.8659  2.0163
  189POPC  H16S21800   4.678   2.142   9.050  0.2157 -0.0716  0.1438
  189POPC  C21721801   4.630   2.215   8.853  0.1837 -0.1875 -0.1863
  189POPC  H17R21802   4.729   2.263   8.845 -0.9976  2.2449 -1.3236
  189POPC  H17S21803   4.563   2.292   8.899  1.3872  0.8164 -0.0720
  189POPC  C21821804   4.594   2.176   8.715  0.5167  0.2677  0.7713
  189POPC  H18R21805   4.580   2.260   8.644 -1.7003 -0.3036  0.4465
  189POPC  H18S21806   4.499   2.117   8.713  0.2573  0.6812 -1.0574
  189POPC  H18T21807   4.672   2.106   8.678 -0.5758 -1.4699  1.5998
  189POPC   C3321808   4.669   1.640  10.666 -1.1271 -0.1069 -0.6574
  189POPC   H3X21809   4.593   1.659  10.587  2.1136  0.9982 -3.8054
  189POPC   H3Y21810   4.660   1.532  10.689  2.9367 -0.5321 -0.3600
  189POPC   C3421811   4.792   1.691  10.583 -0.8505  0.4916 -0.5688
  189POPC   H4X21812   4.878   1.665  10.649 -1.2293 -0.7726 -0.5333
  189POPC   H4Y21813   4.801   1.801  10.572  3.4485  0.3584 -0.0768
  189POPC   C3521814   4.815   1.624  10.446  0.0020  0.1240 -0.1857
  189POPC   H5X21815   4.815   1.514  10.461 -1.2721  0.0686 -0.4701
  189POPC   H5Y21816   4.917   1.657  10.418 -0.1249 -1.0153 -2.1662
  189POPC   C3621817   4.731   1.680  10.330 -0.1963  0.1094  0.2237
  189POPC   H6X21818   4.733   1.791  10.331  2.3006  0.1212  0.6260
  189POPC   H6Y21819   4.628   1.644  10.349 -0.1624 -1.3654 -1.9455
  189POPC   C3721820   4.778   1.630  10.195  0.9419  0.9353 -0.6823
  189POPC   H7X21821   4.789   1.519  10.200 -4.6337  0.1473  1.0720
  189POPC   H7Y21822   4.875   1.677  10.170  0.6255  0.8024 -2.2446
  189POPC   C3821823   4.680   1.657  10.075 -0.7838  0.5716  0.3987
  189POPC   H8X21824   4.640   1.759  10.092  2.0524  1.9117 -0.2810
  189POPC   H8Y21825   4.597   1.585  10.085 -1.2172  1.3513  3.4132
  189POPC   C3921826   4.756   1.657   9.940  0.5169 -0.1961 -0.1352
  189POPC   H9X21827   4.809   1.559   9.939 -1.0021 -1.1814  2.7494
  189POPC   H9Y21828   4.834   1.737   9.943  0.9135 -0.3448 -3.2752
  189POPC  C31021829   4.662   1.673   9.824  0.1852 -0.0470 -0.4129
  189POPC  H10X21830   4.592   1.758   9.834  0.9604  0.8453 -2.1217
  189POPC  H10Y21831   4.601   1.581   9.815 -0.9408  0.2391  2.9078
  189POPC  C31121832   4.754   1.695   9.705 -0.1757  0.5015  0.3360
  189POPC  H11X21833   4.835   1.619   9.697 -1.2414 -0.6634  0.3140
  189POPC  H11Y21834   4.790   1.800   9.714  0.4690  0.4815 -1.6412
  189POPC  C31221835   4.680   1.689   9.573  0.0671  0.0427 -0.5440
  189POPC  H12X21836   4.575   1.721   9.585  0.4570  1.3634 -0.4371
  189POPC  H12Y21837   4.673   1.581   9.549 -0.4443  0.0139 -0.2730
  189POPC  C31321838   4.763   1.756   9.463 -0.4736 -0.6867 -0.1167
  189POPC  H13X21839   4.873   1.746   9.477 -0.3805 -1.4470 -1.2481
  189POPC  H13Y21840   4.754   1.867   9.473  0.3711 -0.3973 -2.1493
  189POPC  C31421841   4.734   1.724   9.317 -0.1914 -0.2279  0.4651
  189POPC  H14X21842   4.629   1.754   9.295  0.5932  2.4729  0.0361
  189POPC  H14Y21843   4.740   1.615   9.299 -1.9881 -0.7984  2.8207
  189POPC  C31521844   4.812   1.808   9.216  0.5415 -0.4431  0.4589
  189POPC  H15X21845   4.796   1.915   9.243  0.8789  0.1830 -1.6251
  189POPC  H15Y21846   4.767   1.797   9.115  0.2782  1.8425  0.2750
  189POPC  C31621847   4.961   1.773   9.208  0.1998 -0.2680  0.2251
  189POPC  H16X21848   5.010   1.784   9.308 -0.1229 -0.5641  0.4188
  189POPC  H16Y21849   5.006   1.844   9.136  0.4857 -0.1708  0.4944
  189POPC  H16Z21850   4.984   1.670   9.172  2.5425  1.2066 -2.9347
  190POPC     N21851   1.743   5.785  11.233  0.1158 -0.0631  0.7077
  190POPC   C1221852   1.881   5.751  11.189  0.6032 -1.0140  0.4517
  190POPC  H12A21853   1.950   5.819  11.236 -1.1846  2.0470 -1.0893
  190POPC  H12B21854   1.890   5.769  11.083 -0.3145 -2.5963  0.0661
  190POPC   C1321855   1.738   5.931  11.216  0.0861 -0.0686  0.4047
  190POPC  H13A21856   1.722   5.981  11.310 -0.2966 -0.4040  0.5203
  190POPC  H13B21857   1.828   5.973  11.174 -1.1142  1.2103 -1.0167
  190POPC  H13C21858   1.659   5.954  11.147  1.4706 -1.3566 -1.7323
  190POPC   C1421859   1.639   5.714  11.147  0.6600 -0.1328 -0.2474
  190POPC  H14A21860   1.540   5.726  11.188  0.1663 -2.8725 -0.4736
  190POPC  H14B21861   1.633   5.768  11.053 -0.4497  0.8398  0.3604
  190POPC  H14C21862   1.656   5.609  11.133 -1.7562 -0.4857 -0.9156
  190POPC   C1521863   1.728   5.752  11.377  0.2250 -0.0433  0.7976
  190POPC  H15A21864   1.798   5.672  11.395  1.0559  0.0391 -1.6580
  190POPC  H15B21865   1.629   5.726  11.411  0.1600  1.3810  1.7999
  190POPC  H15C21866   1.774   5.827  11.440  1.3221  1.2296 -1.3862
  190POPC   C1121867   1.927   5.599  11.204  0.8064  0.2264 -0.5751
  190POPC  H11A21868   1.905   5.579  11.311  3.5534 -1.9158 -0.2899
  190POPC  H11B21869   2.037   5.589  11.189  0.4900 -1.4230 -2.0246
  190POPC     P21870   1.902   5.494  10.972  0.5667  0.0506  0.4117
  190POPC   O1321871   1.783   5.434  10.909 -0.0639 -0.5071  0.2460
  190POPC   O1421872   2.032   5.422  10.963  0.7665 -0.1134  0.0556
  190POPC   O1221873   1.854   5.515  11.118 -0.0203  0.0387  0.2421
  190POPC   O1121874   1.919   5.639  10.921 -0.1549 -0.0232  0.0076
  190POPC    C121875   1.992   5.687  10.803 -0.1715 -0.1960 -0.4811
  190POPC    HA21876   2.076   5.615  10.790  0.1252  0.0590  0.0241
  190POPC    HB21877   2.037   5.783  10.835  1.9786 -1.1568 -0.4068
  190POPC    C221878   1.905   5.730  10.678 -0.4955 -0.5813 -0.3465
  190POPC    HS21879   1.819   5.789  10.717  0.7460 -0.2464  2.0290
  190POPC   O2121880   1.858   5.611  10.612 -0.1690 -0.3380  0.0836
  190POPC   C2121881   1.772   5.628  10.515 -1.0978 -0.0248 -0.9317
  190POPC   O2221882   1.711   5.724  10.489  0.5425  0.0111  1.0020
  190POPC   C2221883   1.739   5.490  10.461 -0.0188 -0.0384 -0.1370
  190POPC   H2R21884   1.726   5.422  10.548  0.7057 -3.9951 -2.8239
  190POPC   H2S21885   1.833   5.450  10.416  0.4479  2.4756 -1.5832
  190POPC    C321886   1.982   5.825  10.589 -0.7513 -0.1428  0.3628
  190POPC    HX21887   2.048   5.901  10.636 -1.0739  0.3646 -0.0030
  190POPC    HY21888   1.914   5.888  10.529 -0.6799 -0.5305 -0.1350
  190POPC   O3121889   2.066   5.745  10.499 -0.0044 -0.4418 -0.6021
  190POPC   C3121890   2.198   5.732  10.515 -0.6703 -0.0278 -0.1441
  190POPC   O3221891   2.273   5.788  10.597  0.4436  0.0782 -0.2639
  190POPC   C3221892   2.247   5.627  10.424 -0.3449  0.0930  0.1861
  190POPC   H2X21893   2.174   5.544  10.438  0.2203 -0.4072  0.2215
  190POPC   H2Y21894   2.344   5.585  10.457 -0.9847 -3.3924 -1.7707
  190POPC   C2321895   1.617   5.492  10.366  0.0146  0.0851  0.1533
  190POPC   H3R21896   1.533   5.541  10.419 -0.8720 -0.9003 -0.3178
  190POPC   H3S21897   1.590   5.387  10.342  0.6692  0.1421 -0.8729
  190POPC   C2421898   1.642   5.563  10.232 -0.0463 -0.1227 -0.3164
  190POPC   H4R21899   1.637   5.674  10.238  1.7410 -0.0387  0.1969
  190POPC   H4S21900   1.561   5.530  10.163 -1.1154 -0.5081  1.0741
  190POPC   C2521901   1.768   5.517  10.167 -0.5910  0.6946 -0.8256
  190POPC   H5R21902   1.862   5.559  10.207 -0.3001 -0.7406  0.0770
  190POPC   H5S21903   1.760   5.549  10.061 -0.0946 -0.2790 -1.1718
  190POPC   C2621904   1.786   5.360  10.159  0.3908  0.5224 -0.4544
  190POPC   H6R21905   1.693   5.310  10.126  0.7362  1.3849 -2.9691
  190POPC   H6S21906   1.801   5.311  10.257  2.1327  0.5512 -0.6656
  190POPC   C2721907   1.900   5.300  10.077 -0.0796  0.1274  0.7492
  190POPC   H7R21908   1.907   5.192  10.104  2.3490  0.0768  0.1710
  190POPC   H7S21909   1.995   5.348  10.107  0.0806  0.7584 -0.6958
  190POPC   C2821910   1.884   5.312   9.921 -0.2142 -0.0015  0.2641
  190POPC   H8R21911   1.980   5.278   9.877 -1.2731 -0.4406 -1.8379
  190POPC   H8S21912   1.872   5.419   9.893 -2.6580 -0.2455  0.1930
  190POPC   C2921913   1.770   5.231   9.862 -0.0925  0.3576 -0.5643
  190POPC   H9121914   1.790   5.123   9.866 -1.4425  0.1209  2.0092
  190POPC  C21021915   1.660   5.285   9.806  0.3740 -0.0442  0.0335
  190POPC  H10121916   1.582   5.210   9.787  0.3743 -0.4980  1.7011
  190POPC  C21121917   1.623   5.434   9.796 -0.3720 -0.6789  0.2410
  190POPC  H11R21918   1.677   5.499   9.869 -2.9262  0.7712  0.9773
  190POPC  H11S21919   1.514   5.438   9.819 -0.8873  1.5943 -2.0961
  190POPC  C21221920   1.649   5.500   9.657  0.6438  0.6256 -0.3551
  190POPC  H12R21921   1.750   5.477   9.617  1.0496  0.7923  0.5676
  190POPC  H12S21922   1.628   5.609   9.665  2.4133  0.9557  0.1602
  190POPC  C21321923   1.547   5.458   9.553  0.8461  0.4421 -0.6317
  190POPC  H13R21924   1.443   5.481   9.582  0.2545 -0.5255 -1.9207
  190POPC  H13S21925   1.540   5.349   9.534 -0.6900  0.6151 -1.1379
  190POPC  C21421926   1.572   5.522   9.416  0.3860  0.1997  0.0801
  190POPC  H14R21927   1.667   5.510   9.361  0.2693  1.0238 -0.3174
  190POPC  H14S21928   1.560   5.632   9.417  0.5473  0.2275 -0.6020
  190POPC  C21521929   1.463   5.470   9.320 -0.0926 -0.3221 -0.6243
  190POPC  H15R21930   1.362   5.491   9.361 -0.1525 -0.4496 -0.7041
  190POPC  H15S21931   1.474   5.360   9.318 -1.3849 -0.4664 -1.2130
  190POPC  C21621932   1.477   5.545   9.186  0.3159 -0.2128  0.1190
  190POPC  H16R21933   1.527   5.641   9.212  0.7684 -0.9669  2.2360
  190POPC  H16S21934   1.377   5.571   9.147 -0.9683 -0.3747  3.0611
  190POPC  C21721935   1.556   5.461   9.090 -0.7550 -0.2802 -0.1060
  190POPC  H17R21936   1.512   5.361   9.069  1.3522 -0.8690 -2.1757
  190POPC  H17S21937   1.658   5.440   9.129 -1.1863  1.6310  2.3306
  190POPC  C21821938   1.575   5.514   8.943 -0.3777 -0.0761 -0.4154
  190POPC  H18R21939   1.476   5.547   8.906 -0.7812  0.5452  1.1594
  190POPC  H18S21940   1.634   5.442   8.882  0.9137 -1.1208  1.9015
  190POPC  H18T21941   1.636   5.607   8.952 -1.0868  0.5182 -1.5700
  190POPC   C3321942   2.265   5.676  10.280  0.2189 -0.2252  0.4912
  190POPC   H3X21943   2.363   5.719  10.252 -0.8697  1.4680 -0.9677
  190POPC   H3Y21944   2.184   5.752  10.269  1.2124  1.4526  3.5289
  190POPC   C3421945   2.231   5.574  10.170  0.4447 -0.0518  0.3146
  190POPC   H4X21946   2.124   5.550  10.184  0.7423 -0.8467  1.2923
  190POPC   H4Y21947   2.297   5.485  10.180 -0.6480 -0.8243  0.8226
  190POPC   C3521948   2.249   5.631  10.027  0.2417 -0.4044 -0.8291
  190POPC   H5X21949   2.358   5.646  10.013  0.4630  1.3286  2.1090
  190POPC   H5Y21950   2.185   5.721  10.013  0.3061 -0.5003 -1.8578
  190POPC   C3621951   2.189   5.529   9.928 -0.1196  0.2138 -0.5617
  190POPC   H6X21952   2.087   5.504   9.964 -0.0401 -1.0904 -1.1700
  190POPC   H6Y21953   2.243   5.431   9.930 -0.8045 -0.1541  1.3521
  190POPC   C3721954   2.185   5.587   9.787 -0.2744 -0.3429  0.5337
  190POPC   H7X21955   2.286   5.615   9.751 -1.1375  1.7253 -0.4073
  190POPC   H7Y21956   2.134   5.685   9.792 -0.9649 -0.7011  0.7309
  190POPC   C3821957   2.126   5.485   9.686  0.1089  0.1795 -0.0694
  190POPC   H8X21958   2.025   5.455   9.721  0.0949 -0.8305 -0.9238
  190POPC   H8Y21959   2.190   5.395   9.685  1.7123  1.2282  1.6552
  190POPC   C3921960   2.136   5.533   9.543  0.3158 -0.8047 -0.5612
  190POPC   H9X21961   2.243   5.545   9.517  0.0958 -1.2653 -1.7491
  190POPC   H9Y21962   2.098   5.637   9.536  0.4581 -0.7192 -0.1115
  190POPC  C31021963   2.054   5.452   9.449  0.1358  1.2219  0.0635
  190POPC  H10X21964   1.945   5.444   9.469  0.5836 -1.5216  1.9961
  190POPC  H10Y21965   2.102   5.352   9.452 -1.2156  0.4906 -1.1431
  190POPC  C31121966   2.077   5.490   9.296 -0.0105 -0.0652 -0.7721
  190POPC  H11X21967   2.186   5.480   9.276  0.6936  1.7404  1.6176
  190POPC  H11Y21968   2.050   5.598   9.290 -0.2919 -0.0263  0.6575
  190POPC  C31221969   1.999   5.402   9.205  0.1301 -0.1859 -0.1160
  190POPC  H12X21970   1.905   5.380   9.259  0.5075 -1.7736 -0.0512
  190POPC  H12Y21971   2.050   5.304   9.190  3.4441  1.3340  0.2509
  190POPC  C31321972   1.964   5.461   9.072 -0.7060 -0.1537 -0.2526
  190POPC  H13X21973   1.914   5.559   9.091 -0.1015 -0.0787  1.0780
  190POPC  H13Y21974   1.894   5.394   9.016 -0.9751  0.6272 -0.8754
  190POPC  C31421975   2.088   5.486   8.976  0.5263  0.3738 -0.2597
  190POPC  H14X21976   2.124   5.386   8.943 -2.0050 -0.5726 -0.4208
  190POPC  H14Y21977   2.172   5.524   9.037  0.0001 -2.1035  2.2239
  190POPC  C31521978   2.049   5.570   8.853 -0.3343  0.1155  0.5897
  190POPC  H15X21979   2.144   5.577   8.796  0.0413  2.4525  1.4099
  190POPC  H15Y21980   2.036   5.675   8.888 -2.5257  1.6253 -3.9636
  190POPC  C31621981   1.935   5.526   8.764  0.5342 -0.1587  0.0588
  190POPC  H16X21982   1.952   5.425   8.721  0.7199  0.5235 -1.5531
  190POPC  H16Y21983   1.925   5.600   8.682  0.9389 -0.4375 -0.2444
  190POPC  H16Z21984   1.843   5.524   8.826  0.8596 -0.3515  0.5474
  191POPC     N21985   4.680   0.184   6.404  1.1217  0.4675 -0.3637
  191POPC   C1221986   4.570   0.288   6.388  1.0758 -0.5969 -0.1239
  191POPC  H12A21987   4.543   0.332   6.483  1.3926  0.2524 -0.4245
  191POPC  H12B21988   4.484   0.237   6.346  1.2846 -1.9982  1.0504
  191POPC   C1321989   4.724   0.145   6.261  0.9449 -0.1861  0.2111
  191POPC  H13A21990   4.733   0.229   6.193 -0.4441  0.4669  0.7868
  191POPC  H13B21991   4.824   0.104   6.259  1.0580  0.0458  0.9077
  191POPC  H13C21992   4.660   0.067   6.222  0.6818 -1.1283  2.3914
  191POPC   C1421993   4.796   0.237   6.469  0.1261  0.1976  0.1924
  191POPC  H14A21994   4.773   0.265   6.570  3.1249 -2.0302  1.6363
  191POPC  H14B21995   4.886   0.178   6.471 -0.8081 -1.3205 -0.1087
  191POPC  H14C21996   4.824   0.329   6.420 -2.2299  0.8972  0.0117
  191POPC   C1521997   4.628   0.057   6.467  0.7644 -0.5336 -0.0187
  191POPC  H15A21998   4.602   0.081   6.570 -0.1571 -0.2219 -0.3152
  191POPC  H15B21999   4.704  -0.020   6.469 -0.7125 -2.0412  1.9242
  191POPC  H15C22000   4.540   0.025   6.413  0.6883  2.6147 -2.0464
  191POPC   C1122001   4.594   0.412   6.298 -0.6864  0.0392  0.3369
  191POPC  H11A22002   4.491   0.443   6.271 -0.1282  1.1117 -0.6738
  191POPC  H11B22003   4.650   0.377   6.209  0.6186  0.8967  0.7779
  191POPC     P22004   4.775   0.600   6.319 -0.2617 -0.1209  0.1818
  191POPC   O1322005   4.733   0.671   6.200 -0.0074 -0.2047  0.2140
  191POPC   O1422006   4.899   0.523   6.311  0.2797 -0.0334 -0.0289
  191POPC   O1222007   4.657   0.514   6.376  0.2935 -0.3050 -0.4770
  191POPC   O1122008   4.803   0.701   6.433  0.3902 -0.3836 -0.2408
  191POPC    C122009   4.743   0.672   6.561  0.0068  0.6942  0.1122
  191POPC    HA22010   4.750   0.564   6.588  0.3414 -0.0799 -2.7004
  191POPC    HB22011   4.639   0.710   6.567  0.2307  1.2044  0.8249
  191POPC    C222012   4.815   0.746   6.683  0.2570  0.1487  0.3756
  191POPC    HS22013   4.772   0.848   6.668 -2.3103 -1.1751 -2.4222
  191POPC   O2122014   4.957   0.724   6.675  0.2620 -0.2597 -0.0367
  191POPC   C2122015   5.009   0.818   6.605 -0.6386  0.1281 -0.0924
  191POPC   O2222016   4.961   0.923   6.570 -0.4108 -0.0430 -0.0649
  191POPC   C2222017   5.143   0.775   6.555 -0.1662  0.5289 -0.1411
  191POPC   H2R22018   5.129   0.749   6.448 -1.3343 -2.4182  0.6245
  191POPC   H2S22019   5.180   0.690   6.616 -1.1178  1.2122  1.4350
  191POPC    C322020   4.763   0.696   6.822 -0.3134  0.2759  0.1663
  191POPC    HX22021   4.769   0.585   6.827 -1.2518  0.0890 -1.8451
  191POPC    HY22022   4.657   0.724   6.834 -0.6811 -1.5547  1.8140
  191POPC   O3122023   4.831   0.766   6.931  0.4448 -0.0373 -0.2060
  191POPC   C3122024   4.944   0.705   6.973  0.5747 -0.6394  0.1966
  191POPC   O3222025   4.996   0.612   6.916  0.3745 -0.1121  0.6635
  191POPC   C3222026   5.004   0.785   7.092 -0.3248 -0.3746 -0.0673
  191POPC   H2X22027   4.939   0.874   7.085 -0.0643 -0.2582 -1.1391
  191POPC   H2Y22028   5.107   0.822   7.073 -1.0795  2.6642  1.2103
  191POPC   C2322029   5.251   0.887   6.540 -0.5643  0.2101  0.0350
  191POPC   H3R22030   5.205   0.977   6.496  0.1695  0.5885  0.0206
  191POPC   H3S22031   5.330   0.852   6.469 -0.1536  3.7261 -1.4596
  191POPC   C2422032   5.323   0.945   6.663 -0.2748  0.1754  0.4532
  191POPC   H4R22033   5.422   0.988   6.635 -0.0742 -1.4501 -1.5708
  191POPC   H4S22034   5.346   0.855   6.723 -1.7987 -1.1131 -0.8236
  191POPC   C2522035   5.247   1.048   6.745 -0.3392  0.0848 -0.0465
  191POPC   H5R22036   5.174   0.996   6.810  1.3837  0.3976  2.2572
  191POPC   H5S22037   5.201   1.109   6.663 -1.9967 -1.4903 -0.3594
  191POPC   C2622038   5.335   1.141   6.831  0.4630  0.1327 -0.1372
  191POPC   H6R22039   5.265   1.216   6.874 -0.6816 -1.3011  0.5860
  191POPC   H6S22040   5.390   1.205   6.759 -1.9348  1.5392 -0.8229
  191POPC   C2722041   5.414   1.074   6.945  0.2463  0.6608  0.2850
  191POPC   H7R22042   5.484   1.153   6.977  0.5930  1.8384 -3.0226
  191POPC   H7S22043   5.484   1.000   6.903  0.3118  1.4152 -0.9837
  191POPC   C2822044   5.347   1.015   7.060  0.2604  0.0934 -0.0503
  191POPC   H8R22045   5.420   0.967   7.128 -0.2142 -1.2773 -0.4689
  191POPC   H8S22046   5.281   0.935   7.020 -2.6307  2.2616  0.0829
  191POPC   C2922047   5.269   1.118   7.138  0.3446 -0.1013 -0.4291
  191POPC   H9122048   5.181   1.154   7.082 -0.3142 -0.4881  0.3453
  191POPC  C21022049   5.274   1.141   7.269 -0.1230 -0.2462 -0.8875
  191POPC  H10122050   5.192   1.207   7.302  0.5555  0.7547 -1.1644
  191POPC  C21122051   5.365   1.075   7.374  0.1862 -0.3770 -0.4327
  191POPC  H11R22052   5.471   1.077   7.340  0.3268 -2.8591 -0.3094
  191POPC  H11S22053   5.340   0.971   7.405 -2.7536  0.2344 -0.4795
  191POPC  C21222054   5.364   1.156   7.499 -0.0639  0.0152  0.5837
  191POPC  H12R22055   5.299   1.246   7.489 -1.3013 -0.9588 -0.6869
  191POPC  H12S22056   5.466   1.190   7.526 -0.6853  1.5880  1.0409
  191POPC  C21322057   5.322   1.086   7.630  0.3095 -0.1750  0.1789
  191POPC  H13R22058   5.376   0.989   7.631 -0.9874 -0.9264  2.0560
  191POPC  H13S22059   5.216   1.054   7.625 -0.0656  1.0228  0.0810
  191POPC  C21422060   5.338   1.175   7.752  0.0308  0.0506 -0.5382
  191POPC  H14R22061   5.292   1.274   7.736 -1.2742 -0.7404 -1.8759
  191POPC  H14S22062   5.447   1.189   7.774 -0.2838 -0.4900  1.6152
  191POPC  C21522063   5.280   1.102   7.871  0.3373 -0.6914 -0.7188
  191POPC  H15R22064   5.329   1.002   7.877  2.7566  0.4380 -0.2470
  191POPC  H15S22065   5.172   1.080   7.860  0.2026 -0.0853 -0.6365
  191POPC  C21622066   5.307   1.184   8.004  0.4653  0.6892 -0.0228
  191POPC  H16R22067   5.239   1.272   8.006  2.0293  1.9463  0.5025
  191POPC  H16S22068   5.410   1.226   7.997  0.3179  0.9074 -1.0537
  191POPC  C21722069   5.289   1.113   8.131 -0.2902 -0.7005 -0.4361
  191POPC  H17R22070   5.370   1.036   8.129  1.2156  0.8057 -0.1768
  191POPC  H17S22071   5.190   1.064   8.124 -0.5896 -0.0580 -0.8664
  191POPC  C21822072   5.295   1.195   8.265 -0.7272  0.0704  0.3685
  191POPC  H18R22073   5.268   1.123   8.345 -0.6726  1.0550  1.3000
  191POPC  H18S22074   5.211   1.267   8.276 -0.8234 -0.1786  1.3469
  191POPC  H18T22075   5.393   1.241   8.291  0.1773  0.6582 -3.5293
  191POPC   C3322076   5.016   0.711   7.224  0.2902  0.3279  0.3930
  191POPC   H3X22077   5.071   0.615   7.213  0.0110 -0.0122  1.8612
  191POPC   H3Y22078   4.915   0.684   7.261  0.2333 -0.3411 -0.2363
  191POPC   C3422079   5.086   0.785   7.341 -0.5784  0.3483 -0.8262
  191POPC   H4X22080   5.049   0.890   7.349  1.1672  0.9118  0.3306
  191POPC   H4Y22081   5.197   0.786   7.333 -0.5283 -2.2607 -1.4000
  191POPC   C3522082   5.057   0.714   7.479  0.8764  0.0075  0.1333
  191POPC   H5X22083   5.110   0.617   7.488 -0.3074 -0.8494 -1.4252
  191POPC   H5Y22084   4.949   0.688   7.469  0.5525  1.7378 -1.6548
  191POPC   C3622085   5.081   0.805   7.599 -0.0562  0.6340  0.7113
  191POPC   H6X22086   5.018   0.896   7.612 -1.9609 -0.8536  2.7996
  191POPC   H6Y22087   5.185   0.843   7.605 -0.5608  1.9739  1.4459
  191POPC   C3722088   5.023   0.729   7.723 -0.6032 -0.1043 -0.6406
  191POPC   H7X22089   5.056   0.624   7.710  0.1527 -0.1720  1.5139
  191POPC   H7Y22090   4.913   0.736   7.709 -0.5262  2.7564 -0.5094
  191POPC   C3822091   5.056   0.791   7.865  0.6235 -0.4484  0.0386
  191POPC   H8X22092   5.022   0.896   7.880 -1.6559 -1.3726  1.9673
  191POPC   H8Y22093   5.167   0.795   7.863  0.7091 -2.1479 -0.1189
  191POPC   C3922094   4.984   0.702   7.975 -0.2219  0.1464 -0.2969
  191POPC   H9X22095   5.017   0.596   7.966 -0.4752  0.2222 -2.7190
  191POPC   H9Y22096   4.873   0.700   7.962 -0.4062 -0.4995  1.1005
  191POPC  C31022097   5.000   0.762   8.112 -0.3514  0.4979 -0.1640
  191POPC  H10X22098   4.972   0.869   8.111 -0.7427  0.4050  0.2088
  191POPC  H10Y22099   5.106   0.746   8.140 -0.4675 -1.9374 -0.8099
  191POPC  C31122100   4.916   0.694   8.217  0.3254 -0.1823 -0.9163
  191POPC  H11X22101   4.905   0.584   8.206 -2.9616  0.2884 -4.1147
  191POPC  H11Y22102   4.814   0.733   8.199 -0.5899 -1.2594  1.5340
  191POPC  C31222103   4.950   0.731   8.365 -0.1066 -0.3770  0.6083
  191POPC  H12X22104   4.948   0.841   8.382 -0.1785 -0.2925  0.0579
  191POPC  H12Y22105   5.052   0.695   8.392 -0.2526 -0.0770  1.6018
  191POPC  C31322106   4.850   0.668   8.467  0.0261 -0.3473  0.2398
  191POPC  H13X22107   4.843   0.557   8.457  0.7443 -0.2495 -1.8851
  191POPC  H13Y22108   4.753   0.707   8.430 -0.0802 -0.8201  0.0111
  191POPC  C31422109   4.867   0.714   8.615 -0.6319  0.4481 -0.7353
  191POPC  H14X22110   4.782   0.663   8.664  0.5191 -0.4485  0.3899
  191POPC  H14Y22111   4.867   0.825   8.628 -0.0926  0.3330  0.3139
  191POPC  C31522112   5.001   0.669   8.681  0.6945  0.0308  0.4839
  191POPC  H15X22113   5.092   0.709   8.631  2.1112 -2.6969  0.7024
  191POPC  H15Y22114   5.002   0.558   8.672 -1.8029 -0.0998  1.1661
  191POPC  C31622115   5.013   0.700   8.830  0.1853  0.2069 -0.4036
  191POPC  H16X22116   5.110   0.679   8.879  0.0707  0.7904  0.0871
  191POPC  H16Y22117   4.939   0.635   8.882  0.1318  0.2370 -0.4423
  191POPC  H16Z22118   4.982   0.806   8.839 -1.4563 -0.3560  1.2209
  192POPC     N22119   4.082   4.004   6.137  0.4926  0.5240 -0.4106
  192POPC   C1222120   3.967   4.018   6.239 -0.0645  0.3015 -0.0366
  192POPC  H12A22121   3.893   3.941   6.223  0.5019 -0.2158 -0.2533
  192POPC  H12B22122   3.906   4.105   6.221  0.0330  0.1738 -1.0424
  192POPC   C1322123   4.140   3.868   6.151 -0.3292 -0.2936  0.3210
  192POPC  H13A22124   4.229   3.865   6.090  0.0645  0.0550  0.8643
  192POPC  H13B22125   4.168   3.858   6.255 -2.1389 -1.3801  0.7499
  192POPC  H13C22126   4.067   3.792   6.125  0.3279 -0.5785 -0.7379
  192POPC   C1422127   4.020   4.015   6.004 -1.0315 -0.4639  0.0664
  192POPC  H14A22128   4.029   4.109   5.951 -1.1431 -0.5275 -0.0685
  192POPC  H14B22129   4.084   3.948   5.947  0.8762  0.3539  1.1327
  192POPC  H14C22130   3.919   3.979   5.992 -1.7000  1.6407 -1.1725
  192POPC   C1522131   4.179   4.116   6.150 -0.2368  0.0387  0.2021
  192POPC  H15A22132   4.209   4.126   6.253  0.4712 -1.1249  0.1367
  192POPC  H15B22133   4.125   4.206   6.125 -1.3863 -1.3424 -2.9185
  192POPC  H15C22134   4.254   4.096   6.074 -3.0206 -3.1813 -1.9757
  192POPC   C1122135   4.008   4.029   6.385  0.2706  0.7265  0.3394
  192POPC  H11A22136   3.926   4.069   6.449  0.6923 -1.4648  2.3700
  192POPC  H11B22137   4.087   4.106   6.398  1.0690 -0.1139  0.5188
  192POPC     P22138   3.938   3.796   6.461 -0.0184 -0.0631 -0.3026
  192POPC   O1322139   3.998   3.665   6.451 -0.6136  0.0817  0.0466
  192POPC   O1422140   3.816   3.821   6.376  0.0556  0.2339 -0.6013
  192POPC   O1222141   4.049   3.901   6.434  0.1258  0.1159 -0.6163
  192POPC   O1122142   3.904   3.832   6.616  0.1210 -0.1801  0.1999
  192POPC    C122143   3.782   3.904   6.646 -0.4247  0.8816 -0.7131
  192POPC    HA22144   3.702   3.881   6.573  1.5683  0.0978 -2.7449
  192POPC    HB22145   3.805   4.013   6.652 -0.6528  0.8616  1.5897
  192POPC    C222146   3.728   3.871   6.795  0.3900  0.2071 -0.1901
  192POPC    HS22147   3.681   3.964   6.833  0.1842  0.1153 -0.2223
  192POPC   O2122148   3.824   3.827   6.883 -0.6854  0.2353 -0.0612
  192POPC   C2122149   3.928   3.905   6.897 -0.0480 -0.6524  1.2682
  192POPC   O2222150   3.937   4.024   6.869  0.2705  0.0517 -0.2232
  192POPC   C2222151   4.046   3.821   6.936 -0.0762 -0.0032 -0.3445
  192POPC   H2R22152   4.143   3.872   6.919  0.1345 -0.5767 -0.8647
  192POPC   H2S22153   4.059   3.740   6.862  2.3366 -0.3203  0.3230
  192POPC    C322154   3.606   3.767   6.791 -0.1919 -0.0019  0.1187
  192POPC    HX22155   3.650   3.681   6.736  1.6146 -1.6179  3.7422
  192POPC    HY22156   3.522   3.815   6.736  0.0652  0.7024  0.3223
  192POPC   O3122157   3.563   3.717   6.920  0.4336  0.1889 -0.0769
  192POPC   C3122158   3.477   3.796   6.990 -0.7452  0.1456  0.0148
  192POPC   O3222159   3.438   3.908   6.960  0.0661 -0.8568  0.1720
  192POPC   C3222160   3.432   3.719   7.109  0.1181 -0.1752 -0.1446
  192POPC   H2X22161   3.418   3.612   7.083 -0.0691 -0.6797  1.8587
  192POPC   H2Y22162   3.325   3.743   7.129  0.0443 -1.4019  1.0317
  192POPC   C2322163   4.030   3.766   7.082  0.0487 -0.3339 -0.0805
  192POPC   H3R22164   4.098   3.680   7.102  1.2269  0.4218 -0.6876
  192POPC   H3S22165   3.929   3.722   7.091 -0.5026  0.6817 -1.0920
  192POPC   C2422166   4.066   3.872   7.189  0.3152  0.0207 -0.0139
  192POPC   H4R22167   4.000   3.961   7.187 -0.4426 -0.5125  0.4965
  192POPC   H4S22168   4.173   3.895   7.176  0.0119  2.1578  0.8787
  192POPC   C2522169   4.049   3.799   7.323  0.1373  0.4684 -0.6610
  192POPC   H5R22170   4.102   3.701   7.326 -0.4954  0.1275 -0.3204
  192POPC   H5S22171   3.942   3.769   7.322  0.7394 -1.9802 -2.3789
  192POPC   C2622172   4.081   3.888   7.447 -0.6671 -0.6511  0.2391
  192POPC   H6R22173   4.036   3.989   7.446  1.1816  0.2187 -0.8616
  192POPC   H6S22174   4.191   3.906   7.448 -0.5938 -0.3786 -3.1451
  192POPC   C2722175   4.031   3.828   7.579  0.2639 -0.3227 -0.3385
  192POPC   H7R22176   4.009   3.721   7.558 -0.5827  0.1083 -1.8110
  192POPC   H7S22177   3.941   3.884   7.611  0.0020  1.0127 -3.0892
  192POPC   C2822178   4.134   3.834   7.697 -1.1939 -0.0809 -0.0475
  192POPC   H8R22179   4.223   3.777   7.665 -0.6031  0.0927  1.2323
  192POPC   H8S22180   4.087   3.770   7.775  1.8075 -3.1637 -0.5399
  192POPC   C2922181   4.163   3.976   7.750 -0.2763  0.4241 -0.3059
  192POPC   H9122182   4.187   4.047   7.670  0.4896  0.9926  0.4139
  192POPC  C21022183   4.152   4.027   7.869  0.2926 -0.3638 -0.5017
  192POPC  H10122184   4.185   4.129   7.892  0.3327 -0.2997 -0.8418
  192POPC  C21122185   4.098   3.949   7.983  0.9048  0.2942 -0.8401
  192POPC  H11R22186   4.047   3.856   7.949  1.6520 -0.8446  1.0214
  192POPC  H11S22187   4.018   4.008   8.032 -0.2932 -0.7602 -1.4727
  192POPC  C21222188   4.210   3.908   8.089  0.6467 -0.0073  0.3434
  192POPC  H12R22189   4.148   3.871   8.174 -0.0557  2.9341  1.2321
  192POPC  H12S22190   4.268   3.991   8.134 -0.3973 -0.1673  2.1045
  192POPC  C21322191   4.313   3.804   8.050  0.1651  0.2257  0.0606
  192POPC  H13R22192   4.391   3.796   8.128  0.4239  2.2452  0.0553
  192POPC  H13S22193   4.365   3.833   7.956  1.7067 -0.3277  0.7113
  192POPC  C21422194   4.242   3.668   8.028  0.0878 -0.8468  0.1698
  192POPC  H14R22195   4.324   3.610   7.981  1.0382 -2.5606  3.6775
  192POPC  H14S22196   4.167   3.679   7.946  0.6632  1.6766 -0.0900
  192POPC  C21522197   4.187   3.585   8.147 -0.0675  0.2170  0.1514
  192POPC  H15R22198   4.145   3.491   8.105  2.4829 -1.1462  0.4406
  192POPC  H15S22199   4.119   3.639   8.216  1.2882 -0.6356  2.2562
  192POPC  C21622200   4.302   3.525   8.229 -0.4793 -0.3409 -0.4804
  192POPC  H16R22201   4.362   3.609   8.269  0.5556 -1.5286  0.5499
  192POPC  H16S22202   4.379   3.462   8.180 -0.3099 -0.9071  0.4824
  192POPC  C21722203   4.266   3.425   8.349 -0.7409 -0.0705  0.6953
  192POPC  H17R22204   4.191   3.358   8.300 -0.2911 -2.4637  3.0664
  192POPC  H17S22205   4.193   3.484   8.408 -0.2060  1.0807  0.2442
  192POPC  C21822206   4.378   3.350   8.421 -0.1868  0.2302  0.2685
  192POPC  H18R22207   4.458   3.424   8.439 -1.5037  1.2465  2.2445
  192POPC  H18S22208   4.407   3.257   8.367 -3.5040 -0.3766 -0.7477
  192POPC  H18T22209   4.339   3.325   8.522  0.6133  2.4585  1.1871
  192POPC   C3322210   3.535   3.739   7.226 -0.1149 -0.1740 -0.5195
  192POPC   H3X22211   3.637   3.722   7.185  0.3931 -2.0024  1.3149
  192POPC   H3Y22212   3.514   3.668   7.309 -1.8282  1.0381  0.1601
  192POPC   C3422213   3.531   3.881   7.285 -0.4908  0.5530  0.0367
  192POPC   H4X22214   3.437   3.907   7.339 -2.4294  0.8130 -3.1896
  192POPC   H4Y22215   3.536   3.957   7.204 -2.0595  0.2392 -0.3822
  192POPC   C3522216   3.643   3.890   7.394 -0.3613 -0.0600  0.1208
  192POPC   H5X22217   3.742   3.928   7.360 -0.3237 -0.2112  0.0614
  192POPC   H5Y22218   3.651   3.785   7.427 -1.0461 -0.2969 -0.4280
  192POPC   C3622219   3.594   3.979   7.513 -0.5276  0.3962  0.3610
  192POPC   H6X22220   3.489   3.949   7.534 -0.9350  0.2626 -1.6178
  192POPC   H6Y22221   3.593   4.085   7.480  0.5843  0.2223 -0.2945
  192POPC   C3722222   3.687   3.955   7.638  0.5568  0.2513 -0.4049
  192POPC   H7X22223   3.789   3.998   7.637  1.5138 -1.8824  0.4257
  192POPC   H7Y22224   3.721   3.850   7.637  0.0063  0.0660 -2.1813
  192POPC   C3822225   3.610   4.009   7.764 -0.5624  0.0382 -0.4332
  192POPC   H8X22226   3.508   3.967   7.757  0.3457 -2.9430  2.0521
  192POPC   H8Y22227   3.597   4.119   7.758 -0.2763  0.2404  1.9202
  192POPC   C3922228   3.682   3.962   7.890  0.1172 -0.6280  0.6479
  192POPC   H9X22229   3.791   3.974   7.873  0.1153 -1.3952  0.0379
  192POPC   H9Y22230   3.656   3.857   7.915 -1.6135 -0.2361  0.6418
  192POPC  C31022231   3.641   4.049   8.012  0.1393 -0.1796 -0.7441
  192POPC  H10X22232   3.533   4.034   8.031  0.0375  1.2043 -0.1542
  192POPC  H10Y22233   3.663   4.155   7.989  0.3297 -0.1343 -0.3539
  192POPC  C31122234   3.718   4.019   8.140  0.2292  0.3376 -0.2574
  192POPC  H11X22235   3.827   4.030   8.120  0.3637 -1.0281 -0.3379
  192POPC  H11Y22236   3.713   3.913   8.173  2.0792  0.2765 -0.0368
  192POPC  C31222237   3.697   4.114   8.260  0.0463  0.6461 -0.3386
  192POPC  H12X22238   3.587   4.110   8.273  0.1463 -2.3173  0.1347
  192POPC  H12Y22239   3.720   4.220   8.235  0.2569  0.4343 -1.0591
  192POPC  C31322240   3.761   4.069   8.391 -0.4504  0.0277  1.0329
  192POPC  H13X22241   3.854   4.010   8.376  0.3989  1.2671  1.2367
  192POPC  H13Y22242   3.687   4.002   8.439  0.0456 -0.1694  1.5270
  192POPC  C31422243   3.798   4.181   8.485  0.3644  0.0782 -0.3429
  192POPC  H14X22244   3.715   4.243   8.524  0.5271 -0.5229  1.0407
  192POPC  H14Y22245   3.855   4.259   8.431 -0.5911  1.9246  1.1910
  192POPC  C31522246   3.892   4.135   8.591  0.2166 -0.2802  0.4178
  192POPC  H15X22247   3.979   4.102   8.530 -1.2511 -1.2255 -1.3002
  192POPC  H15Y22248   3.849   4.045   8.641  3.1453 -1.3724  1.1644
  192POPC  C31622249   3.926   4.249   8.684 -0.2943  0.2466 -0.1652
  192POPC  H16X22250   3.830   4.281   8.731 -1.2966 -2.2792 -0.3556
  192POPC  H16Y22251   3.971   4.338   8.634 -2.7038  2.0462  0.6842
  192POPC  H16Z22252   3.992   4.200   8.759 -0.8414  0.0402  0.1880
  193SOD    SOD22253   0.939   4.585   6.434 -0.2346  0.5467  0.0434
  194SOD    SOD22254   2.507   0.141  11.431  0.0533 -0.1930  0.1472
  195SOD    SOD22255   6.188   6.104   2.826  0.1005 -0.0859 -0.3347
  196SOD    SOD22256   1.312   5.345  14.647 -0.1070 -0.0390 -0.0122
  197SOD    SOD22257   0.247   4.743   1.783 -0.3957  0.1713 -0.0057
  198SOD    SOD22258   4.220   4.706  16.465  0.2080  0.1824  0.5889
  199SOD    SOD22259   0.259   4.791  15.405 -0.1918 -0.5080  0.1561
  200SOD    SOD22260   4.321   3.809  15.965 -0.1758 -0.1242 -0.2780
  201SOD    SOD22261   5.169   1.854  11.279 -0.1279 -0.0254  0.5930
  202SOD    SOD22262   6.398   6.375  13.470 -0.0776 -0.4290  0.0643
  203SOD    SOD22263   5.509   3.605  13.646 -0.0564  0.1129  0.8515
  204SOD    SOD22264   3.911   5.224   4.227  0.5158  0.2152  0.3372
  205SOD    SOD22265   3.602   0.111  10.618  0.1098  0.4292  0.4577
  206SOD    SOD22266   6.293   1.227   1.006  0.1691 -0.0455 -0.0699
  207SOD    SOD22267   1.386   4.719   4.044  0.0918  0.0159  0.0222
  208SOD    SOD22268   4.646   3.529   1.718 -0.4053  0.3970 -0.5087
  209SOD    SOD22269   4.819   6.201  14.708  0.5093  0.1678 -0.2557
  210SOD    SOD22270   4.606   3.868   3.711  0.0037  0.6497 -0.1264
  211SOD    SOD22271   3.790   3.506   5.139  0.0514  0.1786 -0.1576
  212SOD    SOD22272   0.347   0.757   1.240  0.0336  0.2538 -0.2334
  213SOD    SOD22273   2.498   0.428   3.198  0.1085 -0.2905 -0.1890
  214SOD    SOD22274   2.558   1.101   0.515  0.4288  0.3101 -0.2417
  215SOD    SOD22275   2.656   0.586   5.900 -0.1843  0.5704 -0.0522
  216SOD    SOD22276   6.582   1.192  10.853 -0.4506  0.1390 -0.0300
  217SOD    SOD22277   4.899   5.938   4.533 -0.3492  0.1797  0.1424
  218SOD    SOD22278   0.785   2.859   1.291 -0.1975 -0.5592  0.1420
  219SOD    SOD22279   0.838   4.766  12.034 -0.0156 -0.1056 -0.0821
  220SOD    SOD22280   2.326   4.675   2.101 -0.3942  0.3296 -0.0895
  221SOD    SOD22281   6.663   1.362  16.331 -0.4946  0.0680 -0.4475
  222SOD    SOD22282   2.200   2.047  15.873  0.0650  0.2846  0.3233
  223SOD    SOD22283   2.478   5.775  15.681  0.4207 -0.1980  0.3064
  224SOD    SOD22284   3.277   4.756  14.785 -0.1022 -0.0502 -0.3864
  225SOD    SOD22285   6.370   1.654   5.363  0.2467  0.0768 -0.3405
  226SOD    SOD22286   5.898   4.442   5.246 -0.4248  0.3008  0.2221
  227SOD    SOD22287   1.445   6.044   5.371  0.0171 -0.1276  0.1005
  228SOD    SOD22288   4.604   1.692  11.265  0.1755 -0.5617 -0.0294
  229SOD    SOD22289   1.047   5.007   5.816 -0.4656 -0.6252  0.0738
  230SOD    SOD22290   0.409   1.013   4.192  0.3382 -0.1827  0.2667
  231SOD    SOD22291   5.589   4.436  11.032 -0.2237 -0.4128 -0.6690
  232SOD    SOD22292   1.706   0.283   0.971 -0.4539  0.9121 -0.2855
  233SOD    SOD22293   1.727   0.889  11.484  0.0259 -0.1444 -0.6722
  234SOD    SOD22294   1.829   5.356   2.958 -0.7796 -0.7355 -0.0337
  235SOD    SOD22295   6.342   0.659   0.034  0.1958  0.3810  0.1538
  236SOD    SOD22296   3.648   1.495  10.784  0.0213  0.5273 -0.2864
  237SOD    SOD22297   1.064   3.716  16.369 -0.2413 -0.0228  0.1973
  238SOD    SOD22298   3.881   1.778  14.959 -0.1838 -0.0278  0.0847
  239SOD    SOD22299   4.364   3.472  13.046 -1.0237  0.2057 -0.6868
  240SOD    SOD22300   0.205   4.414   0.234  0.2764  0.0632  0.2967
  241SOD    SOD22301   4.387   1.312   6.221 -0.3208  0.0903 -0.4465
  242SOD    SOD22302   2.823   6.745   0.968  0.0489  0.2335 -0.2381
  243SOD    SOD22303   6.310   4.398  12.348  0.0070  0.2911 -0.8069
  244SOD    SOD22304   3.178   3.494   2.634  0.2504  0.1353  0.0354
  245SOD    SOD22305   1.625   2.981  13.749 -0.2256  0.2501 -0.0847
  246SOD    SOD22306   4.003   1.484  14.127  0.6083  0.3569 -0.1251
  247SOD    SOD22307   3.923   5.042   5.349  0.1822 -0.1403 -0.2628
  248SOD    SOD22308   4.583   0.307   2.152  0.2242  0.7346 -0.3789
  249SOD    SOD22309   1.646   4.294  15.453 -0.5669 -0.3487  0.0339
  250SOD    SOD22310   3.738   6.323   5.234 -0.0424 -0.1944  0.0214
  251SOD    SOD22311   2.191   5.267   0.264 -0.4081 -0.0368 -0.1236
  252SOD    SOD22312   3.828   1.285   5.159  0.4372  0.1457 -0.5582
  253SOD    SOD22313   5.063   4.896  10.676 -0.2229 -0.0797 -0.1409
  254SOD    SOD22314   0.622   1.983  10.573  0.5055  0.2996  0.0162
  255SOD    SOD22315   6.146   3.678  15.115 -0.3736  0.3553 -0.3180
  256SOD    SOD22316   0.800   2.784   5.600 -0.0024  0.2778 -0.1592
  257SOD    SOD22317   3.337   4.335   4.503  0.2723  0.0939  0.2154
  258SOD    SOD22318   3.641   4.059  11.816  0.0174  0.3205 -0.2170
  259SOD    SOD22319   2.100   0.648  15.544  0.4420  0.4107  0.2730
  260SOD    SOD22320   1.675   0.722  12.971 -0.0713 -0.2030  0.3734
  261SOD    SOD22321   0.532   2.487  15.149 -0.2204  0.5451 -0.0639
  262SOD    SOD22322   6.048   4.905   4.962 -0.6473  0.1023  0.3488
  263SOD    SOD22323   2.278   0.417   6.397 -0.3337  0.0516  0.1784
  264SOD    SOD22324   0.854   0.512   6.557 -0.0426  0.1894 -0.1298
  265SOD    SOD22325   5.541   4.961   6.258  0.0079 -0.1186  0.0195
  266SOD    SOD22326   4.802   5.641   1.157  0.0146  0.2087 -0.0653
  267SOD    SOD22327   5.520   1.947   0.495 -0.0716  0.0379  0.4272
  268SOD    SOD22328   1.660   4.166  15.871  0.6477 -0.4747  0.2361
  269SOD    SOD22329   3.519   0.015  15.268 -0.2669 -0.0140 -0.3592
  270CLA    CLA22330   2.528   5.322   3.912 -0.1269 -0.4557  0.1887
  271CLA    CLA22331   1.012   5.078  14.907  0.0782  0.1678  0.3930
  272CLA    CLA22332   1.557   4.995  13.132  0.3472  0.0989 -0.1228
  273CLA    CLA22333   4.351   6.287   2.689 -0.1003 -0.2933 -0.2194
  274CLA    CLA22334   0.396   4.715   5.601  0.4082  0.0991 -0.3010
  275CLA    CLA22335   3.344   5.169  15.433 -0.1185 -0.0589  0.4163
  276CLA    CLA22336   5.900   3.938   5.032 -0.4823  0.2680  0.4978
  277CLA    CLA22337   1.919   0.081   0.494  0.1388  0.2009 -0.1175
  278CLA    CLA22338   1.311   4.501  14.529  0.1553  0.3070 -0.1472
  279CLA    CLA22339   5.433   0.934   3.570 -0.0472  0.0532  0.2125
  280CLA    CLA22340   6.706   3.658   2.706  0.0021 -0.3082 -0.0902
  281CLA    CLA22341   5.784   1.767  12.734 -0.2916  0.0133  0.4034
  282CLA    CLA22342   2.132   6.591  12.726  0.2268 -0.0504 -0.0499
  283CLA    CLA22343   2.992   4.540  14.194  0.0595  0.2230  0.1784
  284CLA    CLA22344   2.479   6.248   1.126  0.3629  0.4563 -0.0540
  285CLA    CLA22345   0.509   3.542   1.613 -0.1714 -0.3514  0.2727
  286CLA    CLA22346   4.010   3.982   3.668 -0.1904  0.1565 -0.2613
  287CLA    CLA22347   5.141   1.401   2.536 -0.1686  0.0653  0.1734
  288CLA    CLA22348   6.148   2.600  12.154  0.3630  0.1291  0.0676
  289CLA    CLA22349   6.105   6.072   4.222 -0.0472 -0.2783  0.1541
  290CLA    CLA22350   0.683   2.782  14.649  0.2583  0.0355  0.0800
  291CLA    CLA22351   0.698   6.515   5.004 -0.2189 -0.4617  0.0148
  292CLA    CLA22352   0.118   2.238   0.744  0.8449 -0.1093 -0.0052
  293CLA    CLA22353   0.387   2.926   0.699  0.1001 -0.4507 -0.3358
  294CLA    CLA22354   3.360   4.921   2.124  0.1235  0.0916  0.0830
  295CLA    CLA22355   1.748   4.452   2.067 -0.0295 -0.2310 -0.1976
  296CLA    CLA22356   1.517   4.304  15.677  0.1229 -0.0109 -0.2689
  297CLA    CLA22357   5.173   2.984   5.534 -0.0599  0.0442  0.0569
  298CLA    CLA22358   4.434   3.872  16.936 -0.0453  0.2709  0.0630
  299CLA    CLA22359   6.255   5.101   5.343 -0.2321  0.2922 -0.2151
  300CLA    CLA22360   6.292   4.332  15.628 -0.3555  0.5521 -0.1636
  301CLA    CLA22361   0.290   5.238  15.110  0.3869 -0.6078  0.3658
  302CLA    CLA22362   6.530   4.813  11.407  0.0190 -0.0161  0.1229
  303CLA    CLA22363   4.954   5.451   4.907 -0.1849  0.2396  0.0007
  304CLA    CLA22364   3.651   2.230  15.115  0.0206  0.2686 -0.1179
  305CLA    CLA22365   0.310   3.604   4.369 -0.0000 -0.5280 -0.6176
  306CLA    CLA22366   5.391   0.730  16.185  0.0549  0.0485  0.1093
  307CLA    CLA22367   4.382   6.169  14.978 -0.0644  0.2336  0.6252
  308CLA    CLA22368   2.370   1.931  16.307 -0.2252 -0.2191 -0.2778
  309CLA    CLA22369   3.507   1.979  16.260 -0.0839 -0.0819 -0.0020
  310CLA    CLA22370   3.903   5.038  12.065  0.1972 -0.0177  0.2429
  311CLA    CLA22371   4.708   5.255   0.602  0.0558  0.2400  0.3339
  312CLA    CLA22372   3.289   5.069   4.874  0.4692 -0.3251  0.3942
  313CLA    CLA22373   6.079   1.281   0.677 -0.0853 -0.5123  0.0104
  314CLA    CLA22374   4.630   3.065  13.082 -0.0403 -0.2612 -0.2921
  315CLA    CLA22375   5.232   2.144  14.848 -0.1277 -0.0360 -0.6223
  316CLA    CLA22376   5.834   5.136  16.975 -0.2366 -0.0739  0.2423
  317CLA    CLA22377   4.229   1.553   0.692  0.3805 -0.2079  0.0992
  318CLA    CLA22378   6.642   2.404   3.496  0.2680  0.3650 -0.0010
  319CLA    CLA22379   1.172   3.494   0.309 -0.1194  0.0040  0.0803
  320CLA    CLA22380   2.811   4.609   3.791 -0.0362 -0.2075 -0.2677
  321CLA    CLA22381   2.063   3.472  14.845  0.0872  0.0943 -0.1875
  322CLA    CLA22382   5.889   3.747  13.963 -0.2420  0.4364 -0.3961
  323TIP3   OH222383   0.308   4.484  14.128 -0.0153 -0.1970 -0.0490
  323TIP3    H122384   0.333   4.541  14.055  0.1437  0.2166  0.3190
  323TIP3    H222385   0.325   4.395  14.097 -2.0377 -0.2027 -1.3512
  324TIP3   OH222386   6.489   6.004   5.374  0.0103 -0.4609  0.6645
  324TIP3    H122387   6.468   5.963   5.291 -1.3322  0.8611  0.3015
  324TIP3    H222388   6.427   6.076   5.382  0.8773  0.1789  2.2611
  325TIP3   OH222389   2.348   1.457   2.417  0.2692  0.1055 -0.4903
  325TIP3    H122390   2.374   1.385   2.474 -1.0362  0.8261  1.1087
  325TIP3    H222391   2.429   1.506   2.401  0.8163 -0.6214 -0.0037
  326TIP3   OH222392   4.898   5.911  15.972  0.1244  0.2766  0.2337
  326TIP3    H122393   4.954   5.978  16.010 -0.7293  1.7342 -0.9973
  326TIP3    H222394   4.845   5.957  15.907 -0.8539 -1.4938 -0.2939
  327TIP3   OH222395   2.561   1.497   4.704 -0.1732 -0.3770  0.2894
  327TIP3    H122396   2.510   1.570   4.739 -2.5539 -1.2749 -1.0699
  327TIP3    H222397   2.497   1.444   4.656  2.1129 -1.4218 -1.8177
  328TIP3   OH222398   5.297   2.393   4.240 -0.7771  0.0760  0.1367
  328TIP3    H122399   5.351   2.328   4.285  2.3001  3.2986  1.6079
  328TIP3    H222400   5.326   2.389   4.149  0.3047  0.2130  0.4642
  329TIP3   OH222401   1.607   1.478   2.903 -0.3360 -0.7080 -0.1243
  329TIP3    H122402   1.545   1.410   2.930 -1.8320  0.2594 -0.9424
  329TIP3    H222403   1.613   1.468   2.808  1.4387 -1.2919  0.0123
  330TIP3   OH222404   0.669   1.506  17.303 -0.4528  0.3578  0.4997
  330TIP3    H122405   0.651   1.592  17.264  1.2734  0.4309 -0.2186
  330TIP3    H222406   0.583   1.475  17.333 -1.2011  2.0648  0.2499
  331TIP3   OH222407   5.711   5.742  14.883  0.2357  0.0116  0.1086
  331TIP3    H122408   5.717   5.834  14.860  0.7709  0.0719  0.4620
  331TIP3    H222409   5.705   5.741  14.979  1.1692 -0.3474  0.1773
  332TIP3   OH222410   4.183   5.867   2.423 -0.0752 -0.0867  0.0058
  332TIP3    H122411   4.233   5.896   2.500  0.5353 -2.7660  0.7275
  332TIP3    H222412   4.189   5.940   2.362  1.7043  1.0964  1.4691
  333TIP3   OH222413   5.650   3.670  16.980  0.4778  0.1919  0.4001
  333TIP3    H122414   5.736   3.708  16.959  0.6230 -0.4988 -0.2700
  333TIP3    H222415   5.591   3.746  16.986  0.9055  0.5793 -0.2261
  334TIP3   OH222416   3.263   2.267   5.859  0.2053 -0.6674  0.5052
  334TIP3    H122417   3.341   2.318   5.835 -1.2987  1.2578 -0.5833
  334TIP3    H222418   3.194   2.332   5.871 -1.5265 -2.3730  0.3124
  335TIP3   OH222419   6.662   2.215  16.463  0.0992  0.9328  0.0661
  335TIP3    H122420   6.741   2.190  16.510 -0.5805 -0.9984  0.2935
  335TIP3    H222421   6.681   2.194  16.371 -0.4176 -0.4347  0.2377
  336TIP3   OH222422   0.603   3.277   0.315 -0.2218 -0.3206  0.4264
  336TIP3    H122423   0.613   3.320   0.399  0.0540 -1.9861  1.2945
  336TIP3    H222424   0.516   3.237   0.319 -0.6106  0.3806 -0.4898
  337TIP3   OH222425   0.332   1.232   0.158  0.0121 -0.3917  0.1356
  337TIP3    H122426   0.291   1.281   0.230 -0.7212 -0.9831  0.1278
  337TIP3    H222427   0.344   1.297   0.089 -0.0231  0.0008  0.4950
  338TIP3   OH222428   1.916   1.416  15.401 -0.3342 -0.0272  0.1435
  338TIP3    H122429   1.868   1.428  15.483  1.1092  1.1326  0.8704
  338TIP3    H222430   1.849   1.419  15.333 -1.5993 -1.2647  1.2739
  339TIP3   OH222431   5.659   3.072   3.867 -0.3520 -0.3578  0.0773
  339TIP3    H122432   5.722   3.137   3.900 -0.1593 -0.2591 -0.4756
  339TIP3    H222433   5.694   3.046   3.782  0.0272 -1.8435  0.6690
  340TIP3   OH222434   6.370   3.265   4.673 -0.3836 -0.4987 -0.5913
  340TIP3    H122435   6.329   3.328   4.733  0.4581  1.6140 -2.0993
  340TIP3    H222436   6.351   3.180   4.711 -2.6008  0.5799  0.9497
  341TIP3   OH222437   3.483   4.949   4.590  0.6001 -0.1409  0.0821
  341TIP3    H122438   3.461   4.967   4.682  0.6969  1.2204 -0.1347
  341TIP3    H222439   3.407   4.981   4.541  1.6947  1.7880 -0.4772
  342TIP3   OH222440   0.731   2.916   1.993  0.3685  0.1474  0.6655
  342TIP3    H122441   0.694   2.835   2.029  1.4327 -0.5835  0.1612
  342TIP3    H222442   0.691   2.925   1.907  0.2119  0.1810  0.7423
  343TIP3   OH222443   5.340   0.623   6.006  0.1018 -0.1102 -0.2306
  343TIP3    H122444   5.327   0.575   5.924  1.7436  1.6054 -1.5800
  343TIP3    H222445   5.407   0.689   5.985 -2.6070  3.4151  1.2108
  344TIP3   OH222446   0.079   0.834   5.760 -0.0098 -0.2875  0.1540
  344TIP3    H122447   0.024   0.758   5.780 -1.3840  0.1176 -1.7182
  344TIP3    H222448   0.156   0.797   5.718  0.3377 -0.7620  1.1871
  345TIP3   OH222449   6.037   0.561   0.451 -0.3335 -0.2937  0.0587
  345TIP3    H122450   5.993   0.483   0.485 -0.3880  0.0100  0.6912
  345TIP3    H222451   5.994   0.578   0.368 -0.9299 -0.4103  0.3424
  346TIP3   OH222452   4.921   3.110  12.544 -0.1629  0.1471 -0.4843
  346TIP3    H122453   4.984   3.125  12.614 -2.3248 -3.0057  2.4234
  346TIP3    H222454   4.859   3.183  12.551 -0.3123 -0.0985  0.8970
  347TIP3   OH222455   6.712   5.764   2.183  0.3982  0.1758  0.4124
  347TIP3    H122456   6.618   5.772   2.196  0.2987  0.0892 -0.2224
  347TIP3    H222457   6.739   5.847   2.145  0.4307 -0.1134 -0.2110
  348TIP3   OH222458   3.817   4.283   6.148  1.0792  0.4224  0.1740
  348TIP3    H122459   3.856   4.286   6.235  0.0255  1.4757  0.6525
  348TIP3    H222460   3.725   4.305   6.162  0.9995  1.1650 -1.2664
  349TIP3   OH222461   5.629   3.371   3.533 -0.2073  0.4632 -0.2990
  349TIP3    H122462   5.695   3.440   3.532  0.0609  0.2873  1.4829
  349TIP3    H222463   5.551   3.414   3.568 -0.5899  0.2957 -0.9359
  350TIP3   OH222464   2.174   5.128   0.725  1.0923  0.2731  0.4127
  350TIP3    H122465   2.089   5.171   0.729  0.6220 -0.6032 -0.1094
  350TIP3    H222466   2.229   5.180   0.784 -0.5374 -0.8066  3.0536
  351TIP3   OH222467   2.615   0.655  11.949  0.7044 -0.8179  0.5561
  351TIP3    H122468   2.706   0.670  11.925  0.1873  0.3913 -0.7677
  351TIP3    H222469   2.565   0.717  11.895 -0.9442 -1.8443  0.8353
  352TIP3   OH222470   2.821   6.659  14.321 -0.4562  0.0402  0.6470
  352TIP3    H122471   2.887   6.608  14.369  0.2707  0.3460 -0.0186
  352TIP3    H222472   2.838   6.640  14.229 -0.1061  1.5432  0.3748
  353TIP3   OH222473   0.578   0.657  13.493  0.3643 -0.3756 -0.1299
  353TIP3    H122474   0.652   0.598  13.481  0.1305 -0.4814 -1.1797
  353TIP3    H222475   0.501   0.602  13.475  0.1122  0.0765 -0.4627
  354TIP3   OH222476   3.264   2.451   1.203  0.1030  0.2068  0.1030
  354TIP3    H122477   3.227   2.500   1.276 -0.6257  0.2509 -0.2839
  354TIP3    H222478   3.280   2.516   1.135  0.6510  0.1466  0.1705
  355TIP3   OH222479   5.236   3.214   1.645  0.2546 -0.2817 -0.8260
  355TIP3    H122480   5.144   3.187   1.635 -0.3879  1.4003  0.0790
  355TIP3    H222481   5.280   3.136   1.677 -1.0226 -0.9182 -0.5346
  356TIP3   OH222482   1.014   4.712   5.512 -0.0192 -0.8252 -0.0672
  356TIP3    H122483   1.096   4.753   5.541  0.4931 -2.3986  0.8266
  356TIP3    H222484   1.030   4.618   5.521 -1.8666 -1.1713 -0.0752
  357TIP3   OH222485   3.978   6.465   0.417 -0.1115 -0.7659 -0.1558
  357TIP3    H122486   3.958   6.550   0.377 -1.0863 -0.8753  0.0817
  357TIP3    H222487   3.987   6.485   0.510 -1.6447 -1.1239  0.0833
  358TIP3   OH222488   4.780   3.605   5.084  0.0202 -0.4910  0.7276
  358TIP3    H122489   4.851   3.587   5.023  0.7059  1.4517  0.8755
  358TIP3    H222490   4.802   3.554   5.162  0.9283 -0.4177  0.5349
  359TIP3   OH222491   6.120   2.049   4.584  0.6624 -0.2155 -0.1642
  359TIP3    H122492   6.170   1.995   4.522  1.1488  0.8545 -0.7257
  359TIP3    H222493   6.118   2.136   4.544 -1.5392 -0.1692 -0.0874
  360TIP3   OH222494   0.833   6.739   2.239  0.0040 -0.0508 -0.0065
  360TIP3    H122495   0.889   6.704   2.170  0.2876 -0.0691  0.2301
  360TIP3    H222496   0.761   6.677   2.247 -0.0473 -0.0302 -0.3085
  361TIP3   OH222497   1.110   4.542   2.269  0.8224  0.6377 -0.1935
  361TIP3    H122498   1.181   4.525   2.332  1.0179 -0.9283 -0.7934
  361TIP3    H222499   1.138   4.497   2.189  0.1451  1.8237 -1.1340
  362TIP3   OH222500   4.292   5.795  16.866  0.6322  0.0363  0.2275
  362TIP3    H122501   4.277   5.848  16.944 -0.1467 -0.6825  0.5765
  362TIP3    H222502   4.281   5.856  16.793 -0.8990  0.2355  0.5990
  363TIP3   OH222503   4.077   1.992  11.396 -0.3954 -0.9668  0.2121
  363TIP3    H122504   4.170   2.008  11.411 -0.5411  0.0287  0.1266
  363TIP3    H222505   4.074   1.949  11.310 -0.1317  0.9627 -0.8251
  364TIP3   OH222506   5.122   5.171  15.768 -0.1344 -0.1039  0.1616
  364TIP3    H122507   5.062   5.114  15.817  1.6571 -0.1574  2.4592
  364TIP3    H222508   5.128   5.250  15.822  2.0677 -0.2328  0.1760
  365TIP3   OH222509   5.530   0.090   4.841  0.4358 -0.0794  0.1582
  365TIP3    H122510   5.581   0.039   4.904 -0.3189 -0.8708  0.1378
  365TIP3    H222511   5.542   0.181   4.868  0.8285 -0.3483  0.9081
  366TIP3   OH222512   0.853   4.816   4.770  0.1766  0.4684 -0.1982
  366TIP3    H122513   0.928   4.759   4.789 -0.1205  0.1050 -0.1206
  366TIP3    H222514   0.776   4.763   4.790 -0.0969  1.4052  1.4266
  367TIP3   OH222515   0.422   1.970  15.824 -0.3496 -0.1978  0.6324
  367TIP3    H122516   0.446   1.966  15.916  0.6475  1.2322  0.4645
  367TIP3    H222517   0.398   1.880  15.801 -4.0603 -0.0847  3.1492
  368TIP3   OH222518   1.660   2.922   3.346 -0.2063 -0.1846 -0.3306
  368TIP3    H122519   1.574   2.956   3.319  0.8436  2.9325 -0.0752
  368TIP3    H222520   1.716   2.934   3.269  0.5401 -0.1035  0.2186
  369TIP3   OH222521   0.170   0.125  14.129 -0.2099 -0.2708  0.5932
  369TIP3    H122522   0.218   0.204  14.104 -0.7097 -0.1660 -0.0583
  369TIP3    H222523   0.219   0.090  14.204  0.9142 -0.2128 -0.0932
  370TIP3   OH222524   5.298   3.937   0.506  0.0374 -0.2047  0.2077
  370TIP3    H122525   5.331   3.864   0.559 -0.7364 -0.8030 -0.1096
  370TIP3    H222526   5.329   3.919   0.418  2.2693  1.3728  0.5973
  371TIP3   OH222527   4.511   3.188  13.677  0.0067  0.1089  0.0322
  371TIP3    H122528   4.481   3.185  13.768 -0.6845  3.9684  0.0842
  371TIP3    H222529   4.582   3.252  13.677  2.0144 -1.9082 -1.7697
  372TIP3   OH222530   0.301   5.258   4.795 -0.6714  0.7731 -0.1928
  372TIP3    H122531   0.267   5.342   4.827  1.9003  1.2706  1.5618
  372TIP3    H222532   0.268   5.193   4.857 -0.2269  0.9286  0.2078
  373TIP3   OH222533   4.701   6.677  13.083  0.0361 -0.3634 -0.1293
  373TIP3    H122534   4.703   6.772  13.089  2.2853 -0.3598 -0.2196
  373TIP3    H222535   4.747   6.657  13.001  0.3527 -1.5573  0.3171
  374TIP3   OH222536   3.296   0.655   0.931 -0.1268 -0.9528  0.4352
  374TIP3    H122537   3.343   0.581   0.969  0.5523 -1.7697 -1.8347
  374TIP3    H222538   3.220   0.615   0.888  0.4909 -0.4224 -1.2062
  375TIP3   OH222539   2.488   1.061   1.792  0.1088 -0.0186 -0.3206
  375TIP3    H122540   2.560   1.089   1.848  0.9027 -0.0573 -1.2860
  375TIP3    H222541   2.530   1.008   1.723 -0.8084  0.1128 -1.0043
  376TIP3   OH222542   1.222   2.358   5.963  0.5195 -0.5564 -0.4921
  376TIP3    H122543   1.200   2.267   5.985  1.1933 -0.6183 -0.0484
  376TIP3    H222544   1.199   2.407   6.042  0.6508 -0.4215 -0.5380
  377TIP3   OH222545   1.035   0.901  16.563 -0.5514  0.2434  0.4797
  377TIP3    H122546   0.952   0.857  16.546 -0.4605 -1.6161  3.8784
  377TIP3    H222547   1.098   0.858  16.505 -1.4740 -0.1758 -0.2333
  378TIP3   OH222548   3.744   6.141  11.288  0.3235  0.3019  0.2901
  378TIP3    H122549   3.735   6.108  11.198  0.2174 -1.5019  0.9290
  378TIP3    H222550   3.799   6.077  11.332  1.7661  2.0181  1.1210
  379TIP3   OH222551   1.547   1.063  16.122 -0.1381 -0.4458  0.2035
  379TIP3    H122552   1.502   1.059  16.038  2.3817 -1.9902 -1.1737
  379TIP3    H222553   1.514   0.987  16.171 -0.8664 -0.1186  0.2294
  380TIP3   OH222554   3.319   1.052   2.317 -0.6614  0.1581  1.0058
  380TIP3    H122555   3.269   1.012   2.389  0.0303 -2.9260 -0.0398
  380TIP3    H222556   3.390   0.990   2.301  0.8885  2.2007 -0.4775
  381TIP3   OH222557   4.876   5.185  16.699 -0.0321  0.4174 -0.4898
  381TIP3    H122558   4.820   5.254  16.664  1.6992  2.1612 -0.0056
  381TIP3    H222559   4.933   5.162  16.626  1.9523  2.3238  0.3472
  382TIP3   OH222560   5.901   0.385  14.812 -0.0509  0.0468 -0.2582
  382TIP3    H122561   5.988   0.405  14.845 -0.7699  1.0149  1.1150
  382TIP3    H222562   5.858   0.338  14.883 -1.1442  0.9159 -0.3079
  383TIP3   OH222563   0.247   0.628   4.015 -0.1648 -0.1848  0.6295
  383TIP3    H122564   0.252   0.535   4.038 -0.5325 -0.0944  1.0803
  383TIP3    H222565   0.176   0.663   4.069 -1.8734 -0.2124 -1.4458
  384TIP3   OH222566   4.239   3.137   3.293  0.3917  0.0388  0.0954
  384TIP3    H122567   4.167   3.174   3.243  1.9693  0.2924 -2.1257
  384TIP3    H222568   4.214   3.045   3.305 -0.8648  0.4120  0.4984
  385TIP3   OH222569   0.788   3.364   0.874  0.5396  0.1149  0.0422
  385TIP3    H122570   0.816   3.331   0.960  0.7516  0.0522 -0.0495
  385TIP3    H222571   0.725   3.300   0.842  2.1063 -1.0530 -0.8300
  386TIP3   OH222572   0.222   4.592   4.307 -0.2044 -0.2729  0.2530
  386TIP3    H122573   0.266   4.559   4.229 -1.4113 -0.2124 -0.4833
  386TIP3    H222574   0.203   4.683   4.287 -0.7687 -0.3325  0.4966
  387TIP3   OH222575   4.295   3.531  11.624  0.5788 -0.0625 -0.3862
  387TIP3    H122576   4.338   3.551  11.540  1.5026 -0.2297  0.0369
  387TIP3    H222577   4.217   3.587  11.624  1.2507  0.9191 -0.7918
  388TIP3   OH222578   5.278   4.959  10.710 -0.0922 -0.1409  0.1468
  388TIP3    H122579   5.321   4.906  10.777 -0.8874 -0.9511  0.0383
  388TIP3    H222580   5.304   5.049  10.730 -2.7208  0.0562  3.4536
  389TIP3   OH222581   0.662   4.449  15.405  0.0377 -0.3905 -0.0763
  389TIP3    H122582   0.713   4.448  15.325 -0.0524 -0.6005 -0.1317
  389TIP3    H222583   0.662   4.541  15.432  2.7624 -0.7227  1.4236
  390TIP3   OH222584   1.607   1.226  14.284  0.5499 -0.1557 -0.0403
  390TIP3    H122585   1.531   1.284  14.273  0.6689 -0.2253 -1.5081
  390TIP3    H222586   1.594   1.184  14.369 -0.7383  0.2965  0.0048
  391TIP3   OH222587   0.565   4.972   1.016 -0.0524 -0.2002 -0.1595
  391TIP3    H122588   0.509   4.952   0.941  0.7902 -0.2529 -0.7888
  391TIP3    H222589   0.566   5.068   1.020 -0.6098 -0.2069  0.1817
  392TIP3   OH222590   5.250   5.890   1.312 -0.3169  0.0568  0.1087
  392TIP3    H122591   5.293   5.948   1.249  0.5222 -1.1496 -0.4755
  392TIP3    H222592   5.299   5.902   1.393  0.1714 -0.1869 -0.1453
  393TIP3   OH222593   5.757   5.178   2.793  0.0130  0.1921 -0.0625
  393TIP3    H122594   5.704   5.098   2.787 -0.3930  0.4078  0.5404
  393TIP3    H222595   5.847   5.148   2.782 -0.1743 -0.2730 -0.3884
  394TIP3   OH222596   3.842   6.055  13.550  0.2233 -0.4292  0.3826
  394TIP3    H122597   3.869   6.117  13.483  0.8511  0.2441  1.2322
  394TIP3    H222598   3.806   5.981  13.502  0.9178 -0.0815 -0.6974
  395TIP3   OH222599   2.720   4.699  15.895  0.3384 -0.0317  0.1410
  395TIP3    H122600   2.800   4.695  15.948  0.0046  2.4324  0.9541
  395TIP3    H222601   2.735   4.771  15.834 -1.0164  0.0371 -0.1411
  396TIP3   OH222602   4.016   4.560  12.625  0.1142  0.4021  0.3578
  396TIP3    H122603   3.952   4.562  12.696  1.2761  0.1216  1.4303
  396TIP3    H222604   4.000   4.476  12.581 -0.3367  0.3957  0.5260
  397TIP3   OH222605   3.570   5.718   6.689 -0.1852 -0.9817 -0.3817
  397TIP3    H122606   3.544   5.630   6.663 -0.8497 -0.6644 -0.8052
  397TIP3    H222607   3.614   5.754   6.612 -1.0652 -0.4862 -0.6745
  398TIP3   OH222608   1.073   0.145   1.794  0.0022 -0.2977  0.2301
  398TIP3    H122609   1.036   0.231   1.777  0.4949 -0.4336 -1.9579
  398TIP3    H222610   1.017   0.085   1.745  2.2364 -0.6274 -2.1794
  399TIP3   OH222611   4.186   1.472   6.196 -0.0093 -0.8753  0.4816
  399TIP3    H122612   4.096   1.440   6.202 -0.2499 -0.4648 -0.6803
  399TIP3    H222613   4.178   1.559   6.157  1.0032 -1.5383 -1.3054
  400TIP3   OH222614   1.344   4.747   2.181  0.1047 -0.2815  0.0904
  400TIP3    H122615   1.276   4.752   2.114 -0.4276 -0.8650  0.5792
  400TIP3    H222616   1.359   4.653   2.192 -1.4595 -0.3283  2.4275
  401TIP3   OH222617   0.433   5.369   5.753 -0.1439  0.1940  0.5910
  401TIP3    H122618   0.517   5.349   5.711 -1.1161 -0.9511 -0.9206
  401TIP3    H222619   0.431   5.465   5.757  1.8107  0.2253  1.9563
  402TIP3   OH222620   4.599   4.084  13.336  0.0935  0.1774  0.3344
  402TIP3    H122621   4.651   4.085  13.256  0.1847 -0.9036  0.3730
  402TIP3    H222622   4.577   4.176  13.351  2.4393  0.7629  0.6025
  403TIP3   OH222623   1.828   0.133   5.292  0.1505 -0.1410  0.3841
  403TIP3    H122624   1.763   0.170   5.351 -0.4161 -0.6485  0.0986
  403TIP3    H222625   1.896   0.099   5.349 -0.1719 -0.2227  0.7240
  404TIP3   OH222626   0.805   3.306   0.582  0.6320 -0.4269 -0.1092
  404TIP3    H122627   0.826   3.241   0.516  1.2935  0.0494 -0.3753
  404TIP3    H222628   0.782   3.254   0.660  1.8486 -0.9933 -0.0940
  405TIP3   OH222629   1.962   2.287  14.813 -0.4656 -0.1903 -0.1673
  405TIP3    H122630   1.931   2.377  14.810  0.4431  0.1211 -0.8044
  405TIP3    H222631   1.974   2.268  14.907 -0.7947  0.3012 -0.0265
  406TIP3   OH222632   2.352   5.668  12.140  0.2458 -0.0665 -0.2263
  406TIP3    H122633   2.335   5.761  12.153  0.2641 -0.1500  0.4397
  406TIP3    H222634   2.373   5.660  12.047 -1.0097  0.4047 -0.5782
  407TIP3   OH222635   3.511   4.386  14.980 -0.6053 -0.2179 -0.0641
  407TIP3    H122636   3.606   4.391  14.981 -0.6134  0.5554  2.0894
  407TIP3    H222637   3.491   4.321  14.912  1.4577 -0.7372 -0.2391
  408TIP3   OH222638   4.202   6.699  15.242 -0.1146  0.3199  0.5916
  408TIP3    H122639   4.222   6.684  15.334  0.1981  0.9431  0.6373
  408TIP3    H222640   4.225   6.791  15.228 -1.5379  0.6453  0.2472
  409TIP3   OH222641   6.633   1.208   4.940  0.0926  0.2939 -0.3929
  409TIP3    H122642   6.654   1.133   4.995 -1.1189  0.0523 -0.2383
  409TIP3    H222643   6.707   1.268   4.951 -0.0467  0.1793  1.3806
  410TIP3   OH222644   5.376   6.058   4.084  0.3593 -0.1422  0.1934
  410TIP3    H122645   5.317   6.131   4.104 -0.2883 -0.2462 -1.1784
  410TIP3    H222646   5.435   6.053   4.159 -1.5894 -0.2458  1.8072
  411TIP3   OH222647   4.108   5.126   1.248 -0.3296 -0.5574 -0.2471
  411TIP3    H122648   4.049   5.068   1.201  0.8633 -0.1642 -2.3758
  411TIP3    H222649   4.179   5.069   1.278 -1.4952 -0.9495  1.8909
  412TIP3   OH222650   4.018   1.736   3.767  0.0627 -0.3008 -0.1270
  412TIP3    H122651   4.021   1.674   3.840  1.5048  0.8993  0.9094
  412TIP3    H222652   4.079   1.700   3.702 -0.1121 -0.6343 -0.1064
  413TIP3   OH222653   6.047   0.713  11.495 -0.0934 -0.6389 -0.3325
  413TIP3    H122654   6.021   0.648  11.430 -0.7773  1.2735 -2.1028
  413TIP3    H222655   6.126   0.754  11.458  0.3508 -0.4811  0.7577
  414TIP3   OH222656   5.123   5.934  12.079  0.3706 -0.2101 -0.0963
  414TIP3    H122657   5.053   5.910  12.018 -0.0048  0.8620 -0.0945
  414TIP3    H222658   5.204   5.918  12.029  0.2013 -2.2370  0.1719
  415TIP3   OH222659   0.863   1.759  13.289 -0.2083  0.1061  0.6822
  415TIP3    H122660   0.812   1.679  13.281  0.4247 -0.1383 -1.4755
  415TIP3    H222661   0.871   1.773  13.383 -1.8596 -1.3510  1.0945
  416TIP3   OH222662   6.467   4.100   1.920  0.5411  1.0429  0.5500
  416TIP3    H122663   6.386   4.118   1.872  1.2499  1.7328 -0.4210
  416TIP3    H222664   6.438   4.075   2.008 -0.8913 -2.2581 -0.7114
  417TIP3   OH222665   3.529   3.069  10.340 -0.3506 -0.3836 -0.5118
  417TIP3    H122666   3.510   3.163  10.332 -1.2899 -0.4721  0.3661
  417TIP3    H222667   3.604   3.065  10.399  0.5049 -0.1470 -1.5567
  418TIP3   OH222668   0.439   6.094  11.595  0.0140 -0.2532 -0.0781
  418TIP3    H122669   0.462   6.187  11.584  0.9489 -0.3310  1.0611
  418TIP3    H222670   0.405   6.068  11.509  0.6055  0.9092 -0.6906
  419TIP3   OH222671   4.706   5.065   1.670  0.2326 -0.2117 -0.0903
  419TIP3    H122672   4.678   5.156   1.676 -0.5611 -0.3771 -1.0301
  419TIP3    H222673   4.642   5.016   1.722  0.9448 -0.1978  0.8303
  420TIP3   OH222674   1.388   6.321   0.064 -0.3270 -0.4652  0.2104
  420TIP3    H122675   1.324   6.365   0.010 -0.1254  0.0739  0.4031
  420TIP3    H222676   1.460   6.384   0.073 -0.8426 -0.0742  2.0372
  421TIP3   OH222677   0.938   2.800  11.901 -0.3595  0.7048  0.5353
  421TIP3    H122678   0.911   2.765  11.985 -0.8714  0.0616  0.1086
  421TIP3    H222679   0.951   2.723  11.845 -2.0162  1.1502 -0.5668
  422TIP3   OH222680   4.278   2.553  12.852  0.1952 -0.0462  0.0760
  422TIP3    H122681   4.294   2.460  12.840  0.6489 -0.3730  2.6863
  422TIP3    H222682   4.289   2.568  12.946 -0.1648  2.5890 -0.2154
  423TIP3   OH222683   4.937   0.425   2.364 -0.5202 -0.1685  0.8218
  423TIP3    H122684   4.904   0.376   2.439  0.0576  0.3796  1.4510
  423TIP3    H222685   4.947   0.515   2.397 -0.5451  0.1468 -0.0018
  424TIP3   OH222686   2.267   0.080   0.488  0.0246 -0.0463 -0.2896
  424TIP3    H122687   2.175   0.085   0.515 -0.0203  2.6182 -0.7190
  424TIP3    H222688   2.317   0.090   0.568 -0.1097  1.7832 -0.3939
  425TIP3   OH222689   3.171   2.803  14.586  0.1591 -0.4953  0.0017
  425TIP3    H122690   3.112   2.797  14.661  0.6774  2.1717  0.7328
  425TIP3    H222691   3.198   2.895  14.584  2.5955 -1.1467 -1.6116
  426TIP3   OH222692   3.957   5.526   5.024  0.2559  0.3808 -0.3249
  426TIP3    H122693   3.919   5.582   4.956 -0.4109 -0.1780 -0.4266
  426TIP3    H222694   3.964   5.440   4.982  2.0459  0.5565 -0.4428
  427TIP3   OH222695   0.695   5.974   0.005 -0.3932 -0.3605 -0.6069
  427TIP3    H122696   0.686   5.975   0.101  0.4552  0.1914 -0.5227
  427TIP3    H222697   0.689   6.066  -0.020 -0.3926 -0.4850 -1.0659
  428TIP3   OH222698   1.867   0.046   2.732  0.2270  0.4279  0.0000
  428TIP3    H122699   1.854   0.038   2.827 -1.2736 -0.3929 -0.2500
  428TIP3    H222700   1.892  -0.042   2.704 -1.0978  0.2217 -0.6023
  429TIP3   OH222701   3.699   6.068  15.215 -0.4804  0.4405  0.6803
  429TIP3    H122702   3.708   5.977  15.244  1.6634  0.5706  0.6029
  429TIP3    H222703   3.626   6.066  15.153  0.6952 -1.6261 -0.7731
  430TIP3   OH222704   0.678   3.674  14.151  0.3535  0.1705  0.3395
  430TIP3    H122705   0.741   3.628  14.095 -0.6940 -0.0421 -0.7113
  430TIP3    H222706   0.595   3.630  14.134 -0.4318  1.6149  0.2926
  431TIP3   OH222707   3.671   0.851  13.901 -0.4026  0.2273 -0.4171
  431TIP3    H122708   3.648   0.878  13.812 -1.5917 -1.6959 -0.7447
  431TIP3    H222709   3.648   0.758  13.905 -1.5732  0.5449  2.2950
  432TIP3   OH222710   1.718   1.998   3.199 -0.2290  0.3295 -0.8487
  432TIP3    H122711   1.642   1.985   3.255 -0.2780  2.0746 -0.4490
  432TIP3    H222712   1.682   2.019   3.113 -0.2200  1.2330 -0.6409
  433TIP3   OH222713   6.297   5.017   0.408  0.5537  0.5872 -0.1301
  433TIP3    H122714   6.249   5.022   0.325  1.3396  0.2402 -0.6188
  433TIP3    H222715   6.243   4.960   0.463  0.8875 -0.6566 -1.0289
  434TIP3   OH222716   5.773   2.500  12.779  0.4901 -0.2877  0.2691
  434TIP3    H122717   5.680   2.475  12.785 -0.3431  2.4089 -0.3679
  434TIP3    H222718   5.792   2.500  12.685  0.9422 -0.1638  0.3570
  435TIP3   OH222719   2.831   5.515   4.366 -0.2709 -0.0635  0.2652
  435TIP3    H122720   2.808   5.568   4.289 -0.5453  0.0101  0.3950
  435TIP3    H222721   2.805   5.426   4.342  2.9663 -0.7742 -1.1756
  436TIP3   OH222722   2.973   4.108  14.572 -0.3480 -0.3819  0.5010
  436TIP3    H122723   2.970   4.022  14.530 -0.6582  0.7441 -1.9832
  436TIP3    H222724   2.889   4.149  14.550  1.0845  1.8099 -1.5127
  437TIP3   OH222725   3.354   0.699  16.971  0.1394 -0.1894  0.3846
  437TIP3    H122726   3.420   0.737  17.029  0.9610  0.4936 -0.9473
  437TIP3    H222727   3.345   0.762  16.900  0.2019 -1.6239 -0.9543
  438TIP3   OH222728   0.587   0.217   5.815  0.0259  0.1253  0.0065
  438TIP3    H122729   0.641   0.292   5.789  0.7081 -0.1768  0.5255
  438TIP3    H222730   0.606   0.150   5.749  0.0375  0.1306  0.0045
  439TIP3   OH222731   3.222   6.669  16.154 -0.1392 -0.2580  0.4467
  439TIP3    H122732   3.196   6.719  16.232 -2.3831  0.7830 -0.8880
  439TIP3    H222733   3.314   6.693  16.141  0.0046  0.3045  2.1920
  440TIP3   OH222734   0.360   2.470   1.691  1.0296 -0.1139 -0.1583
  440TIP3    H122735   0.405   2.489   1.773 -2.0028  0.3049  1.5926
  440TIP3    H222736   0.329   2.380   1.701  1.1327 -0.2665 -1.1122
  441TIP3   OH222737   0.325   6.165   0.469  0.1720  0.2277 -0.2077
  441TIP3    H122738   0.285   6.086   0.434 -1.3437  0.8386  0.0702
  441TIP3    H222739   0.387   6.193   0.402 -1.0962  0.1770 -1.4371
  442TIP3   OH222740   2.562   1.113  12.342 -0.1007  0.1407  0.5996
  442TIP3    H122741   2.572   1.166  12.422  1.0605  0.7916  0.0517
  442TIP3    H222742   2.609   1.032  12.362  1.3317  0.8250  0.1452
  443TIP3   OH222743   0.014   4.383  15.221  0.0740  0.5707  0.2394
  443TIP3    H122744  -0.003   4.341  15.305 -1.0120  1.3966  0.4517
  443TIP3    H222745  -0.059   4.444  15.209  1.2104  1.8572 -0.3975
  444TIP3   OH222746   5.227   6.001   3.647 -0.2987  0.7940 -0.3696
  444TIP3    H122747   5.135   6.026   3.654 -0.8489 -1.2603  0.5982
  444TIP3    H222748   5.226   5.905   3.644  1.8083  0.7140 -0.4419
  445TIP3   OH222749   3.816   4.996  16.668  0.4041  0.2204 -0.1696
  445TIP3    H122750   3.883   4.930  16.648  1.4911  1.5455 -1.0112
  445TIP3    H222751   3.733   4.949  16.658  1.1595 -1.3003  0.3256
  446TIP3   OH222752   4.667   3.196   1.338  0.2139  0.4524 -0.0861
  446TIP3    H122753   4.744   3.212   1.394  0.5639 -0.9435 -0.1358
  446TIP3    H222754   4.658   3.277   1.287  0.7939  1.1789  0.9053
  447TIP3   OH222755   3.513   1.728  16.614  0.2637 -0.2297 -0.0994
  447TIP3    H122756   3.455   1.761  16.545  1.4897 -1.7021 -1.9694
  447TIP3    H222757   3.555   1.806  16.650 -0.0332  0.5626 -1.4005
  448TIP3   OH222758   0.869   1.960   3.095  0.0913 -0.0355  0.1546
  448TIP3    H122759   0.832   1.919   3.017 -0.9755 -0.6687  0.9719
  448TIP3    H222760   0.801   2.018   3.127 -0.1893 -1.1012  1.5906
  449TIP3   OH222761   1.953   3.887  12.243 -0.2459 -0.4026 -0.5477
  449TIP3    H122762   1.903   3.957  12.286  0.4411  0.0499 -0.4584
  449TIP3    H222763   1.903   3.866  12.165 -0.7576 -0.2049 -0.2771
  450TIP3   OH222764   5.805   1.209  15.602  0.1788  0.3043 -0.2276
  450TIP3    H122765   5.861   1.149  15.650 -0.8063 -1.1279 -0.8199
  450TIP3    H222766   5.862   1.247  15.535  0.8301  0.1169  0.2121
  451TIP3   OH222767   5.512   3.489  15.274 -0.1146 -0.2568 -0.3717
  451TIP3    H122768   5.583   3.459  15.329 -0.3693  0.0022  0.1090
  451TIP3    H222769   5.470   3.559  15.325 -1.6931 -1.4684  0.0562
  452TIP3   OH222770   0.015   4.916   0.885 -0.3122 -0.0446  0.3680
  452TIP3    H122771   0.004   4.822   0.868 -0.0681  0.1711 -1.1524
  452TIP3    H222772   0.045   4.951   0.801  1.7785  1.0401  1.5143
  453TIP3   OH222773   0.417   0.867  17.219 -0.0696 -0.1196  0.1495
  453TIP3    H122774   0.335   0.824  17.243  0.2706 -0.8581 -0.0046
  453TIP3    H222775   0.468   0.800  17.174  1.3852 -0.2562  1.8808
  454TIP3   OH222776   5.301   3.029  12.916 -0.0845 -0.7427 -0.3275
  454TIP3    H122777   5.260   2.999  12.835  0.2174  2.9092 -2.0105
  454TIP3    H222778   5.232   3.076  12.963  0.6972  0.5153 -0.4024
  455TIP3   OH222779   6.679   3.054  12.036 -0.0497 -0.7981 -0.3743
  455TIP3    H122780   6.647   3.144  12.029 -0.0300 -0.5501  1.8771
  455TIP3    H222781   6.771   3.058  12.010 -0.0753 -0.1834 -0.3796
  456TIP3   OH222782   4.548   0.076  13.941 -0.2423 -0.1247  1.0223
  456TIP3    H122783   4.593   0.149  13.898  0.3423 -1.8844 -1.6371
  456TIP3    H222784   4.615   0.034  13.994 -0.1903  0.3816  1.3626
  457TIP3   OH222785   1.219   4.699  11.852 -0.3825 -0.5716 -0.1740
  457TIP3    H122786   1.257   4.761  11.915 -0.2575 -1.2507  0.4372
  457TIP3    H222787   1.143   4.745  11.816  0.8243  0.6936 -1.1942
  458TIP3   OH222788   2.649   2.160   2.505  0.2458 -0.8717  0.5081
  458TIP3    H122789   2.721   2.223   2.501  0.2676 -0.9190 -0.0415
  458TIP3    H222790   2.679   2.092   2.565 -0.5821  0.6133  2.7304
  459TIP3   OH222791   0.064   3.442   1.056  0.4883 -0.1845 -0.8133
  459TIP3    H122792   0.002   3.438   0.984 -0.7551  1.3278  0.1267
  459TIP3    H222793   0.130   3.505   1.028 -0.6523  1.3401 -0.1889
  460TIP3   OH222794   0.084   5.858  12.418  0.6668  0.0031  0.5672
  460TIP3    H122795   0.007   5.910  12.393  0.5080  0.8023  2.5855
  460TIP3    H222796   0.117   5.900  12.497  1.3548 -2.1537  1.4863
  461TIP3   OH222797   4.025   1.366   5.239  0.0998 -0.0904  0.5672
  461TIP3    H122798   4.093   1.316   5.284 -0.6335 -0.6970  1.0214
  461TIP3    H222799   4.064   1.387   5.154  0.3055 -1.7496  0.2084
  462TIP3   OH222800   1.044   2.202   2.149  0.0165 -0.0292  0.2088
  462TIP3    H122801   1.136   2.204   2.176  0.1486 -1.2488 -0.0844
  462TIP3    H222802   1.040   2.134   2.082 -0.3469  2.7422 -2.8105
  463TIP3   OH222803   5.918   5.045  12.416  0.4016  0.0895 -0.2611
  463TIP3    H122804   5.892   5.117  12.473  0.8173 -0.6236  0.8523
  463TIP3    H222805   5.966   5.087  12.345 -1.8898  1.2325 -1.2599
  464TIP3   OH222806   6.405   6.126  11.944 -0.0749 -0.6362  0.0208
  464TIP3    H122807   6.457   6.088  11.873  0.2121 -0.1465 -0.0365
  464TIP3    H222808   6.469   6.166  12.002 -0.3081 -1.0410  0.5633
  465TIP3   OH222809   1.391   3.910  13.530 -0.2601 -0.9881  0.1265
  465TIP3    H122810   1.423   3.957  13.454  0.5060  1.2949  1.7537
  465TIP3    H222811   1.310   3.955  13.555  0.0843 -0.9714  1.2831
  466TIP3   OH222812   3.913   1.494   5.481 -0.2445 -0.1377 -1.3002
  466TIP3    H122813   3.951   1.553   5.547 -0.6088 -1.0946 -0.2101
  466TIP3    H222814   3.968   1.506   5.403 -1.8962  3.7288 -2.1224
  467TIP3   OH222815   5.332   1.934  15.064  0.0068  0.1692 -0.1757
  467TIP3    H122816   5.277   1.975  14.998 -1.2584 -0.5521  0.3717
  467TIP3    H222817   5.288   1.851  15.083 -0.3672  0.8655  2.4166
  468TIP3   OH222818   4.081   1.086   1.497  0.2292 -0.3183 -0.0561
  468TIP3    H122819   4.094   1.030   1.420  0.7034 -0.4413  0.1111
  468TIP3    H222820   4.083   1.026   1.571  0.5411 -0.1066  0.1085
  469TIP3   OH222821   5.458   3.786  13.246  0.7514 -0.2537 -0.0281
  469TIP3    H122822   5.444   3.692  13.247 -0.1326 -0.1318  0.5561
  469TIP3    H222823   5.549   3.798  13.273  0.5288 -0.8998  1.0667
  470TIP3   OH222824   6.090   5.175   6.351 -0.5064 -0.4969  0.2449
  470TIP3    H122825   6.020   5.235   6.378 -0.1884 -0.1591  0.3239
  470TIP3    H222826   6.079   5.098   6.406 -0.9150 -0.5116  0.1455
  471TIP3   OH222827   5.740   5.311  13.700 -0.0350 -0.0494 -0.0670
  471TIP3    H122828   5.773   5.333  13.787  0.4706  1.9196 -0.7175
  471TIP3    H222829   5.772   5.222  13.685  0.6518 -0.0772  1.3687
  472TIP3   OH222830   4.377   2.550   3.900  1.0969 -0.4820 -0.3844
  472TIP3    H122831   4.344   2.514   3.982  0.6180 -0.5715 -0.6159
  472TIP3    H222832   4.411   2.636   3.924  1.8985 -0.9199  0.1021
  473TIP3   OH222833   2.570   2.780   1.203  0.6710  0.0583 -0.0727
  473TIP3    H122834   2.611   2.779   1.116  0.0274 -0.4258 -0.3805
  473TIP3    H222835   2.601   2.700   1.245  1.0163  0.3142  0.1650
  474TIP3   OH222836   6.360   5.747  13.160  0.0941  0.3118 -0.4446
  474TIP3    H122837   6.421   5.684  13.199 -2.6440 -2.4519 -0.2786
  474TIP3    H222838   6.362   5.728  13.066  0.7142  1.4370 -0.6832
  475TIP3   OH222839   4.817   4.515  11.249 -0.2054  0.0225 -0.1200
  475TIP3    H122840   4.751   4.459  11.208 -0.2108 -1.1609  1.3908
  475TIP3    H222841   4.901   4.480  11.219 -0.2045 -0.9415  0.9113
  476TIP3   OH222842   1.869   4.434  13.427 -0.0470 -0.1811 -0.2106
  476TIP3    H122843   1.936   4.499  13.446  1.1179 -1.2489 -0.5698
  476TIP3    H222844   1.803   4.482  13.377  0.7485  0.7457 -0.4025
  477TIP3   OH222845   5.234   2.765   3.021 -0.4913 -0.0914  0.7905
  477TIP3    H122846   5.245   2.683   3.069  0.5441 -0.5447 -0.1824
  477TIP3    H222847   5.320   2.806   3.023 -0.0676 -0.7344 -1.7328
  478TIP3   OH222848   3.419   3.893   1.126 -0.6785 -0.1244 -0.4570
  478TIP3    H122849   3.345   3.841   1.158 -0.4488 -0.0881  0.1599
  478TIP3    H222850   3.496   3.847   1.159 -0.4123 -0.3426 -1.3758
  479TIP3   OH222851   1.295   0.528   4.321  0.0515 -0.1592 -0.0403
  479TIP3    H122852   1.215   0.567   4.285  1.0774  2.0629 -0.0641
  479TIP3    H222853   1.266   0.481   4.399 -1.5776 -1.4039 -1.3158
  480TIP3   OH222854   4.416   3.177  16.605 -0.3696 -0.4319  0.2295
  480TIP3    H122855   4.453   3.125  16.533 -1.4994  0.0402 -0.7201
  480TIP3    H222856   4.321   3.167  16.596 -0.5453 -0.0270  1.4247
  481TIP3   OH222857   3.341   6.517   0.237 -0.4328 -0.2754 -0.2034
  481TIP3    H122858   3.377   6.429   0.227  0.1849 -0.2360  1.3928
  481TIP3    H222859   3.254   6.512   0.199 -0.3149 -1.5234 -0.3448
  482TIP3   OH222860   2.327   4.231  15.880  0.0549 -0.0143 -0.2434
  482TIP3    H122861   2.401   4.190  15.835 -0.0897 -0.8530  0.2571
  482TIP3    H222862   2.334   4.201  15.970  0.0114  1.1836  0.1746
  483TIP3   OH222863   4.413   0.261   3.869 -0.8490  0.2448 -0.3502
  483TIP3    H122864   4.343   0.315   3.906 -1.3661 -0.6256 -0.0086
  483TIP3    H222865   4.443   0.309   3.792 -0.2857  1.7291  0.7503
  484TIP3   OH222866   5.722   1.740  14.284 -0.2455 -0.4546  0.2595
  484TIP3    H122867   5.643   1.788  14.311 -0.6338 -0.8111 -0.2343
  484TIP3    H222868   5.689   1.670  14.228  0.4996 -0.1195 -0.6114
  485TIP3   OH222869   4.471   4.986  16.609  0.0686  0.1213 -0.5151
  485TIP3    H122870   4.502   5.076  16.616  0.0426  0.1204 -0.3914
  485TIP3    H222871   4.443   4.963  16.697  2.7996 -1.0130  0.1391
  486TIP3   OH222872   2.343   6.154  16.010  0.3753  0.0994  0.5183
  486TIP3    H122873   2.273   6.175  15.949  0.1966  0.7393  0.9378
  486TIP3    H222874   2.399   6.231  16.010  0.5658 -0.0374  0.8952
  487TIP3   OH222875   4.790   4.177   3.404  0.2848  0.0153  0.5879
  487TIP3    H122876   4.727   4.248   3.386  0.1296 -0.0685  0.7888
  487TIP3    H222877   4.759   4.104   3.351 -1.4232 -0.9215  2.7048
  488TIP3   OH222878   0.046   2.049   2.637 -0.3476  0.1732 -0.5811
  488TIP3    H122879   0.025   1.958   2.659  2.4967 -0.0404  1.8956
  488TIP3    H222880  -0.017   2.101   2.687 -0.0527 -0.4422  0.4528
  489TIP3   OH222881   2.197   4.236  16.518 -0.8048  0.6767 -0.5664
  489TIP3    H122882   2.292   4.242  16.515 -0.4473 -1.9368  1.4597
  489TIP3    H222883   2.173   4.195  16.435 -0.0264  0.3571 -0.6448
  490TIP3   OH222884   2.651   4.210   1.449  0.4900  0.3393  0.7629
  490TIP3    H122885   2.743   4.190   1.464  0.6103  1.3121  1.3423
  490TIP3    H222886   2.614   4.224   1.536  0.4247  2.6768  0.4216
  491TIP3   OH222887   1.318   3.399  11.932  0.7733  0.2636  0.3868
  491TIP3    H122888   1.269   3.361  11.859  1.3000 -1.8819  1.0857
  491TIP3    H222889   1.253   3.454  11.978  0.2257  0.9866 -1.1680
  492TIP3   OH222890   4.612   4.847  12.956 -0.6095  0.1203 -0.2198
  492TIP3    H122891   4.565   4.919  12.915 -1.4288  0.1796  0.7897
  492TIP3    H222892   4.696   4.885  12.982 -0.4680  0.3267 -0.9457
  493TIP3   OH222893   4.287   4.369   4.002  0.3155 -0.3190  0.0151
  493TIP3    H122894   4.319   4.378   3.912 -0.4210 -0.9893 -0.3194
  493TIP3    H222895   4.262   4.277   4.009  0.0385 -0.1830  0.7987
  494TIP3   OH222896   0.416   0.107  13.096  0.3941  0.0279  0.1212
  494TIP3    H122897   0.467   0.170  13.147 -2.1965  1.9808  0.4511
  494TIP3    H222898   0.365   0.160  13.036 -1.3112 -1.8165 -0.1511
  495TIP3   OH222899   6.136   0.482   2.991  0.0337 -0.1047  0.6453
  495TIP3    H122900   6.080   0.509   3.064 -0.5107 -0.5480  0.4001
  495TIP3    H222901   6.083   0.419   2.942  0.6302 -0.2881  0.2225
  496TIP3   OH222902   4.660   0.165   1.067  0.2312  0.3006 -0.2250
  496TIP3    H122903   4.570   0.169   1.097  0.3357 -0.3101  0.1829
  496TIP3    H222904   4.664   0.089   1.010  0.0294  1.4658 -1.8751
  497TIP3   OH222905   2.908   5.159   3.595  0.7545  0.6897 -0.1020
  497TIP3    H122906   2.937   5.250   3.594  1.5151  0.4439 -0.7007
  497TIP3    H222907   2.815   5.165   3.618  1.1624  1.5018  1.5062
  498TIP3   OH222908   4.030   6.209   4.658 -0.0323 -0.0053 -0.1917
  498TIP3    H122909   4.106   6.158   4.685  1.3918  2.0872 -0.0131
  498TIP3    H222910   4.056   6.252   4.577 -1.4552 -0.1049 -0.7383
  499TIP3   OH222911   6.574   2.098   4.269 -0.4551 -0.4623 -0.5938
  499TIP3    H122912   6.619   2.179   4.245  0.5381 -1.0576 -0.7933
  499TIP3    H222913   6.508   2.087   4.201  0.9866 -1.0561 -1.9699
  500TIP3   OH222914   4.981   2.023  16.782 -0.1641  0.4100 -0.0124
  500TIP3    H122915   5.017   1.974  16.708  2.1024 -0.6087  1.6484
  500TIP3    H222916   5.038   2.100  16.790 -1.0325  1.0621  0.0607
  501TIP3   OH222917   3.374   4.262  14.762  0.3257  0.2534  0.1611
  501TIP3    H122918   3.341   4.251  14.673 -2.1093 -0.8924  1.0893
  501TIP3    H222919   3.330   4.341  14.794 -1.9598 -1.4492  1.5215
  502TIP3   OH222920   3.543   5.627  16.320 -0.0500 -0.2995  0.3210
  502TIP3    H122921   3.458   5.596  16.351 -0.3284  1.1759  1.1607
  502TIP3    H222922   3.522   5.680  16.243  0.0958  0.0777  0.5382
  503TIP3   OH222923   5.555   2.886   0.078 -0.5378 -0.0225  0.6953
  503TIP3    H122924   5.547   2.913   0.170 -2.2523  0.7322  0.3658
  503TIP3    H222925   5.531   2.793   0.079 -0.7127  0.0221  0.9940
  504TIP3   OH222926   4.129   2.134   3.591 -0.2850  0.7524  0.5836
  504TIP3    H122927   4.184   2.193   3.643  0.0957  0.5000  0.4698
  504TIP3    H222928   4.057   2.111   3.650  0.7321 -0.4205  1.4075
  505TIP3   OH222929   2.285   4.604   2.329  0.3376 -0.0704 -0.4599
  505TIP3    H122930   2.343   4.532   2.351  0.3223  0.2927  0.8280
  505TIP3    H222931   2.200   4.579   2.364  0.2809  0.4699 -0.1935
  506TIP3   OH222932   5.504   0.581   0.185  0.2603 -0.1503 -0.3309
  506TIP3    H122933   5.507   0.661   0.133 -0.2957 -0.2127 -0.4635
  506TIP3    H222934   5.416   0.580   0.222  0.1663 -0.8501 -0.5641
  507TIP3   OH222935   1.732   4.342   4.776 -0.0815 -0.0245 -0.2900
  507TIP3    H122936   1.735   4.406   4.705  1.1246 -0.9529 -1.1234
  507TIP3    H222937   1.643   4.306   4.774 -0.2108  0.3342 -0.9884
  508TIP3   OH222938   4.526   5.741  15.773  0.1680  0.9160 -0.6601
  508TIP3    H122939   4.477   5.776  15.698 -2.1756 -1.1328 -0.2227
  508TIP3    H222940   4.504   5.648  15.775  2.4830  0.3243  0.9004
  509TIP3   OH222941   2.902   3.438  15.828 -0.1874  0.2779  0.9516
  509TIP3    H122942   2.929   3.530  15.833 -0.8108  0.4393  1.4919
  509TIP3    H222943   2.969   3.391  15.879 -0.1017  0.4873  1.0340
  510TIP3   OH222944   0.414   2.621   4.765  0.0337  0.3765  0.2395
  510TIP3    H122945   0.383   2.679   4.695  1.5684 -0.4552 -1.1944
  510TIP3    H222946   0.335   2.576   4.795 -0.7247  1.0541 -0.6812
  511TIP3   OH222947   5.935   0.996  11.475  0.0718  0.4326  0.4734
  511TIP3    H122948   5.857   0.974  11.526  0.5021 -0.3437  0.8075
  511TIP3    H222949   5.964   0.914  11.437  0.5184  0.7768  0.0518
  512TIP3   OH222950   0.931   1.372  17.222  0.0972  0.2169 -0.6073
  512TIP3    H122951   0.852   1.423  17.243  1.1271  1.4349  0.4242
  512TIP3    H222952   0.964   1.412  17.142 -0.0955 -0.0292 -0.8123
  513TIP3   OH222953   0.950   1.142  15.984  0.4026 -0.1194 -0.8900
  513TIP3    H122954   0.968   1.213  15.923 -2.4754  0.9140 -0.7017
  513TIP3    H222955   0.902   1.078  15.932  1.4975 -1.1912 -0.6391
  514TIP3   OH222956   5.027   2.186  15.888 -0.4191  0.3116 -0.4235
  514TIP3    H122957   5.104   2.130  15.885  0.5257  1.5540 -0.2013
  514TIP3    H222958   4.964   2.138  15.942 -0.2752 -1.2557 -1.5810
  515TIP3   OH222959   4.872   5.686  12.768 -0.2431  0.5737 -0.0408
  515TIP3    H122960   4.923   5.718  12.842 -0.6842  0.5939  0.2602
  515TIP3    H222961   4.881   5.591  12.772 -0.3716  0.5662  0.1230
  516TIP3   OH222962   0.438   6.421   3.274 -0.0671  0.1213 -0.1509
  516TIP3    H122963   0.419   6.397   3.184  0.4500 -0.5313 -0.0949
  516TIP3    H222964   0.353   6.426   3.317 -0.2473 -0.6830 -0.3994
  517TIP3   OH222965   2.995   6.231   4.268 -0.4206  0.2124 -0.2991
  517TIP3    H122966   2.962   6.320   4.255  1.7298  1.8947  3.7394
  517TIP3    H222967   2.929   6.188   4.322  0.5856  1.1007  1.7323
  518TIP3   OH222968   2.190   6.608   4.548  0.0654 -0.4962  0.3678
  518TIP3    H122969   2.285   6.621   4.546  0.0763 -0.5384  0.5867
  518TIP3    H222970   2.160   6.641   4.463  0.4410 -1.7410 -0.2871
  519TIP3   OH222971   6.008   2.213  14.313 -0.3578 -0.1600  0.3392
  519TIP3    H122972   5.938   2.177  14.258 -0.4499  0.6703 -0.1195
  519TIP3    H222973   6.047   2.138  14.357 -0.3941 -0.8237 -0.7444
  520TIP3   OH222974   6.170   0.844  12.865  0.2220  0.3196 -0.0088
  520TIP3    H122975   6.193   0.934  12.843 -0.7082  0.7604  0.7420
  520TIP3    H222976   6.110   0.852  12.939  0.5044 -0.9433  0.3825
  521TIP3   OH222977   0.238   0.293  11.276 -0.3153 -0.3368  0.0315
  521TIP3    H122978   0.151   0.259  11.293  0.2580 -1.1090  1.5701
  521TIP3    H222979   0.271   0.240  11.203 -0.7812 -0.6531  0.0503
  522TIP3   OH222980   5.637   2.178  10.383 -0.2438  0.2000 -0.4187
  522TIP3    H122981   5.626   2.132  10.467  1.5937  0.1442 -0.1629
  522TIP3    H222982   5.555   2.224  10.370 -0.2767  0.8990  1.8486
  523TIP3   OH222983   3.190   3.602  16.588  0.2616 -0.2407 -0.0041
  523TIP3    H122984   3.282   3.578  16.598  0.2860  0.2416  1.1287
  523TIP3    H222985   3.189   3.697  16.604 -0.1756  0.1049 -1.8722
  524TIP3   OH222986   4.275   3.425  12.540 -1.1160 -0.0181  0.0296
  524TIP3    H122987   4.228   3.351  12.578 -1.8677  0.4932  0.1060
  524TIP3    H222988   4.222   3.502  12.561  0.2715  0.7092  1.0089
  525TIP3   OH222989   1.672   4.266  12.247  0.4022  0.2956 -0.2867
  525TIP3    H122990   1.585   4.297  12.224  0.4110 -0.4217 -1.4064
  525TIP3    H222991   1.698   4.318  12.322 -1.3887 -0.1364  0.6737
  526TIP3   OH222992   0.911   1.758   0.980  0.1990  0.2746  0.0618
  526TIP3    H122993   0.862   1.773   1.061  0.9863  1.4117  0.3649
  526TIP3    H222994   0.999   1.735   1.010  1.0536  2.6092 -0.3995
  527TIP3   OH222995   0.325   1.166   2.920 -0.0716  0.3696 -0.1769
  527TIP3    H122996   0.316   1.131   2.831  2.2278  1.2166 -0.8086
  527TIP3    H222997   0.244   1.214   2.935 -1.3744 -1.4350 -1.0014
  528TIP3   OH222998   1.803   4.778   4.099 -0.2125 -0.6459 -0.3189
  528TIP3    H122999   1.871   4.823   4.050  0.6355 -3.3047 -1.7996
  528TIP3    H223000   1.750   4.848   4.137  0.6324  1.5720 -2.9058
  529TIP3   OH223001   3.291   5.185  13.889 -0.0564 -0.3866  0.5087
  529TIP3    H123002   3.228   5.126  13.847 -1.3743  1.6565 -0.5564
  529TIP3    H223003   3.240   5.262  13.911  1.8854  0.9624  0.5222
  530TIP3   OH223004   3.016   4.447   5.392  0.1114  0.7123  0.2244
  530TIP3    H123005   3.071   4.522   5.413  0.3613  0.3733  0.7987
  530TIP3    H223006   3.027   4.387   5.466  0.7796 -0.3809 -0.7255
  531TIP3   OH223007   6.511   0.347   2.855 -0.4104 -0.1027  0.3598
  531TIP3    H123008   6.449   0.419   2.864  0.7922  1.4666 -2.4820
  531TIP3    H223009   6.482   0.299   2.778 -0.6579 -2.2187  1.6744
  532TIP3   OH223010   2.689   5.944   4.591  0.5088  0.0118 -0.7040
  532TIP3    H123011   2.692   5.850   4.576 -2.4887 -0.1103 -1.3370
  532TIP3    H223012   2.760   5.962   4.653  1.1147 -2.6489 -0.5214
  533TIP3   OH223013   5.488   1.235  12.032  1.6680 -0.3554  0.3218
  533TIP3    H123014   5.411   1.201  11.987  1.4397 -1.2949  1.3880
  533TIP3    H223015   5.522   1.302  11.972  1.0569 -1.1550 -0.9739
  534TIP3   OH223016   3.936   2.346  12.743  0.5720  0.4006 -0.4297
  534TIP3    H123017   3.909   2.343  12.652 -2.8263 -0.9780  0.4735
  534TIP3    H223018   3.886   2.419  12.781 -0.7241 -1.1610  0.9905
  535TIP3   OH223019   4.737   3.501   5.767  0.2972 -0.5115 -0.3109
  535TIP3    H123020   4.801   3.554   5.816 -0.9044 -0.0375  0.8234
  535TIP3    H223021   4.740   3.415   5.809 -1.6541  0.2508  1.5660
  536TIP3   OH223022   1.590   4.727   0.293  0.2613  0.2504 -0.6792
  536TIP3    H123023   1.621   4.789   0.359 -0.2995 -0.9916  0.8314
  536TIP3    H223024   1.550   4.781   0.225 -1.0310  1.5377  1.0225
  537TIP3   OH223025   3.400   2.195  14.921 -0.2602 -0.5646  0.8269
  537TIP3    H123026   3.442   2.120  14.879 -0.6796 -0.0936 -0.4760
  537TIP3    H223027   3.465   2.227  14.983  0.8492 -0.5595 -0.3163
  538TIP3   OH223028   6.612   0.055  12.837  0.1631 -0.3145 -0.1688
  538TIP3    H123029   6.549   0.113  12.879  0.3338 -0.4482  0.2851
  538TIP3    H223030   6.582  -0.033  12.860 -0.4470 -0.4392 -1.3618
  539TIP3   OH223031   4.768   1.529  11.279  0.2774  0.2468  0.1956
  539TIP3    H123032   4.807   1.530  11.366  0.0370 -0.0200  0.3071
  539TIP3    H223033   4.730   1.442  11.270  0.1122  0.3461 -0.0914
  540TIP3   OH223034   3.857   2.547  11.693  0.5472 -0.2421 -0.1130
  540TIP3    H123035   3.783   2.553  11.754 -0.8816 -1.0109 -1.7022
  540TIP3    H223036   3.891   2.458  11.706  1.6748  0.3296  1.0928
  541TIP3   OH223037   6.348   5.754   3.060 -0.1953 -0.0002  0.4305
  541TIP3    H123038   6.439   5.770   3.033 -0.6374 -0.9183 -1.8445
  541TIP3    H223039   6.330   5.822   3.125  2.0403  0.3403  0.7876
  542TIP3   OH223040   1.855   4.658   6.485  0.1797 -0.3585 -0.0025
  542TIP3    H123041   1.875   4.649   6.578 -0.4067  0.3664  0.2059
  542TIP3    H223042   1.919   4.602   6.440  1.9734  1.0658  0.6844
  543TIP3   OH223043   3.157   6.175   2.650 -0.8243  0.1931 -0.0139
  543TIP3    H123044   3.169   6.206   2.740 -0.6346  1.3806 -0.4279
  543TIP3    H223045   3.236   6.125   2.631 -0.2566  1.0583  0.0429
  544TIP3   OH223046   5.371   4.282  16.868 -0.4611 -0.2049 -0.2272
  544TIP3    H123047   5.405   4.201  16.907 -0.0969  0.9565  1.9695
  544TIP3    H223048   5.281   4.288  16.900 -0.4102  0.3987 -0.1990
  545TIP3   OH223049   0.036   2.249   1.038 -0.2837 -0.1812  0.0463
  545TIP3    H123050   0.010   2.331   1.080  1.2984 -0.2255  1.2225
  545TIP3    H223051   0.051   2.272   0.947  0.3944  0.9266  0.4176
  546TIP3   OH223052   0.317   0.651   3.722 -0.6596  0.4233 -0.1896
  546TIP3    H123053   0.263   0.648   3.801  0.1474  0.4418  0.3724
  546TIP3    H223054   0.362   0.735   3.726  0.3537 -0.1007  0.0066
  547TIP3   OH223055   2.484   1.776   3.378  0.1473 -0.0935 -0.4569
  547TIP3    H123056   2.446   1.704   3.328 -0.1442 -0.3569  0.1354
  547TIP3    H223057   2.563   1.800   3.330 -0.1556 -0.3052 -1.0693
  548TIP3   OH223058   5.516   6.723   2.295  0.3301 -0.3183 -0.8803
  548TIP3    H123059   5.518   6.627   2.299 -1.0615 -0.3709 -0.7091
  548TIP3    H223060   5.504   6.743   2.202 -3.8367 -0.5520 -0.5904
  549TIP3   OH223061   5.044   2.494   4.904  0.3575 -0.0223 -0.5723
  549TIP3    H123062   5.092   2.570   4.938  0.2066  0.0566 -0.5351
  549TIP3    H223063   5.095   2.418   4.933 -0.6052 -0.0432  1.1953
  550TIP3   OH223064   4.777   2.870  14.099  0.4222 -0.2940  0.2682
  550TIP3    H123065   4.825   2.788  14.109  1.3062  0.1556 -0.1635
  550TIP3    H223066   4.745   2.891  14.187  1.3373 -0.4161  0.6382
  551TIP3   OH223067   1.513   0.590  16.945 -0.3780  0.3404 -0.9241
  551TIP3    H123068   1.422   0.609  16.923 -0.3553  1.1804 -0.3208
  551TIP3    H223069   1.531   0.507  16.902 -1.5756 -0.0701 -0.6633
  552TIP3   OH223070   4.146   3.828  15.559  0.3527 -0.1416  0.2694
  552TIP3    H123071   4.180   3.750  15.602 -0.8701 -0.7418  0.1756
  552TIP3    H223072   4.097   3.794  15.484  1.1933  0.8058 -0.7453
  553TIP3   OH223073   0.280   2.366  15.454 -0.0574 -0.0435  0.5129
  553TIP3    H123074   0.228   2.344  15.377  0.3499 -0.9751  0.4915
  553TIP3    H223075   0.339   2.291  15.466  2.1511  1.4654 -0.1916
  554TIP3   OH223076   1.114   3.651  16.583  0.1958  0.4590 -0.4316
  554TIP3    H123077   1.109   3.739  16.620  1.1300  0.1901  0.3738
  554TIP3    H223078   1.168   3.602  16.645 -0.2360 -0.6591 -0.9143
  555TIP3   OH223079   2.230   2.108  12.194  0.1553  0.0443  0.1097
  555TIP3    H123080   2.140   2.078  12.205 -0.3135  1.3910  0.2478
  555TIP3    H223081   2.252   2.148  12.278  1.2205 -1.0487  0.3789
  556TIP3   OH223082   2.164   0.041  15.872  0.1523  0.3806  0.3439
  556TIP3    H123083   2.151   0.136  15.868  0.8965  0.4444 -0.8964
  556TIP3    H223084   2.177   0.023  15.965 -1.7116  1.2438  0.8302
  557TIP3   OH223085   2.577   3.162   5.732  0.4845  0.3772  0.1095
  557TIP3    H123086   2.630   3.240   5.713  1.1980 -0.6271 -2.5647
  557TIP3    H223087   2.636   3.089   5.712 -1.1072 -0.8085 -0.3938
  558TIP3   OH223088   4.317   4.711  13.201  0.2229  0.6120  0.3954
  558TIP3    H123089   4.249   4.775  13.181 -0.2538  0.4477  1.4378
  558TIP3    H223090   4.273   4.644  13.254  1.0178  0.1031  0.4339
  559TIP3   OH223091   1.547   4.273   3.906 -0.0113  0.2534 -0.4607
  559TIP3    H123092   1.514   4.192   3.868  1.1459 -0.0606 -0.8235
  559TIP3    H223093   1.618   4.299   3.848 -1.9534  2.9280 -1.8857
  560TIP3   OH223094   1.376   2.977  14.383  0.0145 -0.3023 -0.2336
  560TIP3    H123095   1.388   2.964  14.289 -2.1371  0.4953 -0.6686
  560TIP3    H223096   1.286   2.949  14.401 -0.0524  0.7714  1.3378
  561TIP3   OH223097   4.068   1.303  13.294  0.1270 -0.0472 -0.7369
  561TIP3    H123098   4.027   1.385  13.268  0.0665 -0.5876 -2.5168
  561TIP3    H223099   4.047   1.293  13.387 -0.8405  1.3653 -0.7784
  562TIP3   OH223100   1.634   3.754   0.109  0.5608  0.2575 -0.3157
  562TIP3    H123101   1.573   3.684   0.086  0.6124 -0.1444  0.6847
  562TIP3    H223102   1.694   3.760   0.034  0.4245 -0.6319 -0.5066
  563TIP3   OH223103   3.399   5.009  13.560  0.5199  0.1811  0.0851
  563TIP3    H123104   3.443   5.093  13.568 -0.0838  0.4630  0.4630
  563TIP3    H223105   3.400   4.972  13.648  1.1508 -0.3974 -0.1577
  564TIP3   OH223106   5.083   6.604  11.325 -0.1945 -0.1324 -0.2166
  564TIP3    H123107   5.029   6.676  11.357 -0.0879  0.2167 -0.8140
  564TIP3    H223108   5.032   6.526  11.343 -0.5975  0.1419 -0.1496
  565TIP3   OH223109   3.531   0.853  17.133  0.6181 -0.4880 -0.1661
  565TIP3    H123110   3.580   0.782  17.176  0.9751 -0.3584 -0.3574
  565TIP3    H223111   3.598   0.915  17.104  0.2752  0.1585  0.4038
  566TIP3   OH223112   1.667   0.384  13.789  0.3304 -0.3265  0.3719
  566TIP3    H123113   1.712   0.462  13.820 -1.2448  1.2122 -0.9843
  566TIP3    H223114   1.583   0.416  13.757  0.5294 -2.1876 -2.3720
  567TIP3   OH223115   6.757   1.041   5.131 -0.0934 -0.9628  0.4246
  567TIP3    H123116   6.769   0.947   5.150  1.5038 -0.5030  1.9431
  567TIP3    H223117   6.842   1.070   5.097  0.4750  0.5416  2.9020
  568TIP3   OH223118   6.433   4.628  16.619 -0.2090 -0.2525  0.4695
  568TIP3    H123119   6.429   4.600  16.711  1.4639 -0.3086  0.5564
  568TIP3    H223120   6.385   4.560  16.572  0.7873 -1.4361  1.0796
  569TIP3   OH223121   2.031   6.699   4.355 -0.1318 -0.0542 -1.0748
  569TIP3    H123122   1.982   6.762   4.408  1.0509 -0.3802  0.4719
  569TIP3    H223123   2.019   6.729   4.265 -1.5444  0.9855 -0.5690
  570TIP3   OH223124   2.243   0.276   3.830 -0.5538 -0.6838 -0.0037
  570TIP3    H123125   2.164   0.315   3.869 -0.4367  0.3754 -0.7734
  570TIP3    H223126   2.310   0.343   3.841 -0.1587 -0.9537 -0.7512
  571TIP3   OH223127   4.961   5.786   2.177 -0.2823 -0.2063  0.0032
  571TIP3    H123128   4.960   5.775   2.272 -0.5194  0.4151  0.0798
  571TIP3    H223129   4.987   5.877   2.165 -1.8672  0.2134 -0.4749
  572TIP3   OH223130   5.102   2.709  13.648 -0.3706  0.1866 -0.3387
  572TIP3    H123131   5.127   2.792  13.607 -1.2414  0.1166 -1.0392
  572TIP3    H223132   5.125   2.721  13.741 -0.7960  1.3443 -0.3606
  573TIP3   OH223133   2.299   5.549  12.714  0.6826 -0.0285  0.1867
  573TIP3    H123134   2.272   5.514  12.629 -1.1256  1.1403  0.2128
  573TIP3    H223135   2.344   5.477  12.757 -0.7912 -1.5377 -0.6852
  574TIP3   OH223136   2.067   4.982  11.215  0.1390  0.0566 -0.0109
  574TIP3    H123137   2.126   5.047  11.178  1.3799 -0.2594  1.3487
  574TIP3    H223138   2.045   4.924  11.141  0.4827  0.9274 -0.8090
  575TIP3   OH223139   6.725   3.038   5.469  0.4491 -0.3494  0.0444
  575TIP3    H123140   6.816   3.011   5.469  0.5062 -0.1664 -0.3602
  575TIP3    H223141   6.718   3.101   5.541  0.7199 -0.1061 -0.1423
  576TIP3   OH223142   2.040   0.781  15.375  0.5321  0.2932  0.1438
  576TIP3    H123143   1.973   0.839  15.338  2.2866  1.6332 -1.1437
  576TIP3    H223144   2.059   0.719  15.304  1.0502  0.3057  0.2665
  577TIP3   OH223145   2.976   3.696   4.729  0.0068  0.0522 -0.1051
  577TIP3    H123146   2.995   3.680   4.636  1.2838  1.5781 -0.1535
  577TIP3    H223147   3.048   3.751   4.759 -0.1692 -0.7420  1.9228
  578TIP3   OH223148   5.111   6.415   0.303 -0.6932 -0.1765 -0.3134
  578TIP3    H123149   5.070   6.412   0.216 -2.0398 -2.0728  0.3340
  578TIP3    H223150   5.153   6.329   0.313  0.0652  0.2847  0.6518
  579TIP3   OH223151   3.177   0.421   2.344 -0.2122 -0.2253 -0.0760
  579TIP3    H123152   3.085   0.412   2.367  0.3361 -1.2458  1.9508
  579TIP3    H223153   3.202   0.508   2.376 -1.1119  1.3871 -3.3376
  580TIP3   OH223154   5.570   3.160   2.343 -0.0064  0.0339 -0.5309
  580TIP3    H123155   5.501   3.194   2.399  0.7728  1.4860 -0.4099
  580TIP3    H223156   5.615   3.095   2.398 -1.8051 -1.6681 -0.9346
  581TIP3   OH223157   2.019   3.755  12.479 -0.0558  0.1101 -0.4363
  581TIP3    H123158   2.009   3.661  12.460 -0.4765 -0.2754  1.4998
  581TIP3    H223159   1.981   3.799  12.403  0.0862 -1.2785 -1.3469
  582TIP3   OH223160   2.202   6.318  13.453  0.4089 -0.2966 -0.1857
  582TIP3    H123161   2.197   6.390  13.391 -1.2279  1.4195  1.8031
  582TIP3    H223162   2.115   6.313  13.491  1.6339 -0.4124  2.8619
  583TIP3   OH223163   4.116   1.960  14.540  0.7278 -0.3386  0.1257
  583TIP3    H123164   4.100   2.053  14.552 -0.0947 -0.4186 -0.3226
  583TIP3    H223165   4.207   1.955  14.510  0.0176  0.5307 -2.4192
  584TIP3   OH223166   3.968   0.433   5.345 -0.5544  0.5846 -0.5560
  584TIP3    H123167   3.931   0.511   5.387  0.7013  1.7137 -1.4498
  584TIP3    H223168   3.928   0.431   5.258 -0.8519  0.0093 -0.4118
  585TIP3   OH223169   5.743   5.855  14.483 -0.4780 -0.6479 -0.2026
  585TIP3    H123170   5.818   5.806  14.449  0.0529 -0.6633  0.9525
  585TIP3    H223171   5.776   5.944  14.496 -0.2865 -0.9368  1.4556
  586TIP3   OH223172   0.135   6.130  13.778  0.1383 -0.1797 -0.1258
  586TIP3    H123173   0.152   6.170  13.693 -0.0227 -0.5740 -0.3456
  586TIP3    H223174   0.081   6.194  13.824 -0.0441 -0.1067 -0.4403
  587TIP3   OH223175   2.627   5.579  12.932 -0.5348 -0.6057 -0.3897
  587TIP3    H123176   2.711   5.581  12.886  0.2541  0.1299  1.0481
  587TIP3    H223177   2.562   5.575  12.861  0.7001 -1.8360 -1.5130
  588TIP3   OH223178   0.871   2.456   4.850  0.6344  0.0689 -0.5692
  588TIP3    H123179   0.939   2.491   4.906  1.5467  0.1210 -1.6712
  588TIP3    H223180   0.860   2.365   4.878  1.3989 -0.0382 -0.6055
  589TIP3   OH223181   5.415   5.574   5.546  0.0631  0.3575 -0.0553
  589TIP3    H123182   5.398   5.577   5.640 -3.0706 -0.7267 -0.4649
  589TIP3    H223183   5.345   5.626   5.507  1.0811  0.4826 -1.8253
  590TIP3   OH223184   4.605   5.376  12.896  0.1544 -0.0147 -0.5200
  590TIP3    H123185   4.687   5.419  12.918  0.4919 -1.1932  0.6257
  590TIP3    H223186   4.559   5.367  12.979 -0.9055  0.1457 -1.0732
  591TIP3   OH223187   6.301   4.146   4.162 -0.3145 -0.0793 -0.0809
  591TIP3    H123188   6.262   4.171   4.245 -1.0903 -2.9800  0.5162
  591TIP3    H223189   6.241   4.180   4.096 -0.6929  0.6092  0.6076
  592TIP3   OH223190   6.204   5.408   5.975 -0.0249  0.0445  0.5890
  592TIP3    H123191   6.205   5.334   5.914  1.4185 -0.4558  1.1764
  592TIP3    H223192   6.265   5.472   5.937  0.6562 -0.1450  1.3228
  593TIP3   OH223193   3.280   0.945  15.689  0.1942 -0.1275 -0.1021
  593TIP3    H123194   3.213   0.991  15.640 -0.7559 -1.4428 -0.0939
  593TIP3    H223195   3.330   0.897  15.623  0.4875  0.0521 -0.0129
  594TIP3   OH223196   5.893   5.755   1.890 -0.1610  0.3197 -0.4764
  594TIP3    H123197   5.891   5.746   1.985 -0.2117 -1.0880 -0.5889
  594TIP3    H223198   5.918   5.669   1.858 -3.8031 -0.4208 -1.8849
  595TIP3   OH223199   1.121   0.140   3.622  0.1629 -0.1072  0.1082
  595TIP3    H123200   1.159   0.064   3.666 -0.3611  0.4093  1.5032
  595TIP3    H223201   1.047   0.104   3.573 -0.6544 -0.3995  1.5033
  596TIP3   OH223202   4.971   4.816  11.129  0.2102  0.4429 -0.4082
  596TIP3    H123203   4.949   4.809  11.222  0.7876  0.3536 -0.2768
  596TIP3    H223204   4.886   4.827  11.085 -0.1436 -0.4374  0.0387
  597TIP3   OH223205   2.282   5.073  10.993  0.0824 -0.4265  0.6065
  597TIP3    H123206   2.298   4.999  11.052 -0.8425 -0.1909  1.1743
  597TIP3    H223207   2.351   5.136  11.015 -0.9062  0.1371  2.2646
  598TIP3   OH223208   2.929   5.446  13.677 -0.0713  0.2130  0.3397
  598TIP3    H123209   2.962   5.515  13.619 -3.5471 -0.0219 -2.2849
  598TIP3    H223210   2.950   5.364  13.631  0.3628 -0.2687  1.3542
  599TIP3   OH223211   6.079   2.325   2.168 -0.6774  0.3689  0.2322
  599TIP3    H123212   6.153   2.321   2.229 -0.2997  2.3199 -0.0395
  599TIP3    H223213   6.070   2.235   2.137  2.0184  0.1618 -0.2234
  600TIP3   OH223214   6.184   6.542   5.238 -0.1268  0.6610  0.2540
  600TIP3    H123215   6.225   6.608   5.182  0.3505 -0.2672 -0.5249
  600TIP3    H223216   6.174   6.585   5.323  2.3032  1.0110  0.4261
  601TIP3   OH223217   4.937   0.720  15.946  0.3410  0.1793  0.0337
  601TIP3    H123218   4.905   0.651  16.005  0.2463 -0.9156 -1.2519
  601TIP3    H223219   5.022   0.745  15.982  0.9632 -1.5124 -0.1507
  602TIP3   OH223220   5.487   3.979   3.836  0.1149  0.1411  0.1503
  602TIP3    H123221   5.423   3.973   3.906  0.9273  1.6708  1.0766
  602TIP3    H223222   5.512   4.071   3.834  1.8201 -0.2992 -0.5823
  603TIP3   OH223223   2.718   2.587  16.909 -0.1479 -0.5404 -0.2909
  603TIP3    H123224   2.642   2.621  16.862 -1.2996 -2.8625 -0.2608
  603TIP3    H223225   2.730   2.647  16.982 -0.1616  1.4536 -1.8379
  604TIP3   OH223226   0.850   6.184   5.486 -0.1059  0.3673  0.5028
  604TIP3    H123227   0.768   6.190   5.535 -0.9693 -2.2603 -0.4566
  604TIP3    H223228   0.831   6.224   5.401  0.6804  2.7674  1.3846
  605TIP3   OH223229   3.602   0.934   1.122 -0.0131 -0.0576 -0.8171
  605TIP3    H123230   3.675   0.911   1.179  0.2441  0.4119 -0.9514
  605TIP3    H223231   3.524   0.909   1.171  0.1190  1.7516  0.4280
  606TIP3   OH223232   5.913   4.722  12.102 -0.6193  0.3710 -0.1824
  606TIP3    H123233   5.985   4.769  12.143 -1.2487  1.0465  0.1762
  606TIP3    H223234   5.914   4.750  12.011 -0.1837  0.0735 -0.2692
  607TIP3   OH223235   5.198   2.615  11.593 -0.4100  0.2703  0.2667
  607TIP3    H123236   5.128   2.575  11.541  0.4846 -1.3625  0.2406
  607TIP3    H223237   5.213   2.554  11.665 -0.1829  1.4550  1.2614
  608TIP3   OH223238   0.171   2.923   1.603 -0.5292  0.1758 -0.0073
  608TIP3    H123239   0.176   2.885   1.515  0.3855  2.3909 -0.9587
  608TIP3    H223240   0.191   3.015   1.591  0.4977  0.3768  2.6707
  609TIP3   OH223241   6.628   1.600   4.466 -0.0080  0.7481 -0.3465
  609TIP3    H123242   6.620   1.692   4.441  1.3300  0.8355 -0.5223
  609TIP3    H223243   6.566   1.554   4.410 -2.6261  1.7899  1.5104
  610TIP3   OH223244   6.342   6.488   2.073  0.1829  0.4068 -0.1442
  610TIP3    H123245   6.268   6.492   2.135  0.4246  0.9140  0.1164
  610TIP3    H223246   6.395   6.565   2.094  0.6015  0.2373 -0.5679
  611TIP3   OH223247   1.758   2.460   5.036  0.3052  0.4055 -0.2094
  611TIP3    H123248   1.668   2.427   5.027  0.5939 -0.0017 -2.0958
  611TIP3    H223249   1.800   2.399   5.097  0.5026 -2.2349 -2.7416
  612TIP3   OH223250   5.892   1.992   5.036 -0.0603  0.0583  0.1893
  612TIP3    H123251   5.930   1.970   4.951 -2.0156  1.2407 -1.0711
  612TIP3    H223252   5.945   2.065   5.068 -0.5108  0.9286 -0.9901
  613TIP3   OH223253   3.087   1.985   0.689 -0.1259  0.2992 -0.2073
  613TIP3    H123254   3.182   1.996   0.695 -0.0207 -0.7580  0.3669
  613TIP3    H223255   3.052   2.047   0.753  0.0374  2.0992 -1.7684
  614TIP3   OH223256   2.032   3.603  11.502  0.3429 -0.6979  0.2709
  614TIP3    H123257   1.983   3.658  11.441 -1.7415 -0.9211  1.6604
  614TIP3    H223258   2.119   3.641  11.504 -0.3645  1.0826 -0.6204
  615TIP3   OH223259   1.624   3.247  11.715  0.3058  0.1294 -0.2216
  615TIP3    H123260   1.660   3.159  11.722 -1.0969 -0.3992  0.5459
  615TIP3    H223261   1.700   3.301  11.691  1.2602 -1.2069 -0.3356
  616TIP3   OH223262   5.062   4.801   6.304 -0.1179 -0.6107  0.6454
  616TIP3    H123263   5.095   4.780   6.391  0.4306  0.5592  0.7365
  616TIP3    H223264   5.088   4.891   6.290 -0.8468 -0.5541 -0.4411
  617TIP3   OH223265   6.279   1.116   2.773 -0.4011 -0.0434 -0.0894
  617TIP3    H123266   6.354   1.109   2.714  0.2663 -1.7475  0.9029
  617TIP3    H223267   6.205   1.137   2.715  0.4031 -0.7510 -1.4167
  618TIP3   OH223268   2.345   6.117  13.611 -0.4573  0.2259  0.0969
  618TIP3    H123269   2.439   6.137  13.607 -0.3596 -0.3763 -1.5877
  618TIP3    H223270   2.307   6.169  13.540 -1.2373 -0.2600  0.1547
  619TIP3   OH223271   5.156   6.480  10.487 -0.1652  0.0799  0.3525
  619TIP3    H123272   5.093   6.430  10.538 -0.2873  1.2161  1.3686
  619TIP3    H223273   5.103   6.525  10.421 -0.0251 -1.2754 -0.7188
  620TIP3   OH223274   2.578   1.598   0.634  0.0437  0.0842 -0.4906
  620TIP3    H123275   2.654   1.646   0.600  0.4734 -0.3556 -0.1776
  620TIP3    H223276   2.544   1.654   0.703  1.5403 -0.7473  1.0150
  621TIP3   OH223277   3.742   0.182   2.886  0.1562  0.3450  0.4586
  621TIP3    H123278   3.740   0.096   2.844  0.4537  0.2658  0.6042
  621TIP3    H223279   3.770   0.165   2.976  4.7845  0.9858 -0.6052
  622TIP3   OH223280   5.620   1.898  16.368 -0.5201  0.2722 -0.1968
  622TIP3    H123281   5.673   1.942  16.434  1.5993 -1.9399 -0.2923
  622TIP3    H223282   5.529   1.913  16.396  0.2521  1.1577  2.0155
  623TIP3   OH223283   0.501   2.269   3.342  0.5979 -0.4062 -0.1467
  623TIP3    H123284   0.409   2.283   3.366  0.3447  0.9322 -1.6816
  623TIP3    H223285   0.547   2.263   3.425 -0.7051  0.1973  0.6553
  624TIP3   OH223286   4.935   0.766   1.122 -0.4562  0.0310 -0.4604
  624TIP3    H123287   4.933   0.719   1.039  0.3756 -0.2175 -0.3497
  624TIP3    H223288   4.892   0.707   1.184  2.9603 -1.9284  0.3059
  625TIP3   OH223289   3.213   5.834   4.589  0.4351 -0.3728  0.5462
  625TIP3    H123290   3.296   5.854   4.632 -0.0628 -1.5929  2.1738
  625TIP3    H223291   3.158   5.910   4.606  0.6869 -0.2559  0.8486
  626TIP3   OH223292   0.096   0.080  13.026 -0.5297 -0.2976 -0.1941
  626TIP3    H123293   0.031   0.090  12.956  0.6980 -2.0094 -1.6555
  626TIP3    H223294   0.175   0.122  12.991 -0.1536 -0.3697  0.5516
  627TIP3   OH223295   6.195   5.102   0.166  0.3827 -0.0441 -0.0831
  627TIP3    H123296   6.244   5.041   0.110  1.4386  0.3875  0.3416
  627TIP3    H223297   6.107   5.104   0.129  1.3001  0.9980 -2.3366
  628TIP3   OH223298   2.996   2.950   3.720 -0.3536  0.1711  0.1089
  628TIP3    H123299   3.069   3.007   3.695 -0.2274  0.4084  0.9664
  628TIP3    H223300   2.927   2.971   3.658  0.1923  0.1883 -0.5039
  629TIP3   OH223301   4.166   0.535  16.114  0.3067 -0.2860  0.0909
  629TIP3    H123302   4.096   0.487  16.157  0.4000 -1.1400 -0.6837
  629TIP3    H223303   4.138   0.542  16.023 -0.0116  1.7209  0.2983
  630TIP3   OH223304   5.846   5.119   3.486 -0.2760 -0.1140  0.0557
  630TIP3    H123305   5.851   5.024   3.475 -1.8810 -0.4640  1.7810
  630TIP3    H223306   5.760   5.134   3.526 -0.9540  2.2917 -2.0396
  631TIP3   OH223307   3.914   3.199   0.420 -0.5515 -0.2252  0.0954
  631TIP3    H123308   4.003   3.226   0.442 -1.1596 -0.5491  3.5012
  631TIP3    H223309   3.864   3.281   0.416 -0.2870 -0.1080 -0.8975
  632TIP3   OH223310   4.396   6.347   5.123  0.1462 -0.4471 -0.1433
  632TIP3    H123311   4.434   6.434   5.134  0.2889 -0.4477 -0.6317
  632TIP3    H223312   4.469   6.291   5.099 -0.0334 -0.5968 -0.3452
  633TIP3   OH223313   6.424   2.237   5.483  0.9224 -0.1789 -0.2445
  633TIP3    H123314   6.469   2.153   5.479  0.8007 -0.2004 -1.6479
  633TIP3    H223315   6.439   2.277   5.397  0.2408  0.8517  0.0885
  634TIP3   OH223316   4.783   5.391  13.229  0.2336 -1.2022 -0.3629
  634TIP3    H123317   4.842   5.412  13.302 -0.6578  1.3597 -0.2827
  634TIP3    H223318   4.831   5.418  13.151 -0.8904  1.3552 -0.2668
  635TIP3   OH223319   3.471   1.434   3.457  0.1992  0.4354  0.3588
  635TIP3    H123320   3.544   1.465   3.511  0.1800  0.3084  0.4569
  635TIP3    H223321   3.407   1.399   3.519  0.8162 -1.0831  0.1784
  636TIP3   OH223322   1.826   3.067   3.562 -0.0440 -0.1566 -0.4898
  636TIP3    H123323   1.891   3.124   3.602 -0.3882 -0.1452  0.0605
  636TIP3    H223324   1.839   3.079   3.468  0.0623  0.6344 -0.3857
  637TIP3   OH223325   2.746   0.888   3.394 -0.3228 -0.0444 -0.1550
  637TIP3    H123326   2.655   0.915   3.387  0.1705  2.5920  1.9590
  637TIP3    H223327   2.747   0.824   3.466 -0.2177  2.0096  1.7517
  638TIP3   OH223328   0.741   5.827   6.420 -0.0082 -0.5734 -1.3675
  638TIP3    H123329   0.751   5.848   6.512  0.4645 -1.1970 -1.2716
  638TIP3    H223330   0.736   5.731   6.417 -2.6107 -0.5189 -1.7414
  639TIP3   OH223331   6.603   2.784   1.267 -0.0445  0.6261  0.1889
  639TIP3    H123332   6.521   2.736   1.277 -0.2318  0.3852 -2.0151
  639TIP3    H223333   6.672   2.720   1.283 -0.2746  0.4898  0.6473
  640TIP3   OH223334   0.560   1.963  17.068  0.1553  0.4468  0.0331
  640TIP3    H123335   0.628   1.983  17.005 -0.1069  1.1186 -0.0451
  640TIP3    H223336   0.580   1.875  17.099  0.6307  0.3539 -0.5347
  641TIP3   OH223337   2.342   1.664  17.208 -0.1297  0.0008  0.8622
  641TIP3    H123338   2.355   1.722  17.283  0.8959  3.2389 -1.5774
  641TIP3    H223339   2.267   1.703  17.161  0.1989 -1.0224 -0.5623
  642TIP3   OH223340   0.556   5.222  15.280  0.7485  0.2673  0.3614
  642TIP3    H123341   0.643   5.253  15.258  0.1982  2.6023  1.2224
  642TIP3    H223342   0.504   5.240  15.201  0.3955  1.8347  0.9111
  643TIP3   OH223343   0.280   4.260  15.401  0.3169 -0.1009  0.3552
  643TIP3    H123344   0.210   4.325  15.407  0.8867  1.0278 -3.0151
  643TIP3    H223345   0.237   4.181  15.368 -0.1429 -1.1971  3.2435
  644TIP3   OH223346   4.170   3.455   3.337  0.6707  0.1576  0.1437
  644TIP3    H123347   4.096   3.397   3.356  0.8781  0.5772  2.6806
  644TIP3    H223348   4.210   3.471   3.423  4.9449 -1.6006 -1.2538
  645TIP3   OH223349   1.528   2.885  14.859 -0.2980  0.5660 -0.5343
  645TIP3    H123350   1.542   2.932  14.777 -0.5502  0.5589 -0.5822
  645TIP3    H223351   1.519   2.954  14.925 -0.8656  0.5915 -0.6360
  646TIP3   OH223352   0.300   2.973  12.920  0.6532  0.1023 -0.2794
  646TIP3    H123353   0.291   2.934  13.008  1.6285  1.8135  0.6196
  646TIP3    H223354   0.354   2.910  12.872  0.5119 -0.6271  0.4757
  647TIP3   OH223355   3.933   0.224  15.575 -0.5753 -0.5206  0.1517
  647TIP3    H123356   3.890   0.245  15.493 -1.8904 -0.4555  0.8390
  647TIP3    H223357   3.946   0.129  15.572 -1.8553 -0.7209  0.4285
  648TIP3   OH223358   4.080   4.994  12.319 -0.1266  0.3037  0.5215
  648TIP3    H123359   4.014   5.001  12.250 -2.8346  0.7255  2.9588
  648TIP3    H223360   4.158   5.036  12.282 -0.6233 -1.4949 -3.0303
  649TIP3   OH223361   2.356   5.909  12.465 -0.0467 -0.7355  0.3427
  649TIP3    H123362   2.310   5.879  12.544 -0.6154  0.4829  0.4967
  649TIP3    H223363   2.419   5.973  12.496 -0.2130 -0.3114 -0.1765
  650TIP3   OH223364   1.520   0.334   1.526  0.3638 -0.2174 -0.6911
  650TIP3    H123365   1.577   0.276   1.475 -0.6013 -1.5205 -0.3342
  650TIP3    H223366   1.436   0.331   1.481  0.2754  0.8444 -0.6106
  651TIP3   OH223367   4.229   2.276   1.772  0.0159  0.4953  0.3686
  651TIP3    H123368   4.308   2.228   1.747  0.7046  1.4673  0.6455
  651TIP3    H223369   4.242   2.299   1.863 -0.2535  1.3169  0.2053
  652TIP3   OH223370   5.809   6.547   6.784  0.0031 -0.2691  0.3388
  652TIP3    H123371   5.819   6.477   6.718  1.0265  0.0902  0.0927
  652TIP3    H223372   5.895   6.552   6.826 -0.7785 -0.8116  2.0496
  653TIP3   OH223373   3.910   4.159   5.239 -0.0120 -0.1602  0.1666
  653TIP3    H123374   3.954   4.143   5.323  0.2677 -0.6387 -0.0647
  653TIP3    H223375   3.958   4.104   5.176 -1.4264 -1.3256  0.0454
  654TIP3   OH223376   1.961   0.079  16.779 -0.2162 -0.7890 -0.1273
  654TIP3    H123377   2.048   0.115  16.796 -0.0515 -0.6567 -1.1337
  654TIP3    H223378   1.908   0.106  16.854  0.4783 -0.3888  0.2245
  655TIP3   OH223379   4.205   4.971  12.710 -0.2030  0.6274  0.2781
  655TIP3    H123380   4.116   4.940  12.727 -0.9069  1.7354 -1.0799
  655TIP3    H223381   4.249   4.897  12.669 -1.0375  0.5552 -0.5429
  656TIP3   OH223382   5.579   0.482  13.130  0.5249 -0.0487  0.1541
  656TIP3    H123383   5.494   0.523  13.147  0.6877  0.2030  0.3697
  656TIP3    H223384   5.559   0.389  13.119  0.1924  0.0426 -0.0299
  657TIP3   OH223385   0.009   4.480   1.390 -0.2352  0.1743  0.1008
  657TIP3    H123386   0.019   4.436   1.474  1.6129  0.4260  0.0705
  657TIP3    H223387   0.022   4.411   1.325 -1.7176 -0.0320 -0.0041
  658TIP3   OH223388   3.500   2.118   5.690 -0.1637  0.4508  0.2544
  658TIP3    H123389   3.530   2.028   5.672 -1.3264 -0.0730  0.8411
  658TIP3    H223390   3.542   2.140   5.774 -2.2358 -0.7267  1.6821
  659TIP3   OH223391   4.696   2.327  16.632 -0.2594  0.3006 -0.0108
  659TIP3    H123392   4.680   2.238  16.663 -0.1064  0.3386  0.1813
  659TIP3    H223393   4.786   2.345  16.659  0.3349 -0.1306 -1.5713
  660TIP3   OH223394   2.548   2.806  15.723 -0.0985  0.0792 -0.6276
  660TIP3    H123395   2.593   2.730  15.760 -0.3276  0.5729  0.7002
  660TIP3    H223396   2.456   2.778  15.717 -0.0810  0.0425 -0.7379
  661TIP3   OH223397   4.697   6.112  13.644 -0.3644  0.2058 -0.0562
  661TIP3    H123398   4.756   6.039  13.623  1.7419  0.6239  3.5825
  661TIP3    H223399   4.730   6.185  13.593 -0.0798 -0.4408 -0.8278
  662TIP3   OH223400   0.427   5.099   2.074 -0.1473 -0.0282 -0.1390
  662TIP3    H123401   0.467   5.057   2.151 -0.6901  0.5128  0.4463
  662TIP3    H223402   0.500   5.109   2.013 -0.1228 -2.5556 -0.6588
  663TIP3   OH223403   3.538   3.726  13.942  0.1240 -0.3497  0.1840
  663TIP3    H123404   3.585   3.810  13.948 -0.6310  0.2225 -1.2745
  663TIP3    H223405   3.597   3.670  13.892 -1.2987  0.9477 -3.3331
  664TIP3   OH223406   3.380   4.391   1.578  0.2768 -0.1722  0.1171
  664TIP3    H123407   3.370   4.334   1.654  0.7438 -1.4389 -0.7255
  664TIP3    H223408   3.445   4.346   1.523 -0.1763  0.6076 -1.1024
  665TIP3   OH223409   6.739   3.315   6.338  0.1971 -0.3205 -0.2930
  665TIP3    H123410   6.808   3.371   6.374 -0.0166 -0.9490  1.1536
  665TIP3    H223411   6.774   3.286   6.254  0.3306  1.8974 -1.0610
  666TIP3   OH223412   4.499   5.834   0.076 -0.1302  0.2154  0.5471
  666TIP3    H123413   4.569   5.796   0.023 -0.8602  0.4018 -0.5971
  666TIP3    H223414   4.455   5.759   0.116  0.6910  0.0986  1.2469
  667TIP3   OH223415   1.053   6.091   2.505  0.4250 -0.7260 -0.0363
  667TIP3    H123416   0.991   6.160   2.480 -0.6946 -2.1943 -1.4821
  667TIP3    H223417   1.134   6.114   2.459 -0.0830 -0.6109 -0.8963
  668TIP3   OH223418   6.141   4.015  11.323  0.0064  0.5087  0.8757
  668TIP3    H123419   6.231   3.987  11.341  0.0584  0.9534  1.3343
  668TIP3    H223420   6.097   4.010  11.408 -0.2886  0.6967  0.7367
  669TIP3   OH223421   3.459   5.287   1.738  0.0316 -0.3307  0.2143
  669TIP3    H123422   3.440   5.248   1.824 -2.5672  2.5696  1.1225
  669TIP3    H223423   3.450   5.381   1.752 -1.8262  0.2196 -3.4834
  670TIP3   OH223424   2.401   6.714  13.986  0.1139  0.0629 -0.0832
  670TIP3    H123425   2.396   6.688  13.894  1.2134  0.4359 -0.2709
  670TIP3    H223426   2.354   6.646  14.033 -1.1372  0.2766 -0.9835
  671TIP3   OH223427   1.249   4.815   6.219  0.2232 -0.6866  0.2979
  671TIP3    H123428   1.211   4.873   6.285 -2.1204 -4.7820  2.9727
  671TIP3    H223429   1.182   4.810   6.151  1.4718  1.3907 -1.2080
  672TIP3   OH223430   5.424   4.883  14.314 -0.1142  0.3007 -0.6936
  672TIP3    H123431   5.413   4.791  14.292 -0.9398  0.7634 -2.4469
  672TIP3    H223432   5.506   4.887  14.363  0.4871 -1.2230 -1.5060
  673TIP3   OH223433   5.772   4.139   6.233 -0.0718  0.0318  0.3111
  673TIP3    H123434   5.791   4.233   6.234 -0.9931  0.2634 -0.8154
  673TIP3    H223435   5.852   4.098   6.265  1.2787  1.0803 -1.4989
  674TIP3   OH223436   2.906   0.945  16.038 -0.2584 -0.3857 -0.0091
  674TIP3    H123437   2.901   1.039  16.057 -2.4903 -0.5233  0.4629
  674TIP3    H223438   2.918   0.941  15.943  1.6893  0.3286  0.1592
  675TIP3   OH223439   2.568   0.620   3.279 -0.0123 -0.8567  0.7662
  675TIP3    H123440   2.638   0.672   3.239 -1.9976 -0.4509 -2.5919
  675TIP3    H223441   2.521   0.682   3.335 -1.1369  0.6322 -1.6323
  676TIP3   OH223442   4.356   5.588  16.010 -1.0281  0.3318  0.3442
  676TIP3    H123443   4.314   5.640  16.078 -0.3585  0.7300  0.4555
  676TIP3    H223444   4.340   5.636  15.928  0.3117  1.1889  0.5503
  677TIP3   OH223445   6.177   2.325  13.524 -0.3833 -0.6389  0.3710
  677TIP3    H123446   6.163   2.367  13.609 -0.8615 -0.8788  0.4115
  677TIP3    H223447   6.232   2.388  13.476 -2.5804  0.9404 -0.2358
  678TIP3   OH223448   0.912   0.022   4.048  0.2455  0.1635  0.5217
  678TIP3    H123449   0.939   0.068   3.969 -0.2878  0.1115  0.3095
  678TIP3    H223450   0.918   0.089   4.117  2.6458 -0.2743  0.8462
  679TIP3   OH223451   5.281   4.080  16.101 -0.0262  0.1284 -0.1952
  679TIP3    H123452   5.224   4.157  16.105 -0.1975  0.0471 -0.8575
  679TIP3    H223453   5.369   4.115  16.112  0.1634  0.8058 -3.1352
  680TIP3   OH223454   5.234   5.183   4.922 -0.1688 -0.1316  0.7296
  680TIP3    H123455   5.203   5.228   4.843 -1.3581 -0.6192  0.9026
  680TIP3    H223456   5.306   5.238   4.954  1.3525 -0.6962 -1.4968
  681TIP3   OH223457   3.586   5.907  11.241 -0.0157 -0.6756  0.3631
  681TIP3    H123458   3.513   5.907  11.179  0.5687  1.2435 -0.4070
  681TIP3    H223459   3.659   5.870  11.192  0.5212  1.1014 -0.2792
  682TIP3   OH223460   6.723   0.607  16.917 -0.6033 -0.5292 -0.4082
  682TIP3    H123461   6.704   0.516  16.894 -0.5189 -0.9961  1.2073
  682TIP3    H223462   6.746   0.649  16.834 -1.8378 -1.6670 -1.3675
  683TIP3   OH223463   1.964   2.062   2.763 -0.1738  0.5516  0.1713
  683TIP3    H123464   1.933   2.123   2.830 -0.0362  0.9984 -0.1723
  683TIP3    H223465   2.006   1.992   2.813  0.1038  0.9815  0.5453
  684TIP3   OH223466   6.643   1.101  15.464  0.1237  0.1315  0.6865
  684TIP3    H123467   6.684   1.016  15.451 -0.4194 -0.0132 -0.1316
  684TIP3    H223468   6.555   1.081  15.494 -0.2871  0.3717 -0.3144
  685TIP3   OH223469   2.956   4.788   0.509  0.3373 -0.3446 -0.2104
  685TIP3    H123470   2.967   4.697   0.479  0.1302 -0.2557 -0.5692
  685TIP3    H223471   3.039   4.830   0.487  0.7111 -0.6247  0.6332
  686TIP3   OH223472   5.649   5.825  10.376  0.3133 -0.2232 -0.3791
  686TIP3    H123473   5.564   5.858  10.405  0.1023 -0.0640 -1.1526
  686TIP3    H223474   5.693   5.796  10.456  0.3109  1.4950  0.2831
  687TIP3   OH223475   0.850   1.238   4.384  0.1661  0.1375 -0.1048
  687TIP3    H123476   0.829   1.173   4.316  1.2485 -0.6175  0.2567
  687TIP3    H223477   0.823   1.196   4.466  2.0672 -0.4528  0.2694
  688TIP3   OH223478   0.385   3.868   0.442  0.1151  0.1189 -0.2355
  688TIP3    H123479   0.468   3.916   0.445  1.2579 -1.8301  0.7105
  688TIP3    H223480   0.389   3.819   0.360  0.2333 -0.5230  0.1486
  689TIP3   OH223481   4.757   5.920   3.639 -0.2400 -0.1308 -0.8859
  689TIP3    H123482   4.663   5.913   3.655 -0.0756  0.7368  0.6147
  689TIP3    H223483   4.788   5.830   3.639 -0.7916 -0.3342  0.5058
  690TIP3   OH223484   6.497   0.854   0.446 -0.2844  0.5906 -0.6437
  690TIP3    H123485   6.587   0.870   0.474 -0.1619 -0.4523 -0.4124
  690TIP3    H223486   6.452   0.826   0.526 -0.6939  0.6337 -0.8570
  691TIP3   OH223487   1.624   0.307  16.184  0.4701  0.5593 -0.0688
  691TIP3    H123488   1.532   0.299  16.207  0.7153 -1.0931  0.4863
  691TIP3    H223489   1.633   0.253  16.105  1.3910 -1.3625  1.2680
  692TIP3   OH223490   5.327   6.194  15.685 -0.5597 -0.3269  0.1976
  692TIP3    H123491   5.327   6.219  15.592 -0.4301 -0.6861  0.1001
  692TIP3    H223492   5.377   6.264  15.728 -0.3871 -0.2999 -0.0422
  693TIP3   OH223493   6.053   0.029  10.916  0.3849  0.4919 -0.2410
  693TIP3    H123494   6.063   0.094  10.986 -1.1183  1.5279 -0.9190
  693TIP3    H223495   5.967   0.048  10.879  0.9507 -0.3175 -2.0694
  694TIP3   OH223496   3.975   5.792   2.196 -0.2769  0.1022 -0.0066
  694TIP3    H123497   3.919   5.827   2.265  1.1726 -0.5747  1.5805
  694TIP3    H223498   3.980   5.863   2.131 -2.0017  0.6001  0.3539
  695TIP3   OH223499   1.124   2.818   5.064  0.0826  0.5646  0.3145
  695TIP3    H123500   1.211   2.798   5.098 -0.2959  0.1023  1.0364
  695TIP3    H223501   1.082   2.867   5.135 -0.5718 -0.0343  0.3449
  696TIP3   OH223502   0.852   3.075  12.685 -0.1009 -0.1765  0.2148
  696TIP3    H123503   0.780   3.136  12.703 -2.1885 -2.9172  2.0330
  696TIP3    H223504   0.824   3.027  12.607  0.0740 -0.7930  0.5247
  697TIP3   OH223505   2.659   5.116   0.592 -0.5234  0.2776  0.0094
  697TIP3    H123506   2.645   5.124   0.497  1.0860  2.8288 -0.1029
  697TIP3    H223507   2.614   5.191   0.629 -0.0413  0.0221  1.1539
  698TIP3   OH223508   2.041   0.506   0.368 -0.0526  0.1773  0.7606
  698TIP3    H123509   2.003   0.512   0.281  0.2218  3.4420  0.7603
  698TIP3    H223510   1.966   0.502   0.427 -0.2368 -1.2853  0.4785
  699TIP3   OH223511   5.833   2.447   2.468 -0.3081 -0.0910 -0.1765
  699TIP3    H123512   5.907   2.472   2.522  0.5997  1.9361 -2.1886
  699TIP3    H223513   5.789   2.378   2.518  0.7868  1.1772  2.7798
  700TIP3   OH223514   0.656   0.361  17.185  0.7727 -0.3331 -0.1727
  700TIP3    H123515   0.719   0.339  17.117  1.0391  2.8263 -1.0722
  700TIP3    H223516   0.693   0.438  17.229 -1.7369  0.7450  0.2328
  701TIP3   OH223517   5.646   5.652  13.838  0.0004 -0.8670  0.2000
  701TIP3    H123518   5.643   5.744  13.863 -0.0382 -0.4023 -1.4296
  701TIP3    H223519   5.558   5.631  13.808  0.5620 -0.7164 -1.7284
  702TIP3   OH223520   5.379   3.042   3.976  0.3013  0.4078 -0.0419
  702TIP3    H123521   5.463   3.072   3.941  0.7978 -1.0285 -0.1522
  702TIP3    H223522   5.372   2.951   3.948 -0.1119 -0.2666  2.0889
  703TIP3   OH223523   3.658   2.117  16.512  0.2475 -0.0246  0.2020
  703TIP3    H123524   3.630   2.068  16.434 -0.9352 -0.5841  0.9560
  703TIP3    H223525   3.665   2.208  16.481 -1.0274 -0.0991 -0.3746
  704TIP3   OH223526   4.994   5.694   3.021 -0.8190 -0.5212  0.6744
  704TIP3    H123527   4.973   5.722   3.110  0.2358  0.7175  0.5587
  704TIP3    H223528   5.044   5.766   2.984  0.4968 -1.8452 -0.2575
  705TIP3   OH223529   3.471   4.657  14.878  0.5462 -0.0460  0.0664
  705TIP3    H123530   3.530   4.717  14.924  1.8607  0.0559 -1.6515
  705TIP3    H223531   3.496   4.570  14.909 -0.3723  0.1395  1.4530
  706TIP3   OH223532   0.999   5.223   1.945  0.2517 -0.3464  0.4237
  706TIP3    H123533   0.944   5.301   1.957 -0.7395 -0.6664 -1.4861
  706TIP3    H223534   1.082   5.257   1.912  0.1424 -0.0340  0.4666
  707TIP3   OH223535   5.503   3.610  12.279 -0.0228  0.0228 -0.4407
  707TIP3    H123536   5.541   3.647  12.200 -2.6658  1.2448 -1.2543
  707TIP3    H223537   5.488   3.686  12.336  0.6607 -0.6852  0.7156
  708TIP3   OH223538   0.108   1.457  13.392 -0.8042  0.2035  0.0614
  708TIP3    H123539   0.160   1.514  13.448 -1.2382  0.7203 -0.0479
  708TIP3    H223540   0.130   1.484  13.303 -1.3000  0.4757  0.0144
  709TIP3   OH223541   2.992   1.740   0.762 -1.0045 -0.0945  0.0205
  709TIP3    H123542   3.066   1.682   0.748  0.1526  0.9628  1.4156
  709TIP3    H223543   3.027   1.828   0.746 -2.6687  0.2898 -1.8915
  710TIP3   OH223544   5.630   1.628  17.153 -0.2532  0.1841  0.4294
  710TIP3    H123545   5.693   1.630  17.082  0.0946 -0.3409  0.7191
  710TIP3    H223546   5.548   1.602  17.111  0.0682 -0.6592  0.2985
  711TIP3   OH223547   2.565   3.456  15.075  0.3060 -0.3299 -0.6920
  711TIP3    H123548   2.511   3.383  15.045 -0.3336 -0.5397  0.8863
  711TIP3    H223549   2.619   3.418  15.145  0.2933  0.5901 -0.1760
  712TIP3   OH223550   6.120   3.529  13.411 -0.3145 -0.4285  0.4740
  712TIP3    H123551   6.116   3.622  13.390 -0.8017 -0.6919 -0.6593
  712TIP3    H223552   6.210   3.503  13.393 -0.2299 -0.2163  0.5967
  713TIP3   OH223553   3.971   2.661   4.727 -0.0589 -0.4244 -0.1337
  713TIP3    H123554   3.903   2.725   4.706  0.5317 -0.4140 -2.1770
  713TIP3    H223555   4.038   2.674   4.660  1.1481 -1.6477  0.7816
  714TIP3   OH223556   3.863   0.254  15.302  0.0847  0.1727  0.1357
  714TIP3    H123557   3.895   0.191  15.238 -1.3296 -0.1563 -0.2860
  714TIP3    H223558   3.899   0.338  15.273  0.2220 -0.1178 -0.5599
  715TIP3   OH223559   1.203   5.437   2.476  0.1533  0.4683  0.4574
  715TIP3    H123560   1.197   5.511   2.537 -1.5285 -0.3152  1.3043
  715TIP3    H223561   1.124   5.445   2.422  0.7537  0.1541 -0.4954
  716TIP3   OH223562   0.867   4.681  12.486 -0.2387  0.2301 -0.5852
  716TIP3    H123563   0.927   4.660  12.557 -0.0146  1.0159 -0.5383
  716TIP3    H223564   0.870   4.776  12.479 -2.1272  0.3642 -0.0242
  717TIP3   OH223565   5.230   0.606  12.680 -0.1974  0.0886 -0.1898
  717TIP3    H123566   5.227   0.658  12.760 -0.8380  0.1753 -0.2656
  717TIP3    H223567   5.138   0.589  12.659 -0.1340  1.4421 -1.7898
  718TIP3   OH223568   6.690   1.681   3.480  0.3136 -0.6140  0.0225
  718TIP3    H123569   6.639   1.601   3.492  1.5738 -1.3821  0.4712
  718TIP3    H223570   6.706   1.687   3.386  2.3245 -2.3086  0.1765
  719TIP3   OH223571   6.372   0.830   1.046 -0.9791  0.1807  1.0782
  719TIP3    H123572   6.307   0.770   1.010  1.7143 -1.7241 -1.1013
  719TIP3    H223573   6.418   0.778   1.113  1.3274 -0.3571 -0.7740
  720TIP3   OH223574   4.543   3.221  16.293  0.0701  0.1837 -0.3499
  720TIP3    H123575   4.475   3.222  16.226 -0.0004 -0.0170 -0.2835
  720TIP3    H223576   4.608   3.158  16.261  0.1833  0.3141 -0.3740
  721TIP3   OH223577   6.033   3.349   1.130 -0.1787  0.0192  0.4507
  721TIP3    H123578   6.085   3.427   1.150  2.8731 -1.9715  0.9702
  721TIP3    H223579   6.046   3.336   1.036 -1.8751  0.8244  0.0518
  722TIP3   OH223580   6.351   3.275  16.742 -0.2110 -0.0735 -0.7300
  722TIP3    H123581   6.410   3.308  16.810  1.0223  0.5352 -2.0442
  722TIP3    H223582   6.391   3.303  16.660 -2.3297  0.3041 -1.6934
  723TIP3   OH223583   4.415   2.406   4.619  0.0039 -0.6056  0.4042
  723TIP3    H123584   4.429   2.470   4.689 -0.1583  0.4468 -0.4929
  723TIP3    H223585   4.500   2.399   4.576  0.1063 -1.2581  0.7139
  724TIP3   OH223586   3.919   2.566   3.308  0.1872  0.8029 -0.7234
  724TIP3    H123587   3.979   2.641   3.303 -0.5368  1.5035  0.4414
  724TIP3    H223588   3.930   2.533   3.397  0.2866 -0.3279 -1.1380
  725TIP3   OH223589   5.045   3.979  14.068 -0.2958  0.7570 -0.4647
  725TIP3    H123590   4.989   4.043  14.025 -0.3350 -0.0876 -1.7380
  725TIP3    H223591   5.017   3.980  14.160 -0.7504  2.0539 -0.6009
  726TIP3   OH223592   2.078   5.192  10.853  0.7528  0.2756 -0.0050
  726TIP3    H123593   2.067   5.278  10.894 -0.6964  0.2333 -0.2588
  726TIP3    H223594   2.145   5.148  10.906 -0.5681  0.4700  1.8957
  727TIP3   OH223595   0.337   1.127  12.050 -0.1083 -0.6812 -0.0931
  727TIP3    H123596   0.285   1.159  11.977  1.7998 -0.1083 -1.2857
  727TIP3    H223597   0.318   1.188  12.122 -0.2851  0.1379 -0.8239
  728TIP3   OH223598   1.438   0.937  14.766 -0.8113 -0.5296  0.5574
  728TIP3    H123599   1.370   1.001  14.787 -0.4316 -0.6068  2.1439
  728TIP3    H223600   1.416   0.907  14.678 -0.5433  2.3652 -0.6215
  729TIP3   OH223601   2.623   4.329   5.859 -0.0514 -0.4462  0.4139
  729TIP3    H123602   2.697   4.385   5.834 -0.8424  1.8534  2.7918
  729TIP3    H223603   2.647   4.294   5.945 -2.5744  2.3748  2.4642
  730TIP3   OH223604   0.283   5.059   5.241 -0.3266 -0.2364 -0.3606
  730TIP3    H123605   0.328   5.126   5.291 -0.1569 -0.9500  0.4728
  730TIP3    H223606   0.268   4.988   5.304 -0.4542 -0.9998 -1.2272
  731TIP3   OH223607   1.601   5.747  12.083  0.0001  0.0845  0.1383
  731TIP3    H123608   1.535   5.720  12.147 -1.1574  0.5368 -0.8261
  731TIP3    H223609   1.685   5.730  12.126 -0.7291 -1.0827  1.1598
  732TIP3   OH223610   3.333   4.537  15.163  0.5429 -0.0989 -0.1955
  732TIP3    H123611   3.372   4.543  15.250  2.8152 -2.2490 -0.9435
  732TIP3    H223612   3.406   4.516  15.106 -1.2716 -1.2069 -2.2504
  733TIP3   OH223613   2.699   1.827   3.194 -0.6158 -0.0796 -0.4646
  733TIP3    H123614   2.695   1.920   3.172 -0.8620 -0.2261 -1.0585
  733TIP3    H223615   2.790   1.802   3.177 -0.4237  0.1719  0.1921
  734TIP3   OH223616   3.831   6.435   6.023  0.1285 -0.4034 -0.3836
  734TIP3    H123617   3.828   6.350   6.066  0.5338 -0.0305  0.4116
  734TIP3    H223618   3.739   6.456   6.006  0.0749 -1.3545 -1.3253
  735TIP3   OH223619   2.212   1.548   2.183 -0.8397  0.0720  0.4185
  735TIP3    H123620   2.267   1.561   2.105 -2.3317 -0.4054 -0.7643
  735TIP3    H223621   2.271   1.560   2.257  0.0800  3.3939 -0.6992
  736TIP3   OH223622   5.349   3.883   4.085 -0.5972 -0.5337  0.1347
  736TIP3    H123623   5.312   3.873   4.172 -0.4357  0.1728  0.2874
  736TIP3    H223624   5.339   3.976   4.065 -2.4375 -0.9916 -1.4004
  737TIP3   OH223625   5.663   3.176  15.190  0.2967  0.0699  0.3851
  737TIP3    H123626   5.665   3.170  15.286  1.5477 -0.3029  0.3612
  737TIP3    H223627   5.653   3.085  15.161 -0.1979  0.1946  0.1584
  738TIP3   OH223628   2.030   4.204   0.939 -0.2553  0.7683 -0.1674
  738TIP3    H123629   2.018   4.263   1.014  0.8973  0.3959  0.3246
  738TIP3    H223630   1.950   4.215   0.888 -0.0325  2.8773 -0.1717
  739TIP3   OH223631   5.320   2.518  16.218 -0.5278 -0.1030 -0.0352
  739TIP3    H123632   5.281   2.509  16.131  0.4642  1.1092 -0.6387
  739TIP3    H223633   5.339   2.429  16.245 -0.9262 -0.5076 -1.0373
  740TIP3   OH223634   0.987   2.662   3.733  0.0425 -0.2311  0.3907
  740TIP3    H123635   1.011   2.632   3.820  0.6805 -1.3664 -0.1534
  740TIP3    H223636   0.936   2.589   3.696 -1.7600  0.9429  0.4468
  741TIP3   OH223637   1.269   6.171  13.321  0.2846  0.1462  0.3869
  741TIP3    H123638   1.318   6.136  13.396  0.5434  1.0753  0.6726
  741TIP3    H223639   1.190   6.118  13.317  0.9191 -0.8251  0.4516
  742TIP3   OH223640   1.769   2.575   4.097 -0.2938  0.3756  0.0042
  742TIP3    H123641   1.716   2.500   4.121  2.0606 -1.4113  0.0017
  742TIP3    H223642   1.713   2.628   4.041 -3.0716  0.2806  2.4707
  743TIP3   OH223643   1.149   5.973   6.067  0.4251 -0.0396 -0.5137
  743TIP3    H123644   1.089   6.039   6.100  1.1572  0.8154 -0.8566
  743TIP3    H223645   1.098   5.892   6.066 -0.2450  0.3449  0.6746
  744TIP3   OH223646   1.073   3.873  17.274  0.8027  0.2711 -0.1148
  744TIP3    H123647   1.070   3.873  17.369 -0.1990 -1.3791 -0.1096
  744TIP3    H223648   1.067   3.965  17.250  0.5052  0.6726  1.3991
  745TIP3   OH223649   1.011   3.953  13.017 -0.4785 -0.0624  0.1048
  745TIP3    H123650   0.984   3.942  13.108  0.0338 -1.3673  0.1162
  745TIP3    H223651   1.055   4.038  13.015 -0.2301 -0.1567  1.1297
  746TIP3   OH223652   1.008   3.666  13.156 -0.1290  0.3567  0.0920
  746TIP3    H123653   1.103   3.671  13.167 -0.1590  0.1868  0.4584
  746TIP3    H223654   0.984   3.749  13.115  0.2524  0.1506 -0.5645
  747TIP3   OH223655   5.340   1.976  14.637  0.3527 -0.2710 -0.3677
  747TIP3    H123656   5.312   2.031  14.709 -1.0151 -1.0634 -0.2616
  747TIP3    H223657   5.429   1.949  14.660  0.1337 -0.0613  0.7494
  748TIP3   OH223658   5.231   4.385   2.348  0.2757  0.2999 -0.4465
  748TIP3    H123659   5.294   4.364   2.417 -0.7560 -0.9422  0.1585
  748TIP3    H223660   5.285   4.412   2.274  1.5686 -1.1272 -0.0791
  749TIP3   OH223661   0.881   0.210   3.791  0.0948 -0.2766  0.3412
  749TIP3    H123662   0.952   0.164   3.745 -0.4489 -0.0278 -0.7638
  749TIP3    H223663   0.860   0.284   3.735 -0.3719  0.2219  1.1566
  750TIP3   OH223664   6.037   3.277   5.306 -0.0593 -0.3809 -0.3817
  750TIP3    H123665   6.082   3.347   5.355  0.0713 -0.9645  0.3482
  750TIP3    H223666   6.013   3.318   5.223  0.6993  0.3140 -0.2726
  751TIP3   OH223667   1.549   1.397  16.059  0.4449  0.2720  0.1054
  751TIP3    H123668   1.519   1.392  16.150  2.3454  0.3864  0.7780
  751TIP3    H223669   1.643   1.382  16.064  0.2794 -2.0784 -2.1220
  752TIP3   OH223670   5.614   1.014  11.787 -0.6908 -0.1259 -0.2308
  752TIP3    H123671   5.535   1.040  11.836  1.2798 -0.9010  3.7322
  752TIP3    H223672   5.674   1.088  11.798  0.8244 -1.4868  1.1402
  753TIP3   OH223673   0.953   0.351  14.891  1.0977  0.8969  0.5809
  753TIP3    H123674   0.901   0.330  14.814  1.9732  1.4457 -0.1754
  753TIP3    H223675   0.899   0.324  14.965 -0.0780  1.0820 -0.1964
  754TIP3   OH223676   5.337   1.524  13.318  0.1391  0.5243  0.1462
  754TIP3    H123677   5.267   1.529  13.254  0.8937 -1.3469 -0.9098
  754TIP3    H223678   5.414   1.497  13.268  0.5472 -2.0306  1.9441
  755TIP3   OH223679   5.959   5.949  14.941  0.4320 -0.3071 -0.3324
  755TIP3    H123680   5.947   5.935  15.035  0.8043  1.3332 -0.0062
  755TIP3    H223681   5.870   5.959  14.907  0.2685 -1.4147 -0.2612
  756TIP3   OH223682   5.314   4.052   4.697 -0.2848 -0.6340  0.3678
  756TIP3    H123683   5.321   4.017   4.608  1.4469  1.8617 -0.6209
  756TIP3    H223684   5.226   4.087   4.702 -0.7312 -1.6606  0.0158
  757TIP3   OH223685   4.468   5.803  12.400 -0.3539  0.5106  0.3631
  757TIP3    H123686   4.496   5.807  12.492 -1.1816  0.5852  0.6179
  757TIP3    H223687   4.378   5.770  12.404  0.9547 -3.8103 -0.6770
  758TIP3   OH223688   2.322   1.001  16.764 -1.2670 -0.5526 -0.3441
  758TIP3    H123689   2.281   1.087  16.755 -1.0853 -0.4780 -0.4822
  758TIP3    H223690   2.299   0.972  16.852 -1.8903 -0.6629 -0.5446
  759TIP3   OH223691   4.827   3.103   3.877 -0.0954  0.3706  0.3469
  759TIP3    H123692   4.915   3.107   3.838  1.0509  1.4046  2.8200
  759TIP3    H223693   4.768   3.119   3.804  1.7435 -0.3884 -1.4202
  760TIP3   OH223694   3.323   3.233   5.828 -0.5307 -0.8264 -0.2122
  760TIP3    H123695   3.237   3.226   5.786  0.8384 -2.5390 -2.9735
  760TIP3    H223696   3.385   3.207   5.761  2.4204  2.3669  0.9821
  761TIP3   OH223697   3.635   5.244  10.545 -0.1782 -0.0389  0.3141
  761TIP3    H123698   3.586   5.220  10.624 -0.0705 -0.1691  0.3405
  761TIP3    H223699   3.575   5.223  10.473  0.4844 -1.8204  0.2559
  762TIP3   OH223700   4.272   6.432  11.924  0.3758  0.2673  0.5416
  762TIP3    H123701   4.335   6.478  11.868  0.6414 -1.9863 -1.1423
  762TIP3    H223702   4.306   6.343  11.929 -2.6637 -1.0650 -0.4647
  763TIP3   OH223703   3.250   1.046   5.767  0.0554 -0.3656 -0.1119
  763TIP3    H123704   3.237   1.113   5.835  0.5971 -1.7413  1.4006
  763TIP3    H223705   3.187   1.069   5.699  0.2836  1.7340  0.3058
  764TIP3   OH223706   6.245   4.027  14.779 -0.0325 -0.3820 -0.2175
  764TIP3    H123707   6.268   4.094  14.716  0.2492 -0.7509 -0.5097
  764TIP3    H223708   6.318   4.024  14.840  0.0659 -0.5873 -0.3431
  765TIP3   OH223709   2.839   0.853   2.427 -0.1777 -0.5271 -0.1389
  765TIP3    H123710   2.878   0.895   2.350 -0.3808 -1.3265 -0.6914
  765TIP3    H223711   2.749   0.884   2.428 -0.3233 -0.9367 -0.5358
  766TIP3   OH223712   6.161   0.217  14.074 -0.3684  0.3834 -0.0725
  766TIP3    H123713   6.166   0.203  14.168 -0.0590  1.4807  0.0986
  766TIP3    H223714   6.068   0.228  14.056 -0.6376 -1.7643 -0.2380
  767TIP3   OH223715   4.441   1.076  10.773  0.2171 -0.2008 -0.2182
  767TIP3    H123716   4.404   1.143  10.716 -0.4894 -1.9893 -1.9972
  767TIP3    H223717   4.384   1.073  10.849  0.9647  1.9866  0.4962
  768TIP3   OH223718   0.008   0.821  11.505  0.1609  0.2088 -0.0369
  768TIP3    H123719   0.018   0.815  11.600 -1.4553  2.0420  0.3020
  768TIP3    H223720   0.015   0.915  11.486  3.4795 -0.2807 -2.1662
  769TIP3   OH223721   1.219   5.105   5.946  0.2540  0.0489  0.2717
  769TIP3    H123722   1.194   5.152   6.025  1.9924 -0.6783  1.3159
  769TIP3    H223723   1.300   5.147   5.918  0.2938 -0.4756 -0.4343
  770TIP3   OH223724   2.793   2.903  14.756  0.5832  0.9802  0.1539
  770TIP3    H123725   2.770   2.968  14.822 -0.2244  0.3686  0.4925
  770TIP3    H223726   2.887   2.891  14.765  0.4216  0.6023  1.4718
  771TIP3   OH223727   0.839   2.473   4.118 -0.3233  0.2863 -0.6437
  771TIP3    H123728   0.781   2.483   4.193 -0.3254  0.6174 -0.6850
  771TIP3    H223729   0.788   2.425   4.053 -0.1517 -0.4483 -0.2506
  772TIP3   OH223730   5.283   2.151   3.976  0.4599  0.5894  1.0138
  772TIP3    H123731   5.308   2.118   4.063 -1.5234 -2.4225  0.6025
  772TIP3    H223732   5.316   2.084   3.915 -1.3106  0.7558 -0.1873
  773TIP3   OH223733   0.601   5.866  15.989  0.4481 -0.0080 -0.0658
  773TIP3    H123734   0.644   5.787  15.955 -0.3723 -0.7597  0.6172
  773TIP3    H223735   0.510   5.858  15.963  0.0560  0.0097  1.2227
  774TIP3   OH223736   1.692   3.993  11.768 -0.2984  0.4355  0.2760
  774TIP3    H123737   1.659   4.071  11.723 -1.1479 -0.6932 -1.1630
  774TIP3    H223738   1.722   4.025  11.853  1.7272  2.7327 -1.1930
  775TIP3   OH223739   0.127   6.540   2.227 -0.5274 -0.1640 -0.1949
  775TIP3    H123740   0.162   6.541   2.138  1.9583 -0.8625  0.6591
  775TIP3    H223741   0.126   6.447   2.251 -0.2431  0.0706  0.7892
  776TIP3   OH223742   0.789   2.858  10.793 -0.0039 -0.2389 -0.1552
  776TIP3    H123743   0.730   2.785  10.773  0.3230 -1.2105  2.1065
  776TIP3    H223744   0.847   2.824  10.861  1.1863  1.6618 -0.1432
  777TIP3   OH223745   1.629   0.246   5.484 -0.3007  0.1544 -0.0312
  777TIP3    H123746   1.582   0.170   5.519  0.5139 -0.6986 -0.7453
  777TIP3    H223747   1.638   0.306   5.558  0.4385 -1.1330  0.9444
  778TIP3   OH223748   4.583   0.445  12.763  0.2975  0.2907 -0.1460
  778TIP3    H123749   4.622   0.475  12.845 -0.0275  0.5548 -0.0839
  778TIP3    H223750   4.598   0.517  12.702  0.5307  0.0983 -0.3183
  779TIP3   OH223751   1.403   4.710  17.196  0.0325  0.2454  0.2790
  779TIP3    H123752   1.426   4.621  17.223  1.0486  0.4868  0.2160
  779TIP3    H223753   1.440   4.719  17.108 -0.7877  0.4523 -0.0591
  780TIP3   OH223754   4.825   5.384   5.284  0.0894  0.0660  0.4544
  780TIP3    H123755   4.791   5.363   5.197  1.3511  2.1790 -0.6139
  780TIP3    H223756   4.911   5.342   5.287  0.2516  0.4009  0.5025
  781TIP3   OH223757   6.491   6.152   3.202 -0.1091 -0.4125  0.0432
  781TIP3    H123758   6.565   6.198   3.162 -0.4046  2.3634  2.3982
  781TIP3    H223759   6.499   6.171   3.296 -4.2255  0.7044  0.3301
  782TIP3   OH223760   1.408   3.932  12.905  0.3398 -0.6283  0.1897
  782TIP3    H123761   1.410   4.025  12.885  1.5881 -1.0074 -1.6748
  782TIP3    H223762   1.428   3.927  12.999  1.2447  0.9191  0.1052
  783TIP3   OH223763   1.997   4.468   0.041 -0.6449 -0.0513  0.3678
  783TIP3    H123764   1.974   4.543  -0.014 -0.0785  0.9518  1.4584
  783TIP3    H223765   2.064   4.422  -0.009 -0.1918  0.8010  0.1739
  784TIP3   OH223766   0.295   3.723  14.821 -0.2498  0.3387  0.3914
  784TIP3    H123767   0.305   3.755  14.732  0.2987  1.1860  0.7491
  784TIP3    H223768   0.378   3.744  14.864 -0.6189  0.2100  1.1873
  785TIP3   OH223769   3.395   0.472   1.594  0.5387  0.0469  0.4040
  785TIP3    H123770   3.469   0.420   1.563  0.6898 -0.5384  1.6761
  785TIP3    H223771   3.342   0.410   1.644 -0.1700  0.7415  0.5327
  786TIP3   OH223772   4.081   6.143  15.751 -0.5327 -0.3961  0.0064
  786TIP3    H123773   4.051   6.099  15.672 -1.9705 -0.3791  0.5185
  786TIP3    H223774   4.063   6.236  15.735  0.6596 -0.1892 -0.2671
  787TIP3   OH223775   4.765   5.358  16.533 -0.4984  0.4027 -0.4258
  787TIP3    H123776   4.702   5.323  16.470 -0.7721  1.9653 -1.0770
  787TIP3    H223777   4.781   5.448  16.503  0.0008  0.9159  1.2638
  788TIP3   OH223778   2.157   0.418   4.793 -0.8226 -0.2899 -0.0324
  788TIP3    H123779   2.109   0.430   4.711 -2.3529 -0.2720  0.8303
  788TIP3    H223780   2.178   0.325   4.796 -1.2430 -0.3901 -0.1905
  789TIP3   OH223781   2.087   4.147   3.661  0.2270  0.0797  0.3902
  789TIP3    H123782   2.065   4.065   3.706 -0.1676 -1.7062 -2.7784
  789TIP3    H223783   2.183   4.153   3.668  0.0990  0.7327  2.6573
  790TIP3   OH223784   3.054   0.020   4.757  0.1410  0.5373 -0.5780
  790TIP3    H123785   3.063   0.099   4.703 -0.3035 -0.5924 -2.3640
  790TIP3    H223786   2.994  -0.036   4.709  1.7900 -1.6425 -0.2652
  791TIP3   OH223787   2.396   5.331  15.789  0.1460  0.1531 -0.2657
  791TIP3    H123788   2.318   5.375  15.756  1.0206  0.0084 -2.8164
  791TIP3    H223789   2.389   5.242  15.754  1.5728  0.2422 -0.8641
  792TIP3   OH223790   2.405   3.598   4.574  0.4020 -0.3273 -0.5118
  792TIP3    H123791   2.450   3.653   4.511 -0.6551 -1.6378 -2.5045
  792TIP3    H223792   2.464   3.595   4.650  0.9033  2.7290 -0.6522
  793TIP3   OH223793   4.016   2.762  14.955 -0.3119  0.2739 -0.3795
  793TIP3    H123794   4.024   2.672  14.922  0.2703  0.1479  0.0947
  793TIP3    H223795   3.926   2.788  14.933 -0.6870 -0.6432  0.0286
  794TIP3   OH223796   4.315   2.127  15.433  0.5096 -0.3142  0.1369
  794TIP3    H123797   4.408   2.106  15.435  0.7967  0.9377  1.4279
  794TIP3    H223798   4.291   2.141  15.525 -0.6304  0.7367 -0.2903
  795TIP3   OH223799   3.420   0.840   1.290  0.6630 -0.3931 -0.0682
  795TIP3    H123800   3.427   0.821   1.384  1.7459 -2.7756 -0.5569
  795TIP3    H223801   3.327   0.833   1.271  0.6290 -1.7922  0.5106
  796TIP3   OH223802   0.579   3.193   2.824 -0.1572  0.2541 -0.1081
  796TIP3    H123803   0.550   3.134   2.893 -1.7988  1.4866  0.2984
  796TIP3    H223804   0.667   3.220   2.851  0.3750 -1.4806  0.0043
  797TIP3   OH223805   2.649   5.638  10.841 -0.2277  0.1303  0.3589
  797TIP3    H123806   2.629   5.554  10.799 -1.1029  0.6859 -0.3758
  797TIP3    H223807   2.607   5.632  10.927  1.3839 -0.9272  1.1220
  798TIP3   OH223808   2.413   4.059   4.103 -0.0218 -0.6814  0.0240
  798TIP3    H123809   2.398   4.092   4.014 -0.9879  0.4909  0.5905
  798TIP3    H223810   2.500   4.019   4.099  0.3628  0.2028 -1.2206
  799TIP3   OH223811   0.955   1.108   3.468  0.0912 -0.4309 -0.0866
  799TIP3    H123812   0.884   1.117   3.404 -0.2981 -2.2873  0.0308
  799TIP3    H223813   1.031   1.083   3.417 -0.0402 -1.1968  0.0830
  800TIP3   OH223814   0.484   0.661  12.024 -0.7673 -0.2978  0.0309
  800TIP3    H123815   0.397   0.641  12.061 -0.1280 -1.3909  1.0296
  800TIP3    H223816   0.493   0.756  12.035 -1.9215 -0.1311 -0.2937
  801TIP3   OH223817   4.149   1.662  11.953 -0.5913 -0.4571 -0.2905
  801TIP3    H123818   4.180   1.714  11.880 -0.8568  1.8943  1.1739
  801TIP3    H223819   4.065   1.701  11.977  0.7058  0.7113  2.9569
  802TIP3   OH223820   5.873   1.801   2.209 -0.3231 -0.0810  0.0235
  802TIP3    H123821   5.967   1.809   2.222 -0.1275 -0.9773 -0.7059
  802TIP3    H223822   5.851   1.869   2.145 -0.5497  1.4581  1.6479
  803TIP3   OH223823   3.193   1.538   0.675  0.2051 -0.0049 -0.7291
  803TIP3    H123824   3.248   1.611   0.647 -1.2277  0.7931 -1.5516
  803TIP3    H223825   3.255   1.475   0.712  1.6676  0.8705 -1.5734
  804TIP3   OH223826   1.514   0.010  12.859 -0.0236 -0.3159 -0.3414
  804TIP3    H123827   1.536  -0.068  12.810 -2.2535 -1.3690  0.1827
  804TIP3    H223828   1.439   0.047  12.813  1.5696  2.1428 -1.1501
  805TIP3   OH223829   1.350   0.177   4.596  0.5252  0.0667 -0.3643
  805TIP3    H123830   1.392   0.141   4.518  0.6881  0.5229 -0.4871
  805TIP3    H223831   1.393   0.132   4.669 -0.0846 -0.8436 -0.5546
  806TIP3   OH223832   4.104   6.186  13.115 -0.4873 -0.0037 -0.3010
  806TIP3    H123833   4.089   6.222  13.028 -0.2384 -0.1309 -0.3993
  806TIP3    H223834   4.176   6.123  13.103 -1.5814 -1.3018 -0.3391
  807TIP3   OH223835   3.488   5.858  11.528  0.1035  0.0231 -0.2951
  807TIP3    H123836   3.544   5.822  11.459  1.1246 -1.5992  1.2905
  807TIP3    H223837   3.466   5.946  11.497  3.2933  0.6625 -1.1748
  808TIP3   OH223838   3.268   2.751  14.335  0.0353  0.1241  0.0913
  808TIP3    H123839   3.228   2.746  14.422 -0.2085  0.7999  0.0257
  808TIP3    H223840   3.362   2.762  14.353 -0.2385  2.6737  0.3484
  809TIP3   OH223841   2.217   1.546   5.966  0.0558  0.2834 -0.4047
  809TIP3    H123842   2.201   1.468   6.019  1.1316  0.8011  0.7192
  809TIP3    H223843   2.148   1.607   5.991 -0.7193 -0.2279 -1.2024
  810TIP3   OH223844   1.471   2.272   1.324 -0.1135  0.8506  0.3608
  810TIP3    H123845   1.429   2.190   1.353 -0.1887  0.8400  0.2204
  810TIP3    H223846   1.463   2.270   1.229  0.7032  0.5740  0.2875
  811TIP3   OH223847   1.189   3.587   2.633 -0.7081 -0.4602  0.0258
  811TIP3    H123848   1.280   3.601   2.661 -1.3865  0.5627  1.8546
  811TIP3    H223849   1.138   3.597   2.713 -2.4321 -1.2772 -0.9305
  812TIP3   OH223850   0.151   6.484   1.691  0.4903 -0.1605 -0.5447
  812TIP3    H123851   0.078   6.423   1.684 -0.5086  1.0547 -1.1356
  812TIP3    H223852   0.156   6.505   1.784 -1.8209  1.9027 -0.7848
  813TIP3   OH223853   5.334   3.669   0.904  0.6353  0.0311 -0.1430
  813TIP3    H123854   5.403   3.610   0.874  0.5782 -1.4824  2.4459
  813TIP3    H223855   5.376   3.725   0.969 -0.4088 -0.5989  1.1188
  814TIP3   OH223856   0.524   0.757  12.708 -0.4468 -0.1818 -0.2020
  814TIP3    H123857   0.476   0.700  12.648  0.1328 -0.5739 -0.3060
  814TIP3    H223858   0.522   0.712  12.792 -1.9228  0.7354  0.2947
  815TIP3   OH223859   1.845   5.496   2.067  0.5974  0.0308  0.2626
  815TIP3    H123860   1.772   5.450   2.025  1.8584 -1.6895 -0.2016
  815TIP3    H223861   1.898   5.528   1.994  0.5721  0.8286  0.5896
  816TIP3   OH223862   3.650   0.948  13.641 -0.2587  0.0888  0.2658
  816TIP3    H123863   3.690   1.032  13.620 -0.9199  0.2890 -0.2693
  816TIP3    H223864   3.664   0.895  13.562 -0.2438 -0.1444  0.4254
  817TIP3   OH223865   4.464   1.436  16.068  0.0676 -0.4348  0.4137
  817TIP3    H123866   4.416   1.518  16.083 -1.9680 -1.4446 -0.2571
  817TIP3    H223867   4.500   1.413  16.154 -0.3802  0.5235  0.8725
  818TIP3   OH223868   2.086   0.281  15.731 -0.0656  0.6570  0.1656
  818TIP3    H123869   2.026   0.355  15.740  0.3432  1.0752 -0.5003
  818TIP3    H223870   2.167   0.319  15.697  0.7609  0.1829  1.4834
  819TIP3   OH223871   0.013   1.684   0.596 -0.0709  0.4419 -0.0219
  819TIP3    H123872  -0.068   1.728   0.570 -0.4377 -0.1868  0.0205
  819TIP3    H223873   0.083   1.735   0.554 -0.5664  0.1925 -1.1990
  820TIP3   OH223874   4.470   1.481  11.217  0.4854 -0.5000  0.2779
  820TIP3    H123875   4.457   1.520  11.131  0.2895 -0.4681  0.3213
  820TIP3    H223876   4.464   1.387  11.202  0.2280 -0.4865  0.2928
  821TIP3   OH223877   4.977   2.176   5.155  0.8563  0.3901  0.0571
  821TIP3    H123878   5.034   2.107   5.120 -0.4155 -0.9574  0.5475
  821TIP3    H223879   5.008   2.189   5.245  0.8603  0.1959  0.0836
  822TIP3   OH223880   0.262   6.297  11.782 -0.5500  0.2941 -0.3562
  822TIP3    H123881   0.315   6.369  11.748  0.4031  0.2358  0.9624
  822TIP3    H223882   0.323   6.222  11.786 -1.4487 -0.5332 -1.4313
  823TIP3   OH223883   4.093   4.324   1.668 -0.0128  0.2125 -0.3994
  823TIP3    H123884   4.090   4.381   1.745  1.4794 -0.3919  0.1475
  823TIP3    H223885   4.020   4.352   1.614 -0.1217  1.7250  0.4933
  824TIP3   OH223886   6.386   3.372  16.221 -0.0060 -0.0132  0.3083
  824TIP3    H123887   6.406   3.280  16.240 -3.3473 -0.5473  1.9687
  824TIP3    H223888   6.377   3.413  16.307 -1.2096  1.1775 -0.3493
  825TIP3   OH223889   5.668   2.278   2.577 -0.6213  0.2408  0.5611
  825TIP3    H123890   5.633   2.347   2.634 -1.1691 -1.0972  1.9203
  825TIP3    H223891   5.609   2.204   2.591 -1.9264  0.3668 -3.1867
  826TIP3   OH223892   5.091   4.784   3.351 -0.3989 -0.4642  0.2728
  826TIP3    H123893   5.158   4.805   3.285 -0.8510 -2.2364 -0.8129
  826TIP3    H223894   5.009   4.816   3.312 -0.2054  2.4198  1.9339
  827TIP3   OH223895   6.486   4.692   2.253 -0.1651  0.1489  0.4807
  827TIP3    H123896   6.526   4.719   2.170 -0.2094  0.5215  0.5775
  827TIP3    H223897   6.527   4.749   2.318  0.8314 -1.0083  0.9041
  828TIP3   OH223898   4.779   0.111   5.069 -0.4869  0.0891  0.0691
  828TIP3    H123899   4.812   0.025   5.093  0.7813  0.3659 -0.6300
  828TIP3    H223900   4.741   0.146   5.150 -1.9991 -1.5361  0.1170
  829TIP3   OH223901   5.868   5.069  14.520 -0.6742 -0.5765 -0.0295
  829TIP3    H123902   5.950   5.095  14.479 -1.6630  3.8749  0.3302
  829TIP3    H223903   5.886   5.073  14.614 -0.8817 -1.4478  0.0619
  830TIP3   OH223904   1.853   6.686  13.981 -0.4455  0.0177 -0.2473
  830TIP3    H123905   1.864   6.772  13.939  0.6067 -0.1123 -0.2674
  830TIP3    H223906   1.808   6.633  13.916  0.4937  0.0448 -0.9354
  831TIP3   OH223907   6.680   1.242   2.602 -0.2924 -0.0787  0.5536
  831TIP3    H123908   6.590   1.273   2.611  0.2019  1.6929 -0.1433
  831TIP3    H223909   6.728   1.290   2.669  0.1278 -1.1171  1.0098
  832TIP3   OH223910   0.631   3.389  16.573  0.1502 -0.0517  0.1005
  832TIP3    H123911   0.631   3.388  16.478  0.0836  1.3922  0.0745
  832TIP3    H223912   0.581   3.311  16.598 -1.9329  0.8459 -1.0822
  833TIP3   OH223913   2.406   1.496   0.460  0.2924  0.1913 -0.2654
  833TIP3    H123914   2.456   1.542   0.527  0.9316  0.1937 -0.7295
  833TIP3    H223915   2.327   1.549   0.448  0.0080  0.0011  0.7168
  834TIP3   OH223916   4.908   4.294   1.920  0.3624  0.1626  0.4052
  834TIP3    H123917   4.991   4.285   1.873  0.2286 -1.9225  0.4485
  834TIP3    H223918   4.932   4.292   2.012  0.2959 -0.3023  0.4168
  835TIP3   OH223919   5.430   3.416  16.036  0.4179  0.1185 -0.7663
  835TIP3    H123920   5.494   3.464  15.983  0.6740  1.3619  0.6088
  835TIP3    H223921   5.435   3.456  16.123 -1.5464 -0.3807 -0.3556
  836TIP3   OH223922   4.657   2.052  12.922 -0.1277 -0.5530 -0.3412
  836TIP3    H123923   4.568   2.088  12.915 -0.4767 -1.1617  0.7601
  836TIP3    H223924   4.644   1.963  12.955  0.9675  0.0019  1.7292
  837TIP3   OH223925   1.546   0.812  10.680  0.2175 -0.1380  0.3309
  837TIP3    H123926   1.513   0.884  10.734  1.8340  0.3506  0.7315
  837TIP3    H223927   1.473   0.789  10.623 -0.2654  2.0278 -0.0196
  838TIP3   OH223928   1.407   3.864  13.170  0.1565 -0.4233 -0.0072
  838TIP3    H123929   1.346   3.810  13.220 -0.9199  0.9695  0.2297
  838TIP3    H223930   1.424   3.940  13.226  0.4351  0.2415 -0.9650
  839TIP3   OH223931   6.698   0.167  13.617  0.0240  0.2570  0.4560
  839TIP3    H123932   6.656   0.100  13.563  0.5020  0.8366 -0.6919
  839TIP3    H223933   6.719   0.123  13.699 -0.3402 -0.7870  0.0084
  840TIP3   OH223934   0.899   1.424  11.789  0.2325  0.1438  0.5480
  840TIP3    H123935   0.818   1.441  11.741  0.8064 -0.3130 -0.6189
  840TIP3    H223936   0.875   1.435  11.881 -0.6027  2.3431  0.1344
  841TIP3   OH223937   6.750   5.895  14.742  0.3494  0.1040  0.5226
  841TIP3    H123938   6.815   5.933  14.800 -1.3471  2.1141  1.2173
  841TIP3    H223939   6.683   5.859  14.800  0.7718 -1.9506 -0.1735
  842TIP3   OH223940   1.965   1.030  13.197  0.3357 -0.7954  0.3797
  842TIP3    H123941   1.927   0.997  13.278  0.6705  0.1903  0.9519
  842TIP3    H223942   1.959   1.125  13.204 -2.6020 -0.6360 -2.1646
  843TIP3   OH223943   4.243   2.117   2.388 -0.2401 -0.1376 -0.2593
  843TIP3    H123944   4.284   2.118   2.301 -0.4820 -1.2709 -0.4024
  843TIP3    H223945   4.267   2.201   2.427  1.2701 -0.3082 -0.7718
  844TIP3   OH223946   4.252   5.218  12.816  0.0397  0.1336 -0.5750
  844TIP3    H123947   4.210   5.153  12.759  1.1075  0.1472 -1.4158
  844TIP3    H223948   4.248   5.299  12.766  1.4973  0.0247 -0.9138
  845TIP3   OH223949   1.711   2.946   2.555 -0.0146 -0.3368 -0.2665
  845TIP3    H123950   1.668   2.922   2.473  0.5180 -1.2760 -0.2936
  845TIP3    H223951   1.744   3.034   2.541  0.1654 -0.5313 -1.1090
  846TIP3   OH223952   3.428   2.517   2.322 -0.0720 -0.3980 -0.2741
  846TIP3    H123953   3.380   2.511   2.239 -0.4840 -0.1713 -0.0528
  846TIP3    H223954   3.376   2.465   2.383 -0.3216  0.2805  0.0981
  847TIP3   OH223955   5.312   3.789  12.955 -0.2109 -0.2577  0.2514
  847TIP3    H123956   5.327   3.793  13.049 -0.1533 -3.3994  0.5104
  847TIP3    H223957   5.239   3.849  12.940  0.0077  0.5917  2.2155
  848TIP3   OH223958   2.223   0.947   3.558  0.0513 -0.5579  0.1192
  848TIP3    H123959   2.140   0.901   3.569 -0.1749  0.1288  1.6223
  848TIP3    H223960   2.212   1.027   3.610  1.7484 -0.5867  0.5618
  849TIP3   OH223961   5.448   4.208   3.563 -0.3571 -0.2055  0.1384
  849TIP3    H123962   5.498   4.250   3.632  0.6922  1.1890 -1.3820
  849TIP3    H223963   5.478   4.250   3.482 -3.0999 -0.1610 -0.9910
  850TIP3   OH223964   6.430   4.194  13.610 -0.3031  0.3484 -0.1783
  850TIP3    H123965   6.355   4.253  13.598 -0.6353  0.0930  0.6091
  850TIP3    H223966   6.425   4.135  13.535 -0.6861  0.5506 -0.3165
  851TIP3   OH223967   1.723   6.235  10.949  0.1931 -0.2166 -0.0555
  851TIP3    H123968   1.683   6.242  11.035  0.6461  2.2723  0.0309
  851TIP3    H223969   1.799   6.294  10.953 -0.4232  0.8659 -2.4725
  852TIP3   OH223970   0.799   1.373   5.873 -0.0055 -0.0623  0.3798
  852TIP3    H123971   0.773   1.300   5.817  1.3477  0.4260 -0.9668
  852TIP3    H223972   0.890   1.390   5.848 -0.0703  1.6113  1.1804
  853TIP3   OH223973   6.122   3.765   4.000 -0.2218 -0.2655 -0.6339
  853TIP3    H123974   6.055   3.740   4.064  0.5854 -1.3396 -0.1747
  853TIP3    H223975   6.083   3.746   3.915 -0.7373 -0.2625 -0.4001
  854TIP3   OH223976   3.766   2.851   4.678  0.8661 -0.0293 -0.2404
  854TIP3    H123977   3.721   2.925   4.638  1.9637  0.1689 -1.1786
  854TIP3    H223978   3.719   2.774   4.647  0.3645  0.2224 -0.1121
  855TIP3   OH223979   4.019   2.024  11.094 -0.5645 -0.4970  0.2939
  855TIP3    H123980   3.997   2.116  11.083 -0.1750  0.1617  3.8880
  855TIP3    H223981   4.090   2.008  11.031 -0.6748  1.6026 -0.4285
  856TIP3   OH223982   4.274   6.679   2.478  0.2851 -0.0298  0.4324
  856TIP3    H123983   4.250   6.764   2.514  0.6162  0.7880 -1.1647
  856TIP3    H223984   4.362   6.693   2.442  0.8947 -1.4243  1.2850
  857TIP3   OH223985   2.647   1.355   4.436 -0.5209 -1.0361 -0.0790
  857TIP3    H123986   2.672   1.269   4.401 -0.4238 -0.1562 -2.2828
  857TIP3    H223987   2.569   1.379   4.386  1.0503  1.3644 -1.5737
  858TIP3   OH223988   4.230   2.786   3.560 -0.4324 -0.1801  0.0277
  858TIP3    H123989   4.208   2.763   3.650 -1.5470 -2.0882 -0.6558
  858TIP3    H223990   4.318   2.824   3.565  0.2995 -1.9222  1.7394
  859TIP3   OH223991   5.869   6.598  15.255  0.2838  0.5047  0.0722
  859TIP3    H123992   5.796   6.601  15.193  0.5616  0.7709 -0.2457
  859TIP3    H223993   5.852   6.670  15.315  0.9015  1.3173 -0.7080
  860TIP3   OH223994   6.624   1.882   6.239  0.2592  0.8329 -0.3186
  860TIP3    H123995   6.568   1.838   6.175 -0.5566 -1.2431  1.6991
  860TIP3    H223996   6.711   1.879   6.200 -0.2089 -0.3112 -1.3579
  861TIP3   OH223997   3.883   2.390  14.586  0.2010 -0.2391 -0.2973
  861TIP3    H123998   3.956   2.452  14.592  0.4374 -0.2766 -2.1782
  861TIP3    H223999   3.890   2.337  14.665  1.9441  0.0690 -0.2008
  862TIP3   OH224000   2.188   1.791  12.390 -0.6644  0.2380  0.1208
  862TIP3    H124001   2.198   1.730  12.317 -2.3256  0.1898 -0.1074
  862TIP3    H224002   2.131   1.860  12.355 -2.7184 -0.5225  1.7516
  863TIP3   OH224003   2.481   1.518   5.055  0.0754 -0.1041  0.1647
  863TIP3    H124004   2.564   1.514   5.008  1.6208  0.2713  2.6669
  863TIP3    H224005   2.432   1.587   5.010  0.8013 -0.7715 -1.7585
  864TIP3   OH224006   0.464   6.596   2.961  0.2488  0.0619 -0.2053
  864TIP3    H124007   0.547   6.589   3.008 -0.7004  1.0121  1.7205
  864TIP3    H224008   0.488   6.631   2.875  1.8783 -0.1923  0.1232
  865TIP3   OH224009   0.196   4.731  11.181  0.3016 -0.0397 -0.0588
  865TIP3    H124010   0.113   4.770  11.155  0.0423 -0.2200  0.4811
  865TIP3    H224011   0.255   4.750  11.108  0.0338  0.8859 -0.0549
  866TIP3   OH224012   3.300   5.794   2.569 -0.1452  0.6736 -0.1865
  866TIP3    H124013   3.216   5.786   2.614 -0.5234  2.0397 -0.5819
  866TIP3    H224014   3.362   5.749   2.626 -1.2760 -1.1594 -0.3449
  867TIP3   OH224015   2.688   1.330  17.028  0.2953 -0.1612  0.6778
  867TIP3    H124016   2.736   1.249  17.012 -0.5738 -0.3558 -1.1291
  867TIP3    H224017   2.597   1.308  17.009  0.3292  1.8155 -2.3653
  868TIP3   OH224018   1.979   1.877  16.570 -0.2934 -0.0563  0.2869
  868TIP3    H124019   1.890   1.841  16.568  0.8749 -3.2002 -2.0088
  868TIP3    H224020   2.036   1.803  16.550  2.5326  2.6662 -3.1594
  869TIP3   OH224021   2.301   5.959   3.256  0.2402 -0.8212  0.4220
  869TIP3    H124022   2.327   5.874   3.219  0.4073 -0.7409  0.3541
  869TIP3    H224023   2.244   5.936   3.329  2.3656 -1.0869  2.0923
  870TIP3   OH224024   0.531   3.817  14.920 -0.2983  0.4541  1.0713
  870TIP3    H124025   0.595   3.885  14.900  1.0721 -1.1272 -0.2796
  870TIP3    H224026   0.516   3.825  15.014  0.9441  1.6728  1.1995
  871TIP3   OH224027   3.657   5.736   1.032 -0.0686 -0.0145 -0.7027
  871TIP3    H124028   3.565   5.743   1.059 -1.0857 -3.4917 -2.5742
  871TIP3    H224029   3.699   5.687   1.102 -0.2042 -0.2862 -0.8075
  872TIP3   OH224030   2.320   3.787   0.390  0.1830 -0.1454  0.2058
  872TIP3    H124031   2.234   3.805   0.352 -0.0078 -0.2142  0.5950
  872TIP3    H224032   2.322   3.839   0.471 -0.3346 -1.7294  1.2909
  873TIP3   OH224033   3.990   5.326  16.979 -0.7147 -0.6835 -0.2094
  873TIP3    H124034   4.036   5.400  17.018 -1.3103 -0.6884  0.5150
  873TIP3    H224035   3.983   5.348  16.886 -0.9064  0.1786  0.0035
  874TIP3   OH224036   5.424   4.229   5.716  0.1293  0.6927  0.0930
  874TIP3    H124037   5.491   4.161   5.712 -1.1070 -0.5260 -1.6134
  874TIP3    H224038   5.395   4.229   5.807  1.5046  0.3450  0.5575
  875TIP3   OH224039   0.139   2.476  16.929  0.1325  0.0428  0.2359
  875TIP3    H124040   0.063   2.532  16.915  1.0326  1.3345  0.2662
  875TIP3    H224041   0.146   2.423  16.850 -0.6939  0.0327  0.1661
  876TIP3   OH224042   4.993   3.925   0.016  0.1946  0.0394 -0.9016
  876TIP3    H124043   5.043   3.910  -0.065  1.8081  0.8859 -0.1193
  876TIP3    H224044   5.049   3.890   0.085 -0.8147  0.0280 -0.0651
  877TIP3   OH224045   6.446   0.820   5.357 -0.0962  0.2647 -0.0464
  877TIP3    H124046   6.509   0.748   5.363  0.7484  0.7451 -2.1050
  877TIP3    H224047   6.361   0.777   5.345 -0.0699 -0.3753  1.7675
  878TIP3   OH224048   2.708   6.208   6.336 -0.8136 -0.5720 -0.6813
  878TIP3    H124049   2.689   6.141   6.401  1.2139  0.3500  1.0031
  878TIP3    H224050   2.781   6.258   6.374 -0.2571  0.7015 -3.2002
  879TIP3   OH224051   6.334   1.774  17.249  0.3737  0.0938  0.7972
  879TIP3    H124052   6.350   1.863  17.282  0.1185  0.4951 -0.1336
  879TIP3    H224053   6.239   1.762  17.257  0.2189  0.4340 -0.3356
  880TIP3   OH224054   1.065   0.996   1.288 -0.1437 -0.3417 -0.0098
  880TIP3    H124055   1.016   0.979   1.207  2.1123  0.1687 -1.5685
  880TIP3    H224056   1.053   0.917   1.340  0.2221 -1.6766 -1.8533
  881TIP3   OH224057   4.573   2.257   4.086 -0.1705 -0.0733 -0.3073
  881TIP3    H124058   4.621   2.335   4.058  0.4827 -0.0923  0.7359
  881TIP3    H224059   4.640   2.190   4.097 -0.1568  0.3197  2.7013
  882TIP3   OH224060   4.530   2.175  12.325  0.3171 -0.1104 -0.1602
  882TIP3    H124061   4.459   2.116  12.354  0.2979 -0.3980 -0.7773
  882TIP3    H224062   4.610   2.131  12.353  0.2772 -0.1470 -0.1032
  883TIP3   OH224063   6.578   2.947  16.143  0.3404 -0.0867 -0.3112
  883TIP3    H124064   6.655   2.987  16.183 -0.1167  1.8187 -1.2275
  883TIP3    H224065   6.504   2.990  16.185 -0.2506 -1.7424  0.4105
  884TIP3   OH224066   5.855   3.382  15.183  0.0001  0.2619 -0.1790
  884TIP3    H124067   5.781   3.389  15.243 -1.7811  0.7989 -2.3080
  884TIP3    H224068   5.844   3.296  15.142 -0.5538  1.0710 -1.8050
  885TIP3   OH224069   5.225   4.033   3.552  0.2248  0.1549  0.5036
  885TIP3    H124070   5.288   4.005   3.486  0.1053 -1.3981  1.0006
  885TIP3    H224071   5.276   4.086   3.613  0.4774  1.0440 -0.4553
  886TIP3   OH224072   0.125   1.897  15.609 -0.0677 -0.0466  0.2878
  886TIP3    H124073   0.148   1.956  15.680 -1.4233 -0.3060  0.9908
  886TIP3    H224074   0.176   1.927  15.534  1.7490 -0.0473  1.4756
  887TIP3   OH224075   4.157   2.276  13.751 -0.1620 -0.2482  0.1580
  887TIP3    H124076   4.244   2.291  13.716  0.2904 -1.0744  0.8986
  887TIP3    H224077   4.147   2.341  13.821  0.4138 -1.0652  1.0083
  888TIP3   OH224078   0.110   6.395  14.262  0.4763  0.3669  0.1455
  888TIP3    H124079   0.060   6.385  14.180  0.4697 -3.1162  0.4162
  888TIP3    H224080   0.054   6.449  14.318 -0.9260  0.2647 -1.0932
  889TIP3   OH224081   5.188   1.321  11.980 -0.0953 -0.2516 -0.1354
  889TIP3    H124082   5.222   1.289  11.897 -2.7710  0.0781 -1.4884
  889TIP3    H224083   5.139   1.247  12.016 -0.0406  0.0177  0.5057
  890TIP3   OH224084   5.725   5.504  14.480  0.0932  0.4019 -0.3034
  890TIP3    H124085   5.784   5.519  14.553  0.8468 -0.5944 -0.6844
  890TIP3    H224086   5.778   5.518  14.402 -0.0262 -0.9362 -0.6526
  891TIP3   OH224087   2.216   1.265  16.704 -0.4579 -0.1472  0.1611
  891TIP3    H124088   2.124   1.262  16.732 -0.0932 -1.9535  1.2996
  891TIP3    H224089   2.241   1.357  16.715 -1.1578 -0.1970  3.2678
  892TIP3   OH224090   3.327   5.493   4.534  0.1625  0.6288 -0.0519
  892TIP3    H124091   3.275   5.503   4.614  0.3413 -0.2274  0.1815
  892TIP3    H224092   3.261   5.476   4.466  0.0908 -0.1110  0.1842
  893TIP3   OH224093   5.947   2.627   0.707 -0.3925  0.2903 -0.1946
  893TIP3    H124094   5.937   2.533   0.691  1.6144 -0.2935  1.6669
  893TIP3    H224095   5.978   2.661   0.623 -1.1203 -0.6626 -0.8931
  894TIP3   OH224096   1.688   4.729   3.329  0.3384 -0.2091 -1.2787
  894TIP3    H124097   1.748   4.684   3.388  0.3378 -0.0990 -1.1944
  894TIP3    H224098   1.650   4.659   3.276 -0.8215 -0.5016 -0.1183
  895TIP3   OH224099   6.212   4.584   2.225 -0.1842 -0.3637 -0.0510
  895TIP3    H124100   6.307   4.593   2.228 -0.2513  0.0279  1.1773
  895TIP3    H224101   6.188   4.548   2.310 -1.2602  0.7745  0.1617
  896TIP3   OH224102   3.675   6.399   5.016 -0.2441 -0.1479 -0.0711
  896TIP3    H124103   3.605   6.403   4.950  0.9971  0.2793 -1.4269
  896TIP3    H224104   3.753   6.375   4.966  0.2101 -2.9056  1.7398
  897TIP3   OH224105   4.965   5.411  13.441  0.2692  0.3842  0.4897
  897TIP3    H124106   4.946   5.500  13.472  0.8961  1.6372 -2.4047
  897TIP3    H224107   5.060   5.407  13.434  0.3030 -0.8343  1.3100
  898TIP3   OH224108   0.422   1.225  11.491  0.3951 -0.3499  0.1972
  898TIP3    H124109   0.423   1.170  11.569  0.0126 -1.5511 -0.6124
  898TIP3    H224110   0.504   1.205  11.447 -0.5562 -1.7182 -1.0408
  899TIP3   OH224111   2.375   4.239   4.306  0.6720  0.8874 -0.4979
  899TIP3    H124112   2.304   4.187   4.344  0.0949  0.8453 -1.6134
  899TIP3    H224113   2.416   4.180   4.242  0.7953  1.4009 -0.8941
  900TIP3   OH224114   0.200   0.359   2.127 -0.1264 -0.0720  0.2312
  900TIP3    H124115   0.284   0.313   2.133 -0.5311 -0.8807 -0.0356
  900TIP3    H224116   0.149   0.306   2.066 -0.8546  0.3733  0.4469
  901TIP3   OH224117   5.513   5.214   2.616 -0.0900  0.3687 -0.3581
  901TIP3    H124118   5.481   5.133   2.578  2.2749 -0.7641 -0.0777
  901TIP3    H224119   5.505   5.201   2.711  0.4666  0.3820 -0.3072
  902TIP3   OH224120   0.902   2.385   0.748 -0.0012  0.6569 -0.3982
  902TIP3    H124121   0.890   2.292   0.731 -1.1875  0.6874  0.1332
  902TIP3    H224122   0.873   2.428   0.667 -1.9304  0.6408  0.2244
  903TIP3   OH224123   6.627   5.376  12.291 -0.1433 -0.1665  0.1805
  903TIP3    H124124   6.711   5.370  12.336  0.0008  0.6194  0.0357
  903TIP3    H224125   6.633   5.311  12.222 -0.1781 -1.0400  0.9894
  904TIP3   OH224126   4.318   1.101   0.630 -0.4035 -0.2132  0.2617
  904TIP3    H124127   4.324   1.116   0.724 -3.3667 -1.4286  0.7365
  904TIP3    H224128   4.361   1.016   0.617 -0.2512 -0.1786  0.5326
  905TIP3   OH224129   0.027   0.077  13.878 -0.1928 -0.4391  0.0715
  905TIP3    H124130   0.099   0.071  13.941  1.1593  0.1416 -1.3283
  905TIP3    H224131  -0.042   0.024  13.915  0.6700 -0.3880  1.8665
  906TIP3   OH224132   1.398   0.121   0.659 -0.1871 -0.3413  0.3299
  906TIP3    H124133   1.316   0.153   0.620 -0.1262 -0.3242  0.2156
  906TIP3    H224134   1.391   0.144   0.752 -0.2730 -0.2583  0.3030
  907TIP3   OH224135   6.338   3.087   1.369 -0.4261 -0.0825  0.2465
  907TIP3    H124136   6.374   3.094   1.281  1.6860  1.8696  1.1681
  907TIP3    H224137   6.246   3.111   1.360  0.0602  1.3787 -1.2783
  908TIP3   OH224138   1.470   1.750  15.219 -0.2365 -0.1399  0.2958
  908TIP3    H124139   1.417   1.826  15.194 -0.1373 -0.5456 -1.3051
  908TIP3    H224140   1.551   1.760  15.167 -0.7811 -2.0100 -1.0099
  909TIP3   OH224141   0.230   6.139  14.490 -0.4526 -0.1500 -0.0711
  909TIP3    H124142   0.136   6.121  14.491 -0.5265  0.0041 -1.6332
  909TIP3    H224143   0.237   6.234  14.484 -0.2102 -0.1797 -0.2874
  910TIP3   OH224144   5.311   1.796   5.358 -0.3716 -0.0805  0.2049
  910TIP3    H124145   5.332   1.727   5.421  0.2494 -2.3570 -2.3205
  910TIP3    H224146   5.395   1.836   5.337 -0.7303  1.6026  1.6724
  911TIP3   OH224147   5.508   3.715  15.449  0.3152  0.2804 -0.1150
  911TIP3    H124148   5.519   3.782  15.516  0.3458  0.1534  0.0060
  911TIP3    H224149   5.586   3.722  15.394 -0.2384  1.1653 -0.8313
  912TIP3   OH224150   0.587   6.715   1.109 -0.6501  0.3472 -0.1437
  912TIP3    H124151   0.675   6.696   1.140  0.3506  2.0486 -1.7410
  912TIP3    H224152   0.585   6.680   1.020 -1.4549  0.6552 -0.2535
  913TIP3   OH224153   3.521   5.290  14.035  0.5865  0.0281 -0.6288
  913TIP3    H124154   3.449   5.254  13.983  0.3259  1.2589 -1.1336
  913TIP3    H224155   3.479   5.344  14.102  0.9150 -1.5439  0.9426
  914TIP3   OH224156   2.903   5.977   4.750 -0.0461  0.3628  0.2836
  914TIP3    H124157   2.987   5.984   4.704  0.6012 -1.0933  1.1871
  914TIP3    H224158   2.911   6.036   4.825  0.6947 -0.7386  1.0933
  915TIP3   OH224159   1.424   3.335  15.915  0.6212 -0.1110  0.3942
  915TIP3    H124160   1.489   3.403  15.932  1.9963 -1.4999  0.8806
  915TIP3    H224161   1.447   3.264  15.974 -1.5822 -0.5403  0.8499
  916TIP3   OH224162   5.733   0.206   0.357  0.0811  0.0090 -0.1655
  916TIP3    H124163   5.648   0.164   0.348 -1.5518  2.4845  2.0454
  916TIP3    H224164   5.729   0.281   0.297 -0.1047  1.1907  1.2752
  917TIP3   OH224165   0.653   2.871  17.266  0.2744 -0.3287  0.3675
  917TIP3    H124166   0.668   2.951  17.317 -0.4893  0.4840 -0.6331
  917TIP3    H224167   0.709   2.806  17.307  1.2867  0.8404  0.9162
  918TIP3   OH224168   5.803   5.860   4.009 -0.2862 -0.1477 -0.4262
  918TIP3    H124169   5.829   5.938   3.961 -0.7919  0.4206  0.1980
  918TIP3    H224170   5.709   5.872   4.024  0.1443  0.6341  2.3210
  919TIP3   OH224171   1.325   3.306   4.005  0.0619 -0.4194 -0.1659
  919TIP3    H124172   1.312   3.211   4.008 -0.7698 -0.3150 -0.2743
  919TIP3    H224173   1.238   3.343   4.019 -0.0234  0.3056 -2.1871
  920TIP3   OH224174   3.710   3.705   1.952  0.1396  0.1005  0.0154
  920TIP3    H124175   3.734   3.744   2.036  0.6179 -0.3376  0.0880
  920TIP3    H224176   3.794   3.682   1.911 -0.0316  1.1125 -0.9794
  921TIP3   OH224177   3.737   4.612   5.129  0.4541  0.4707  0.2952
  921TIP3    H124178   3.803   4.613   5.199  1.7508 -0.6911 -0.8559
  921TIP3    H224179   3.782   4.651   5.054 -0.2571 -0.1177 -0.4430
  922TIP3   OH224180   2.876   5.894  11.229  0.5727  0.5910  0.0067
  922TIP3    H124181   2.866   5.941  11.312  1.4891 -1.1781  1.1698
  922TIP3    H224182   2.928   5.953  11.175 -1.4519  2.5251 -0.0247
  923TIP3   OH224183   0.347   5.082  11.485 -0.8110 -1.1549 -0.1549
  923TIP3    H124184   0.370   5.083  11.392 -0.7291  1.6373 -0.1768
  923TIP3    H224185   0.255   5.108  11.487 -0.3239  0.6054  0.6031
  924TIP3   OH224186   1.881   3.923  12.866 -0.2364  0.3822 -0.0369
  924TIP3    H124187   1.918   3.965  12.943  0.5030  2.1368 -1.2884
  924TIP3    H224188   1.955   3.914  12.806 -1.0722  0.3677 -1.0895
  925TIP3   OH224189   1.359   5.654  13.384  0.2555 -0.3210  0.0999
  925TIP3    H124190   1.409   5.736  13.377 -1.7619  0.9741  0.0831
  925TIP3    H224191   1.391   5.613  13.464 -0.5133  1.8113  1.5713
  926TIP3   OH224192   6.361   0.090  11.305 -0.0361  0.5244 -0.2106
  926TIP3    H124193   6.358   0.132  11.219 -1.3473  1.5060  0.2833
  926TIP3    H224194   6.292   0.133  11.355  0.1195 -0.6492  1.0635
  927TIP3   OH224195   4.361   1.603  16.910 -0.1183 -0.4334 -0.0922
  927TIP3    H124196   4.420   1.659  16.860  0.6379 -1.3171 -0.2052
  927TIP3    H224197   4.297   1.571  16.845 -0.6579  0.4219  0.0094
  928TIP3   OH224198   4.674   3.189  15.805  0.3984  0.1024  0.0080
  928TIP3    H124199   4.705   3.131  15.874  0.7552  0.8183  0.4613
  928TIP3    H224200   4.697   3.144  15.723  0.1399 -0.6588  0.3484
  929TIP3   OH224201   1.670   4.164   2.141  0.9051 -0.2489 -0.0093
  929TIP3    H124202   1.714   4.245   2.117  0.1890  0.6187  1.4748
  929TIP3    H224203   1.617   4.142   2.064  1.1159  0.6874 -0.4292
  930TIP3   OH224204   1.672   4.979   3.028  0.0077 -0.1302 -0.7617
  930TIP3    H124205   1.726   4.914   2.982 -0.9335 -2.2916  0.9791
  930TIP3    H224206   1.582   4.950   3.013 -0.3903  0.0775  0.9865
  931TIP3   OH224207   4.238   4.163  13.980 -0.3916  0.5127 -0.0439
  931TIP3    H124208   4.331   4.172  13.961 -0.5209  3.9836  0.3729
  931TIP3    H224209   4.230   4.181  14.074 -1.5394  1.0634 -0.2286
  932TIP3   OH224210   4.942   6.030  12.655  0.7800 -0.8071  0.3330
  932TIP3    H124211   4.951   5.945  12.612  1.5398 -1.9794  2.6363
  932TIP3    H224212   4.849   6.034  12.679  0.5631 -0.5782 -0.4981
  933TIP3   OH224213   3.027   4.732   2.500  0.5588  0.0094 -0.6759
  933TIP3    H124214   3.002   4.821   2.476 -0.6187  0.3362  1.5103
  933TIP3    H224215   3.093   4.707   2.435 -1.4487  1.2164 -3.3679
  934TIP3   OH224216   0.673   5.864  14.322 -0.0251 -0.2008  0.0049
  934TIP3    H124217   0.648   5.772  14.326  2.5911 -1.0364 -0.9290
  934TIP3    H224218   0.673   5.886  14.229 -0.4073  0.6875  0.2028
  935TIP3   OH224219   5.117   3.312  17.004  0.2694  0.4393 -0.5624
  935TIP3    H124220   5.153   3.303  17.092 -1.1646 -3.1251 -0.1451
  935TIP3    H224221   5.056   3.385  17.010  2.5752  2.4139  0.4103
  936TIP3   OH224222   4.874   0.602  13.954  0.1125  0.1451  0.2678
  936TIP3    H124223   4.806   0.669  13.953 -2.6294 -2.3476  2.4658
  936TIP3    H224224   4.856   0.548  13.877 -0.5136 -0.5576  0.8888
  937TIP3   OH224225   1.055   5.242  13.548 -0.9055 -0.3841  0.5172
  937TIP3    H124226   1.014   5.248  13.462 -0.3895 -0.2164  0.2813
  937TIP3    H224227   1.096   5.156  13.549  1.1642  0.5323 -0.3492
  938TIP3   OH224228   0.426   0.689   2.403 -0.9374 -0.1927 -0.2268
  938TIP3    H124229   0.339   0.687   2.442 -0.9892 -0.2878 -0.3463
  938TIP3    H224230   0.414   0.730   2.318 -0.7950  0.1754 -0.0739
  939TIP3   OH224231   5.398   0.857   1.350  0.3378  0.1044 -0.3317
  939TIP3    H124232   5.393   0.772   1.308 -0.1390 -1.2529  2.2566
  939TIP3    H224233   5.478   0.852   1.404 -1.0062  0.2549  1.7946
  940TIP3   OH224234   4.663   5.318   3.991  0.5531 -0.1542  0.0636
  940TIP3    H124235   4.610   5.287   4.064  1.2530 -0.7646  0.3300
  940TIP3    H224236   4.645   5.412   3.987  1.9373  0.2900  2.2791
  941TIP3   OH224237   1.118   1.506   2.901 -0.4091  0.2693 -0.1055
  941TIP3    H124238   1.030   1.516   2.938 -1.1020  1.2333 -1.8688
  941TIP3    H224239   1.175   1.555   2.959 -1.0672 -0.1416  0.9089
  942TIP3   OH224240   5.071   6.348   3.103 -0.1144  0.1039 -0.4418
  942TIP3    H124241   4.983   6.313   3.116  0.7871 -2.4039 -0.6764
  942TIP3    H224242   5.130   6.278   3.129  1.8856  2.0057  0.5021
  943TIP3   OH224243   1.274   6.168   2.360 -0.2647  0.4954  0.6517
  943TIP3    H124244   1.289   6.115   2.282  0.2014 -0.5287  1.4217
  943TIP3    H224245   1.356   6.165   2.408 -1.0373 -0.2369  1.9798
  944TIP3   OH224246   5.743   0.514   1.145  0.3309 -0.1897  0.2924
  944TIP3    H124247   5.777   0.481   1.229 -1.4083  0.0726  1.1392
  944TIP3    H224248   5.678   0.449   1.118  0.9694 -0.3415 -0.9426
  945TIP3   OH224249   1.355   2.438   1.937 -0.1836 -0.4975  0.1611
  945TIP3    H124250   1.383   2.495   1.865 -1.1416 -0.4713 -0.1952
  945TIP3    H224251   1.312   2.364   1.895  1.3073 -1.6710  0.6073
  946TIP3   OH224252   2.341   1.836   0.061 -0.2236  0.0937 -0.6619
  946TIP3    H124253   2.278   1.900   0.027  0.0972  0.1002 -1.2555
  946TIP3    H224254   2.398   1.887   0.119 -1.4165 -0.1163  0.7657
  947TIP3   OH224255   5.904   5.281  12.985  0.3557  0.0567 -0.7652
  947TIP3    H124256   5.980   5.338  12.993 -1.2634  2.3225 -0.5058
  947TIP3    H224257   5.863   5.284  13.072  0.5401 -2.0393 -0.5605
  948TIP3   OH224258   2.078   6.544   0.427 -0.1567 -0.4744 -0.2871
  948TIP3    H124259   2.065   6.638   0.423  0.1900 -0.4019  0.1929
  948TIP3    H224260   2.001   6.507   0.384 -2.1107 -0.0976  2.5851
  949TIP3   OH224261   6.711   5.714  14.309 -0.4867  0.0526  0.3374
  949TIP3    H124262   6.774   5.727  14.238 -3.2628 -0.4995 -2.4643
  949TIP3    H224263   6.763   5.682  14.383  2.3604 -1.4031 -2.0994
  950TIP3   OH224264   3.049   4.041   1.265 -0.1513 -0.1588 -0.0144
  950TIP3    H124265   3.018   4.105   1.330  0.2023 -1.7351  1.7910
  950TIP3    H224266   2.972   3.987   1.246  0.0114 -0.3479 -0.1341
  951TIP3   OH224267   1.794   1.816  12.742  0.2658  0.0974 -0.3286
  951TIP3    H124268   1.813   1.728  12.711  0.3603 -0.2985  0.8120
  951TIP3    H224269   1.807   1.812  12.837  0.7723  1.4640 -0.3079
  952TIP3   OH224270   5.861   6.595   3.871  0.0970 -0.5832  0.0336
  952TIP3    H124271   5.931   6.652   3.906  0.3211 -1.1301  0.4953
  952TIP3    H224272   5.799   6.656   3.832  0.5979 -0.0494  0.0398
  953TIP3   OH224273   1.517   4.554  13.767  0.0006  0.2547  0.2625
  953TIP3    H124274   1.580   4.484  13.784 -0.2635 -0.1444 -0.3523
  953TIP3    H224275   1.449   4.542  13.833 -0.9907 -1.2392 -0.9615
  954TIP3   OH224276   3.969   0.406  16.290  0.4202 -0.5527  0.3496
  954TIP3    H124277   3.911   0.374  16.221  0.5335  1.8074 -0.9373
  954TIP3    H224278   4.002   0.327  16.333 -0.6314 -2.0502 -1.4749
  955TIP3   OH224279   5.384   1.274   2.310 -0.1232  0.3997 -0.3509
  955TIP3    H124280   5.438   1.311   2.380  0.3356 -1.2778  0.2067
  955TIP3    H224281   5.294   1.288   2.339  0.0485  0.5087  0.1381
  956TIP3   OH224282   4.111   4.769   1.674 -0.2409  0.1988  0.5611
  956TIP3    H124283   4.090   4.694   1.730  0.3942  0.1067  0.6864
  956TIP3    H224284   4.139   4.837   1.736 -0.2190  0.3290  0.4067
  957TIP3   OH224285   0.108   4.137  16.988  0.2462  0.2836 -0.5001
  957TIP3    H124286   0.165   4.064  17.012  0.1070 -0.3412 -1.9583
  957TIP3    H224287   0.068   4.165  17.070  0.2516 -1.3277  0.0859
  958TIP3   OH224288   0.005   5.945   0.804  0.8736 -1.3292 -0.3222
  958TIP3    H124289  -0.003   5.997   0.884 -0.5041 -1.3959 -0.4066
  958TIP3    H224290   0.060   5.998   0.746 -1.2674  0.5271 -0.7766
  959TIP3   OH224291   2.117   4.471   3.348 -0.1201  1.2048 -0.3738
  959TIP3    H124292   2.183   4.454   3.281 -0.2019  2.8596 -0.9354
  959TIP3    H224293   2.084   4.385   3.372  0.9888  0.4700 -1.3622
  960TIP3   OH224294   3.364   1.859  11.972 -0.0337  0.1988  0.8036
  960TIP3    H124295   3.352   1.912  12.051 -0.4829  0.3014  0.6700
  960TIP3    H224296   3.282   1.811  11.963  0.2158 -0.2145  0.6937
  961TIP3   OH224297   5.002   6.156   2.510  0.0016 -0.0855 -0.2989
  961TIP3    H124298   4.908   6.152   2.494  0.1515  0.4042 -1.3407
  961TIP3    H224299   5.037   6.211   2.441  0.8377  1.2304  1.1065
  962TIP3   OH224300   5.130   1.669   4.121  0.6104  0.2299 -0.8045
  962TIP3    H124301   5.145   1.764   4.119 -0.0234  0.3858  0.7523
  962TIP3    H224302   5.037   1.659   4.103  0.6117 -0.0678 -0.6433
  963TIP3   OH224303   1.597   1.950   0.456 -0.2882  0.0977  0.5842
  963TIP3    H124304   1.661   1.999   0.403  0.3274 -0.8661  0.4064
  963TIP3    H224305   1.576   1.873   0.403 -1.4368  0.2870  0.7457
  964TIP3   OH224306   0.526   2.561  16.568  0.5381  0.4193  0.0451
  964TIP3    H124307   0.606   2.572  16.620  0.8338  1.8963 -0.6795
  964TIP3    H224308   0.548   2.493  16.503  0.5372 -0.5939  1.0743
  965TIP3   OH224309   3.950   3.498  14.001 -0.2457 -0.2503 -0.4673
  965TIP3    H124310   3.952   3.418  14.054 -0.7806  0.3616  0.4986
  965TIP3    H224311   4.024   3.488  13.940 -0.6664 -1.7539 -0.7878
  966TIP3   OH224312   4.101   4.293   5.898 -0.7799  0.3966  0.3394
  966TIP3    H124313   4.177   4.343   5.869 -0.6571  0.5664  0.9452
  966TIP3    H224314   4.086   4.322   5.987 -1.0944 -0.1889  0.4805
  967TIP3   OH224315   6.103   3.007   1.089  0.0761  0.0762 -0.4388
  967TIP3    H124316   6.025   3.017   1.034  0.1111 -1.3785 -0.7769
  967TIP3    H224317   6.166   3.068   1.051 -0.5398  0.5101 -0.7959
  968TIP3   OH224318   5.031   1.128   2.114  0.4083 -0.0902 -0.5383
  968TIP3    H124319   5.000   1.184   2.186  0.2576  1.4820 -1.7722
  968TIP3    H224320   5.097   1.181   2.070  1.7800 -1.7267 -0.5368
  969TIP3   OH224321   6.489   2.774   4.741 -0.1405  0.4877 -0.2716
  969TIP3    H124322   6.394   2.771   4.749 -0.0752  0.9028  0.7747
  969TIP3    H224323   6.517   2.683   4.742 -0.5649  0.3237 -1.3675
  970TIP3   OH224324   1.262   2.531   2.720 -0.0041  0.1813 -0.0366
  970TIP3    H124325   1.181   2.482   2.735 -0.3087  0.3956 -0.9019
  970TIP3    H224326   1.330   2.465   2.717 -0.3445 -0.1513 -0.6898
  971TIP3   OH224327   4.988   0.701   4.770  0.0125 -0.8316 -0.1911
  971TIP3    H124328   4.914   0.758   4.749 -0.0705  0.0351  2.2017
  971TIP3    H224329   5.040   0.700   4.690  0.0568  2.7143 -0.3879
  972TIP3   OH224330   3.141   5.094  15.683 -0.0722  0.3212  0.8911
  972TIP3    H124331   3.198   5.122  15.611  1.2745  1.0492  2.2018
  972TIP3    H224332   3.192   5.028  15.730 -1.5627 -1.3423  0.3172
  973TIP3   OH224333   2.149   0.591   5.488  0.7249 -0.4217 -0.1312
  973TIP3    H124334   2.162   0.638   5.406 -2.7274  0.1665 -0.4863
  973TIP3    H224335   2.163   0.499   5.466 -0.0940 -0.2664 -1.4046
  974TIP3   OH224336   6.370   1.777  16.361  0.1538 -0.0833 -0.0421
  974TIP3    H124337   6.342   1.823  16.440 -1.4891 -0.0137 -0.6153
  974TIP3    H224338   6.293   1.780  16.304  0.9668 -1.0311 -1.2339
  975TIP3   OH224339   2.182   0.573  15.759 -0.0597 -0.1201 -0.6654
  975TIP3    H124340   2.257   0.633  15.762  0.5264 -0.8600 -0.4533
  975TIP3    H224341   2.129   0.598  15.835  1.2638 -1.2484  0.6744
  976TIP3   OH224342   1.120   3.229   1.201 -0.6118  0.1100  0.4353
  976TIP3    H124343   1.108   3.284   1.123 -0.2339 -1.4940 -0.8110
  976TIP3    H224344   1.210   3.246   1.229 -0.3406 -0.2135 -0.2246
  977TIP3   OH224345   2.500   6.106   4.490  0.4230 -0.6921  0.0554
  977TIP3    H124346   2.572   6.048   4.513  1.0280  0.1104  0.2429
  977TIP3    H224347   2.489   6.162   4.567  0.6863  0.2674 -0.5875
  978TIP3   OH224348   3.051   0.366   4.244 -0.1197  0.3008 -0.0268
  978TIP3    H124349   3.041   0.319   4.326 -0.7429  1.1566  0.4023
  978TIP3    H224350   3.107   0.309   4.190 -1.2363 -1.1412  0.2802
  979TIP3   OH224351   0.689   5.375  11.311  0.6280 -0.1118 -0.6163
  979TIP3    H124352   0.682   5.438  11.240  0.7716  0.0561 -0.4815
  979TIP3    H224353   0.650   5.295  11.275 -1.3538  0.5773 -0.1346
  980TIP3   OH224354   5.305   1.513  12.160  0.3743 -0.3984  0.1039
  980TIP3    H124355   5.393   1.529  12.126 -0.2638  0.2277 -1.3652
  980TIP3    H224356   5.268   1.449  12.099 -0.7594  0.6327 -0.3253
  981TIP3   OH224357   0.499   2.929  16.487  0.4015  0.2847 -0.0441
  981TIP3    H124358   0.547   2.989  16.543  0.5574 -0.5960  0.7880
  981TIP3    H224359   0.408   2.958  16.493  0.3445 -0.0694  1.0496
  982TIP3   OH224360   6.278   3.020   0.233  0.1834  0.8266  0.9252
  982TIP3    H124361   6.225   3.093   0.202 -1.1197 -0.1516  0.7113
  982TIP3    H224362   6.360   3.026   0.184 -1.8810 -0.8701 -3.2299
  983TIP3   OH224363   4.842   4.880   5.028  0.6184  0.2420 -0.4466
  983TIP3    H124364   4.791   4.935   5.088  0.4785  1.6744 -1.8209
  983TIP3    H224365   4.933   4.903   5.047  0.6733 -0.5027  0.2916
  984TIP3   OH224366   3.132   4.604  15.449 -0.4572 -0.5608  0.0945
  984TIP3    H124367   3.227   4.598  15.439 -0.5528 -3.0938  0.1127
  984TIP3    H224368   3.101   4.640  15.365  0.4180 -0.8822 -0.3735
  985TIP3   OH224369   4.539   3.046   3.263 -0.1795  0.2678 -0.0332
  985TIP3    H124370   4.602   3.086   3.322 -1.1808 -2.3786  3.1268
  985TIP3    H224371   4.456   3.087   3.284 -0.1147  1.4168 -1.8407
  986TIP3   OH224372   0.978   5.617   5.522 -0.2763 -0.4490 -0.0773
  986TIP3    H124373   0.996   5.693   5.467 -1.1058  1.2139  1.8333
  986TIP3    H224374   1.061   5.598   5.565  0.0344 -0.9074 -0.8615
  987TIP3   OH224375   4.950   1.931  12.006 -0.1443  0.1816  0.0603
  987TIP3    H124376   4.904   2.007  11.972  0.8554  0.0230 -1.7836
  987TIP3    H224377   4.960   1.949  12.100 -1.2634  1.5817 -0.0551
  988TIP3   OH224378   5.361   2.060  15.308 -0.1171 -0.2023  0.5311
  988TIP3    H124379   5.289   2.007  15.343  0.0430 -0.8169 -0.0485
  988TIP3    H224380   5.342   2.067  15.214  0.1296  0.3549  0.5187
  989TIP3   OH224381   2.455   2.393   0.230  0.0006 -0.0154  0.2546
  989TIP3    H124382   2.494   2.356   0.309  1.9506  0.2777 -0.5033
  989TIP3    H224383   2.361   2.375   0.238  0.1979 -0.2849  2.4474
  990TIP3   OH224384   3.534   3.211  11.452  0.1230 -0.1029 -0.4359
  990TIP3    H124385   3.499   3.136  11.500  0.9624 -1.9840 -2.5418
  990TIP3    H224386   3.628   3.194  11.447  0.4430  1.5208 -0.2962
  991TIP3   OH224387   0.638   5.791   4.428  0.1227 -0.1373  0.2111
  991TIP3    H124388   0.615   5.698   4.437 -0.2443 -0.1908 -1.0847
  991TIP3    H224389   0.599   5.817   4.344 -0.7501  1.4891  1.0659
  992TIP3   OH224390   6.014   3.665   3.713 -0.1372  0.3202 -0.7881
  992TIP3    H124391   6.021   3.577   3.748 -3.1653  0.6186  0.8975
  992TIP3    H224392   6.099   3.682   3.673  1.7502 -2.0978  1.7956
  993TIP3   OH224393   4.853   4.767  15.975  0.8680  0.3575 -0.2273
  993TIP3    H124394   4.817   4.744  16.060 -2.1371  0.9576 -1.2139
  993TIP3    H224395   4.849   4.686  15.924 -1.5732  0.9291 -1.0723
  994TIP3   OH224396   1.576   4.840  14.363  0.1313 -0.9647  0.4580
  994TIP3    H124397   1.629   4.764  14.337 -0.4370 -0.8440 -1.1570
  994TIP3    H224398   1.636   4.895  14.413  1.6502 -0.6730 -1.5822
  995TIP3   OH224399   5.195   3.319  16.682  0.2285  0.2834  0.3577
  995TIP3    H124400   5.103   3.319  16.655  0.9298 -1.8396 -2.4814
  995TIP3    H224401   5.198   3.379  16.757 -3.7384 -0.8258  1.6595
  996TIP3   OH224402   0.344   0.476  13.375  0.0251  0.0088 -0.1090
  996TIP3    H124403   0.302   0.435  13.300 -1.6399 -0.9467  1.2722
  996TIP3    H224404   0.273   0.523  13.420  0.9663  0.5331  0.8820
  997TIP3   OH224405   6.416   3.546   2.698 -0.2198  0.2372 -0.4747
  997TIP3    H124406   6.416   3.450   2.695  4.1844 -0.1641  3.1376
  997TIP3    H224407   6.508   3.571   2.694 -1.1081  4.3234 -0.0675
  998TIP3   OH224408   1.070   6.681   5.185 -0.1918 -0.4344  0.0046
  998TIP3    H124409   1.060   6.599   5.136 -0.3114  0.3994 -1.4378
  998TIP3    H224410   1.104   6.654   5.270 -0.6822 -2.0202 -0.2627
  999TIP3   OH224411   2.653   2.311  12.635  0.1229 -0.3797  0.3837
  999TIP3    H124412   2.703   2.258  12.573 -0.5694  0.0012 -0.5216
  999TIP3    H224413   2.707   2.390  12.647 -1.0771  0.9254 -2.1022
 1000TIP3   OH224414   0.744   3.865   3.010 -0.1527  0.0557 -0.6304
 1000TIP3    H124415   0.757   3.943   2.956  0.9892  1.3201  1.3609
 1000TIP3    H224416   0.653   3.839   2.993 -0.9191  2.4693 -0.5434
 1001TIP3   OH224417   3.573   4.684  16.473  0.3078  0.0798  0.1147
 1001TIP3    H124418   3.572   4.725  16.386 -0.1889  1.0104  0.5347
 1001TIP3    H224419   3.611   4.751  16.530  0.9375 -0.6480  0.5637
 1002TIP3   OH224420   1.413   2.251   3.334  0.5685 -0.0884  0.4482
 1002TIP3    H124421   1.467   2.212   3.404  1.2651 -2.3533 -1.2274
 1002TIP3    H224422   1.472   2.309   3.287  0.5169  0.2765  0.8320
 1003TIP3   OH224423   2.709   0.059  16.888 -0.0090 -0.2997 -0.8149
 1003TIP3    H124424   2.773   0.123  16.917 -0.2190 -0.5494  0.2447
 1003TIP3    H224425   2.674   0.094  16.806  1.7780 -0.3755 -1.6482
 1004TIP3   OH224426   4.486   0.379   0.279  0.2847 -0.1883  0.5910
 1004TIP3    H124427   4.527   0.459   0.247  1.6032  0.4612  3.5850
 1004TIP3    H224428   4.538   0.354   0.356 -0.7980 -3.2900  0.4522
 1005TIP3   OH224429   3.383   4.535  15.925 -0.0492  0.1010 -0.2547
 1005TIP3    H124430   3.472   4.545  15.893 -0.6678  0.0932 -2.0488
 1005TIP3    H224431   3.392   4.534  16.021  1.6052  2.8064 -0.2731
 1006TIP3   OH224432   3.081   3.051  10.785 -0.4387 -1.0067  0.0788
 1006TIP3    H124433   3.167   3.021  10.816  1.6192  1.8744 -2.2666
 1006TIP3    H224434   3.060   2.993  10.712 -0.1906 -1.3575  0.2840
 1007TIP3   OH224435   5.828   6.638   0.975 -0.2099  0.4540  0.2809
 1007TIP3    H124436   5.733   6.628   0.981 -0.5085  2.7301  0.2535
 1007TIP3    H224437   5.862   6.554   1.006 -2.2080 -0.4310  0.2968
 1008TIP3   OH224438   5.531   0.791   5.374 -0.0962 -0.7066 -0.2364
 1008TIP3    H124439   5.514   0.797   5.468  0.4720  0.2600 -0.1789
 1008TIP3    H224440   5.451   0.755   5.337  0.0299 -2.0485  0.7313
 1009TIP3   OH224441   3.001   3.337   1.140  0.0617  0.2657  0.1459
 1009TIP3    H124442   2.969   3.307   1.224 -0.7953 -0.1340 -0.3123
 1009TIP3    H224443   3.070   3.275   1.117 -1.7056 -1.4494 -0.8005
 1010TIP3   OH224444   6.708   1.407   4.154 -0.2499  1.0347 -0.4525
 1010TIP3    H124445   6.641   1.385   4.219  0.9899  1.4739  1.0261
 1010TIP3    H224446   6.731   1.324   4.114 -1.0575  0.7611 -0.3727
 1011TIP3   OH224447   3.370   1.347   0.960 -0.4289 -0.6058  0.1684
 1011TIP3    H124448   3.426   1.308   0.894 -1.4630  0.6871 -1.5493
 1011TIP3    H224449   3.297   1.285   0.970 -1.0130 -0.1546 -1.0326
 1012TIP3   OH224450   3.906   2.783  16.153  0.6073 -0.2694 -0.0440
 1012TIP3    H124451   3.946   2.832  16.225  1.4128  1.5977 -1.6677
 1012TIP3    H224452   3.837   2.731  16.195  1.6034  0.0528  2.1709
 1013TIP3   OH224453   5.967   2.330  14.649 -0.1633  0.5091 -0.0368
 1013TIP3    H124454   5.924   2.244  14.655  0.0748  0.4303  0.6457
 1013TIP3    H224455   5.945   2.361  14.561  0.3385 -0.5645 -0.5615
 1014TIP3   OH224456   6.261   6.663   2.494 -0.6951  0.1643 -0.1953
 1014TIP3    H124457   6.174   6.702   2.503 -0.9761 -0.5412  0.1944
 1014TIP3    H224458   6.316   6.713   2.554 -0.6320  1.1492 -1.0331
 1015TIP3   OH224459   3.600   1.624  13.168  0.6752 -0.0786 -0.0560
 1015TIP3    H124460   3.628   1.707  13.207  0.5800 -0.7139  1.3952
 1015TIP3    H224461   3.570   1.649  13.080  0.0960  1.5256  0.5473
 1016TIP3   OH224462   6.403   3.633  12.133 -0.0733  0.0486  0.0356
 1016TIP3    H124463   6.415   3.539  12.144 -0.4970  0.0080  0.1470
 1016TIP3    H224464   6.491   3.666  12.112 -0.2257 -0.6408 -1.9114
 1017TIP3   OH224465   0.747   1.951  13.769  0.5495  0.2501  0.5336
 1017TIP3    H124466   0.774   2.042  13.758 -1.7691  0.9880  0.3800
 1017TIP3    H224467   0.722   1.945  13.862 -1.8211  0.5963 -0.0117
 1018TIP3   OH224468   1.597   5.373  11.719 -0.4289  0.0812  0.1472
 1018TIP3    H124469   1.576   5.462  11.748 -1.6336 -0.7958  2.2715
 1018TIP3    H224470   1.513   5.327  11.723  0.2449 -1.2519 -0.5520
 1019TIP3   OH224471   3.233   2.710  13.540  0.7067  0.3650 -0.4434
 1019TIP3    H124472   3.325   2.713  13.512  0.5112  0.7083 -1.0663
 1019TIP3    H224473   3.197   2.794  13.512 -0.0127 -0.1049 -0.9587
 1020TIP3   OH224474   6.735   3.504  15.105  0.1672  0.2350 -0.2241
 1020TIP3    H124475   6.792   3.581  15.106 -0.6915  0.8814  0.1147
 1020TIP3    H224476   6.700   3.499  15.194  0.5541 -0.8170 -0.1169
 1021TIP3   OH224477   4.945   3.790   2.119  0.0443 -0.2057 -0.5997
 1021TIP3    H124478   4.958   3.856   2.187 -2.3803  0.0360 -0.2794
 1021TIP3    H224479   4.880   3.828   2.060  1.1479 -0.9433 -2.3719
 1022TIP3   OH224480   5.646   5.375  15.845 -0.3555 -0.0244  0.0486
 1022TIP3    H124481   5.584   5.302  15.851  1.1215 -1.3722 -0.4710
 1022TIP3    H224482   5.625   5.430  15.921 -1.2894 -1.1463  0.6454
 1023TIP3   OH224483   4.238   0.452   4.982 -0.0201  0.2294  0.1221
 1023TIP3    H124484   4.288   0.394   4.924  1.1567  2.0071 -0.7530
 1023TIP3    H224485   4.204   0.520   4.924 -1.4230  0.3990  1.0984
 1024TIP3   OH224486   6.293   4.131  11.583  0.7023  0.0580 -0.5454
 1024TIP3    H124487   6.359   4.180  11.533 -0.0800  2.3104  0.5069
 1024TIP3    H224488   6.236   4.199  11.621 -1.9924 -1.7507 -1.0586
 1025TIP3   OH224489   5.266   0.597  13.207  0.1571 -0.3228 -0.4079
 1025TIP3    H124490   5.246   0.572  13.298  0.0883 -1.2126 -0.6585
 1025TIP3    H224491   5.277   0.514  13.162  1.9446  0.1182 -0.8393
 1026TIP3   OH224492   6.291   2.967   2.112 -0.1786 -0.1468 -0.0481
 1026TIP3    H124493   6.332   3.052   2.094  0.4188 -0.3459  0.3571
 1026TIP3    H224494   6.197   2.986   2.113 -0.0126  1.3739  4.0809
 1027TIP3   OH224495   4.660   4.353  15.042  0.2999  0.2639 -0.0146
 1027TIP3    H124496   4.645   4.336  14.950  0.2297  0.0710  0.0330
 1027TIP3    H224497   4.747   4.318  15.059 -0.3817 -1.2917  0.3962
 1028TIP3   OH224498   2.563   5.940  13.338 -0.1051 -0.1767  0.0692
 1028TIP3    H124499   2.585   5.928  13.246 -0.9834  0.7705 -0.2883
 1028TIP3    H224500   2.545   5.851  13.370 -0.7908 -0.4224 -0.9427
 1029TIP3   OH224501   3.742   2.162  11.528  0.5969 -0.5537 -0.4323
 1029TIP3    H124502   3.806   2.232  11.542 -0.4777  0.2571  0.6217
 1029TIP3    H224503   3.662   2.207  11.503 -0.2410 -1.3483  0.6725
 1030TIP3   OH224504   4.142   0.423  13.574 -0.2381  0.2588 -0.4890
 1030TIP3    H124505   4.233   0.398  13.557 -0.5469  1.0443 -4.1493
 1030TIP3    H224506   4.091   0.346  13.550 -0.6438  0.2774  0.2777
 1031TIP3   OH224507   2.775   0.274  16.721 -0.2729  0.6008  0.4656
 1031TIP3    H124508   2.786   0.270  16.626 -1.6069 -1.8574  0.3445
 1031TIP3    H224509   2.865   0.279  16.755  0.3915 -1.2653 -0.8618
 1032TIP3   OH224510   1.032   2.985   5.258  0.2091  0.7362  0.1049
 1032TIP3    H124511   1.070   3.052   5.314  1.6232  1.2878 -1.4432
 1032TIP3    H224512   0.969   3.032   5.203 -2.3844 -0.0512  2.1624
 1033TIP3   OH224513   3.365   5.022  16.878 -0.3274 -0.5180  0.3982
 1033TIP3    H124514   3.367   5.075  16.958  2.4103 -0.7184  0.5398
 1033TIP3    H224515   3.305   4.950  16.899 -2.7593  1.4807  0.8054
 1034TIP3   OH224516   0.350   6.755   6.025  0.8486 -1.0588 -0.2734
 1034TIP3    H124517   0.419   6.820   6.040 -0.9161  1.1573 -1.1778
 1034TIP3    H224518   0.373   6.682   6.082  2.5539  0.6474  1.3683
 1035TIP3   OH224519   0.316   1.622  13.974  0.0689  0.1486 -0.2479
 1035TIP3    H124520   0.339   1.672  13.896  0.4093  0.5670  0.1148
 1035TIP3    H224521   0.288   1.688  14.037 -0.8060 -0.2388 -0.2207
 1036TIP3   OH224522   0.805   0.538  15.770 -0.3099 -0.3441  0.1080
 1036TIP3    H124523   0.728   0.501  15.727 -0.9501  0.3663  0.6269
 1036TIP3    H224524   0.792   0.520  15.863 -1.7712  3.0504  0.6883
 1037TIP3   OH224525   4.177   6.157  13.589 -0.1286  0.1283  0.8351
 1037TIP3    H124526   4.269   6.169  13.614 -0.0768  1.1837  0.1917
 1037TIP3    H224527   4.130   6.149  13.673  0.6452 -1.3936  1.1599
 1038TIP3   OH224528   2.364   0.640  16.871  0.5072 -0.2959  1.1596
 1038TIP3    H124529   2.454   0.626  16.843 -0.1104 -0.3295 -1.0167
 1038TIP3    H224530   2.363   0.729  16.905  1.0901  0.2076 -0.0870
 1039TIP3   OH224531   1.752   0.762   0.634  0.3967  0.4995 -0.9786
 1039TIP3    H124532   1.695   0.834   0.661 -1.6233 -1.2162 -0.3720
 1039TIP3    H224533   1.806   0.799   0.563 -0.2851  2.6690 -0.4483
 1040TIP3   OH224534   3.492   0.598  14.126 -0.0652 -0.0324  0.8963
 1040TIP3    H124535   3.530   0.560  14.046 -1.5900 -0.3047  0.2743
 1040TIP3    H224536   3.477   0.522  14.183  0.0447  0.0399  1.0208
 1041TIP3   OH224537   2.750   2.957   1.695 -0.0311 -0.2312 -0.2256
 1041TIP3    H124538   2.754   2.924   1.784  1.6363  1.0368  0.2244
 1041TIP3    H224539   2.781   2.884   1.641  1.5245 -0.1706  0.5295
 1042TIP3   OH224540   6.657   5.649  13.030 -0.0195  0.2784 -0.1610
 1042TIP3    H124541   6.732   5.592  13.048 -0.3357  0.5388  2.5162
 1042TIP3    H224542   6.682   5.733  13.068 -0.8767  0.9770 -1.0976
 1043TIP3   OH224543   4.532   1.978  15.368  0.1281  0.2179  0.3829
 1043TIP3    H124544   4.625   1.966  15.347  0.0824  0.9604 -0.2799
 1043TIP3    H224545   4.487   1.964  15.285 -0.1767  1.8305  0.2526
 1044TIP3   OH224546   3.495   3.448   0.007  0.0904  0.3623 -0.8750
 1044TIP3    H124547   3.562   3.512  -0.017 -0.0576 -0.2086 -3.0456
 1044TIP3    H224548   3.543   3.367   0.022 -0.0403  0.0021 -2.2376
 1045TIP3   OH224549   2.553   5.693   5.576  0.0633 -0.0158 -0.3167
 1045TIP3    H124550   2.467   5.652   5.563  0.9769 -2.2838  0.2871
 1045TIP3    H224551   2.570   5.683   5.670 -0.4226  3.5620  0.3094
 1046TIP3   OH224552   4.473   5.490  14.875  0.4470  0.0669 -0.0889
 1046TIP3    H124553   4.472   5.394  14.875  0.9834  0.0270  1.3305
 1046TIP3    H224554   4.386   5.515  14.847  0.6119 -0.8069 -1.4827
 1047TIP3   OH224555   2.870   3.155  16.977  0.1764  0.2591 -0.1592
 1047TIP3    H124556   2.790   3.103  16.980  1.4879 -1.9152 -0.6987
 1047TIP3    H224557   2.876   3.196  17.064 -1.5940  0.6612 -0.1940
 1048TIP3   OH224558   3.222   0.172   0.253  0.0560 -0.2283 -0.5021
 1048TIP3    H124559   3.288   0.116   0.293 -0.4816 -0.9153 -0.5582
 1048TIP3    H224560   3.216   0.139   0.163 -1.4667 -1.2092 -0.0732
 1049TIP3   OH224561   5.828   1.320  10.510  0.0799 -0.6367 -0.0384
 1049TIP3    H124562   5.755   1.266  10.478 -0.2810 -0.5333  0.5931
 1049TIP3    H224563   5.850   1.377  10.436  1.7717 -2.9381 -1.4315
 1050TIP3   OH224564   3.530   4.416  15.568 -0.0540 -0.0617  0.1651
 1050TIP3    H124565   3.551   4.371  15.486 -0.0101 -0.3684  0.3405
 1050TIP3    H224566   3.610   4.412  15.619 -0.1588 -0.1056  0.3286
 1051TIP3   OH224567   1.328   6.640   0.755 -0.0462 -0.2331 -0.5426
 1051TIP3    H124568   1.394   6.571   0.753 -0.2228 -0.5068  1.3633
 1051TIP3    H224569   1.356   6.702   0.689  0.8019 -1.5139 -1.4298
 1052TIP3   OH224570   5.919   5.969  12.511 -0.5662 -0.1987 -0.2333
 1052TIP3    H124571   5.858   5.977  12.584  0.6680  0.2858  0.7991
 1052TIP3    H224572   5.905   6.048  12.459 -1.0677 -0.2758 -0.2202
 1053TIP3   OH224573   2.921   2.477  14.541  0.0160  0.1363 -0.3171
 1053TIP3    H124574   2.900   2.553  14.596  0.8079  1.0359 -1.2126
 1053TIP3    H224575   2.898   2.401  14.595  2.0573  0.9227  1.8408
 1054TIP3   OH224576   3.416   6.195  13.989  0.0943  0.2050  0.0933
 1054TIP3    H124577   3.388   6.245  14.066  1.1287 -1.0468  1.3285
 1054TIP3    H224578   3.334   6.169  13.947 -0.4860  1.1270  0.6141
 1055TIP3   OH224579   6.240   4.167  16.912 -0.2698  0.2775  0.5956
 1055TIP3    H124580   6.157   4.170  16.961 -1.3011  0.0241 -1.0829
 1055TIP3    H224581   6.220   4.116  16.834  2.3428 -2.6632  1.6660
 1056TIP3   OH224582   4.518   5.200  12.466 -0.4326  0.1943 -0.0487
 1056TIP3    H124583   4.490   5.126  12.412  0.7028 -0.2959  0.0136
 1056TIP3    H224584   4.439   5.252  12.477 -1.0470 -0.5314 -0.8532
 1057TIP3   OH224585   6.002   1.706   2.855  0.3587  0.9768 -0.4885
 1057TIP3    H124586   5.959   1.667   2.779 -1.0427  1.0039  0.2501
 1057TIP3    H224587   5.937   1.766   2.891  0.0719 -0.6650  2.0109
 1058TIP3   OH224588   6.042   2.695   5.488 -0.3005  0.4546  0.6242
 1058TIP3    H124589   5.985   2.765   5.518 -0.5653  0.4511  0.1397
 1058TIP3    H224590   6.010   2.674   5.400  0.5844  0.6208  0.2470
 1059TIP3   OH224591   3.707   2.494   1.001  0.3599  0.0009 -0.5222
 1059TIP3    H124592   3.618   2.517   1.029  0.1316 -1.6753  0.2420
 1059TIP3    H224593   3.728   2.558   0.934 -0.4078  2.0991  1.1165
 1060TIP3   OH224594   6.266   2.205   1.899 -0.1625 -0.2962 -0.2118
 1060TIP3    H124595   6.176   2.179   1.919 -0.6645  1.1971 -0.4267
 1060TIP3    H224596   6.276   2.188   1.806 -0.3875  0.0047 -0.2910
 1061TIP3   OH224597   4.751   1.375  12.521 -0.1076 -0.1250 -0.3261
 1061TIP3    H124598   4.700   1.369  12.602  0.1360  1.5803  0.0098
 1061TIP3    H224599   4.809   1.299  12.523 -1.0339 -0.8294  0.4347
 1062TIP3   OH224600   1.892   0.734  12.532 -0.0751  0.1400 -0.3677
 1062TIP3    H124601   1.967   0.676  12.548 -0.0314  0.3584  0.2870
 1062TIP3    H224602   1.818   0.674  12.519 -0.1131 -0.0876  0.7120
 1063TIP3   OH224603   6.255   2.550  14.168  0.1318  0.8600  0.8395
 1063TIP3    H124604   6.339   2.514  14.199  1.1047  3.0368  0.9172
 1063TIP3    H224605   6.273   2.576  14.077 -0.6054  0.8977  0.7047
 1064TIP3   OH224606   6.220   3.994   4.550  0.9467 -0.1666  0.4685
 1064TIP3    H124607   6.187   4.011   4.638 -0.5284  1.0456 -0.2868
 1064TIP3    H224608   6.143   3.969   4.499  1.5592  0.3862 -0.7814
 1065TIP3   OH224609   6.756   0.301   0.102  0.0614  0.4556 -0.8119
 1065TIP3    H124610   6.789   0.351   0.177 -0.1639  0.5689 -0.7861
 1065TIP3    H224611   6.811   0.328   0.028 -0.5260  1.2862 -0.9515
 1066TIP3   OH224612   2.929   6.197  11.146  0.3246 -0.3612  0.5178
 1066TIP3    H124613   2.840   6.219  11.175 -0.3904 -1.3245 -0.8552
 1066TIP3    H224614   2.985   6.256  11.196 -1.1288  0.6899  0.9829
 1067TIP3   OH224615   1.816   2.023   1.783  0.5674  0.7379 -0.2400
 1067TIP3    H124616   1.787   2.040   1.693 -0.6932 -0.1280 -0.0217
 1067TIP3    H224617   1.894   2.077   1.793  1.4161 -0.0251 -2.2424
 1068TIP3   OH224618   6.312   3.271   4.202 -0.4265 -0.8280 -0.3887
 1068TIP3    H124619   6.397   3.303   4.231 -0.1756 -1.1131 -0.8019
 1068TIP3    H224620   6.259   3.271   4.282  0.6167 -2.7854  0.3951
 1069TIP3   OH224621   3.881   5.377   1.923  0.0591  0.3245 -0.0160
 1069TIP3    H124622   3.975   5.372   1.942 -0.2629 -1.7773  1.3304
 1069TIP3    H224623   3.841   5.409   2.004 -0.3976  1.6214 -0.7165
 1070TIP3   OH224624   5.237   5.374   5.344 -0.5321  0.5423 -0.4741
 1070TIP3    H124625   5.229   5.326   5.426  3.9484  1.0495  0.5012
 1070TIP3    H224626   5.250   5.465   5.370  2.2618  0.5369 -1.5152
 1071TIP3   OH224627   5.999   4.904   1.771  0.0354  0.2444  0.3778
 1071TIP3    H124628   6.025   4.932   1.859  0.8776  2.4658 -0.5059
 1071TIP3    H224629   5.903   4.910   1.771 -0.1004 -1.4545  1.6328
 1072TIP3   OH224630   2.351   2.525   4.034 -0.2319  0.3224 -0.1586
 1072TIP3    H124631   2.298   2.540   4.112  0.4950  0.2794  0.3522
 1072TIP3    H224632   2.321   2.440   4.001 -0.5432  0.3423  0.0657
 1073TIP3   OH224633   0.266   5.734  15.519  0.2758  0.1708  0.7052
 1073TIP3    H124634   0.182   5.706  15.483  0.1050  0.7069  0.6705
 1073TIP3    H224635   0.245   5.767  15.606  0.9887 -3.1564  2.2932
 1074TIP3   OH224636   2.553   5.396  14.736 -0.3230 -0.3556 -0.3528
 1074TIP3    H124637   2.475   5.385  14.680 -0.2620  0.5587 -0.6235
 1074TIP3    H224638   2.626   5.386  14.676 -0.2532  0.3572 -0.3919
 1075TIP3   OH224639   0.947   3.319   5.197  0.1260  0.0352 -0.1951
 1075TIP3    H124640   0.908   3.264   5.130  0.9470 -1.4428  0.4831
 1075TIP3    H224641   1.039   3.325   5.173  0.0612  1.0815 -0.2214
 1076TIP3   OH224642   0.027   4.368   4.225 -0.7820  0.1437 -0.0171
 1076TIP3    H124643   0.075   4.451   4.235  0.0397 -0.3464  0.2495
 1076TIP3    H224644  -0.050   4.391   4.174 -0.0728  0.8989 -0.7806
 1077TIP3   OH224645   1.700   0.768  12.022 -0.1164 -0.3790  0.5490
 1077TIP3    H124646   1.747   0.688  12.044  1.8459  0.7860  0.8075
 1077TIP3    H224647   1.617   0.761  12.070  0.4703 -1.7589  1.4165
 1078TIP3   OH224648   5.769   2.893   1.173 -0.0422 -0.4595  0.1455
 1078TIP3    H124649   5.801   2.846   1.096  0.4113  0.4334 -0.2407
 1078TIP3    H224650   5.832   2.965   1.183 -1.9516  1.4295 -0.6863
 1079TIP3   OH224651   5.277   6.749  14.831  0.2391  0.0973 -0.4217
 1079TIP3    H124652   5.259   6.818  14.895 -2.6574 -0.7729 -0.1476
 1079TIP3    H224653   5.342   6.693  14.873  0.2821  0.9297  0.6549
 1080TIP3   OH224654   4.739   0.185  16.066 -0.2709 -0.2552  0.0733
 1080TIP3    H124655   4.782   0.270  16.078 -0.5733 -0.0446 -0.3062
 1080TIP3    H224656   4.747   0.142  16.151 -0.7273  0.4410  0.4773
 1081TIP3   OH224657   2.570   6.084   2.324 -0.6678 -0.6430 -0.2364
 1081TIP3    H124658   2.598   6.019   2.388  1.8907 -0.1697 -0.7486
 1081TIP3    H224659   2.624   6.065   2.247 -0.9985  1.0960 -0.9283
 1082TIP3   OH224660   1.966   4.274   2.195  0.3657 -0.1246  0.0908
 1082TIP3    H124661   1.900   4.256   2.262  0.4019  0.5204  0.3006
 1082TIP3    H224662   1.952   4.365   2.171 -1.9938 -1.2029 -3.3689
 1083TIP3   OH224663   5.761   6.570   2.037 -0.4224  0.1060  0.9641
 1083TIP3    H124664   5.720   6.515   2.104 -2.4760  1.1846  0.6671
 1083TIP3    H224665   5.698   6.641   2.022  0.1914  0.1607 -1.7772
 1084TIP3   OH224666   0.213   4.249  11.842 -0.5520 -0.1387 -0.3948
 1084TIP3    H124667   0.219   4.173  11.785 -0.9752 -0.2846 -0.2531
 1084TIP3    H224668   0.226   4.324  11.784 -0.7755 -0.2931 -0.6479
 1085TIP3   OH224669   1.843   2.042  16.218  0.4372 -0.2845  0.1214
 1085TIP3    H124670   1.906   1.970  16.218  2.6361  1.4700 -2.1315
 1085TIP3    H224671   1.771   2.010  16.164  0.7777 -1.2595  0.2178
 1086TIP3   OH224672   4.342   0.404  17.145  0.0629  0.3512 -0.8495
 1086TIP3    H124673   4.339   0.369  17.234 -0.9981 -0.0844 -1.0378
 1086TIP3    H224674   4.381   0.334  17.092 -0.1548  0.2519 -0.8794
 1087TIP3   OH224675   5.582   4.128  17.252 -0.2247  0.6059  0.2131
 1087TIP3    H124676   5.629   4.048  17.230 -2.4351 -1.1583  1.5361
 1087TIP3    H224677   5.632   4.167  17.323  0.4393 -0.0182  0.0931
 1088TIP3   OH224678   3.717   2.187  13.344  0.5153  0.1121 -0.1968
 1088TIP3    H124679   3.783   2.192  13.275 -0.3345 -2.8406 -1.3940
 1088TIP3    H224680   3.743   2.111  13.396 -1.3980 -0.5780 -0.1763
 1089TIP3   OH224681   3.357   6.438   1.567 -0.1655 -0.2807 -0.2854
 1089TIP3    H124682   3.442   6.477   1.546 -0.8686  1.3298 -0.2429
 1089TIP3    H224683   3.314   6.428   1.482 -0.3824  0.0080 -0.2128
 1090TIP3   OH224684   3.742   3.343   1.643 -0.2996 -0.2654  0.0682
 1090TIP3    H124685   3.758   3.252   1.619  1.1626 -0.1877  0.6593
 1090TIP3    H224686   3.744   3.343   1.739 -1.3241  0.2278  0.1063
 1091TIP3   OH224687   6.602   4.880   1.788 -0.5866 -0.4614  0.5530
 1091TIP3    H124688   6.585   4.859   1.696  1.1102  0.2012  0.0512
 1091TIP3    H224689   6.659   4.956   1.785 -0.8172 -0.1911  2.1852
 1092TIP3   OH224690   0.906   6.061   5.822  0.3429  0.3077 -0.3158
 1092TIP3    H124691   0.854   6.006   5.881  1.8319 -0.2073  0.5878
 1092TIP3    H224692   0.867   6.148   5.829  0.3277  0.1926  1.2379
 1093TIP3   OH224693   1.139   4.184   6.266 -0.0767 -0.1483  0.6396
 1093TIP3    H124694   1.169   4.148   6.182 -2.2931  0.4500 -0.4944
 1093TIP3    H224695   1.164   4.276   6.264 -1.9356  0.3818 -0.3620
 1094TIP3   OH224696   4.117   3.333   4.872  0.2941 -0.0792  0.2423
 1094TIP3    H124697   4.143   3.425   4.877 -1.7056  0.5088  0.7326
 1094TIP3    H224698   4.140   3.296   4.957  1.0476 -0.0469  0.0631
 1095TIP3   OH224699   6.248   2.536   4.696 -0.1404  0.0901  0.3508
 1095TIP3    H124700   6.203   2.473   4.640 -0.4937  0.7811 -0.1655
 1095TIP3    H224701   6.190   2.613   4.697  1.4631  1.4123 -1.1825
 1096TIP3   OH224702   4.580   2.667   5.464  0.0494 -0.1307  0.6349
 1096TIP3    H124703   4.573   2.755   5.502 -0.0024 -0.3032  1.0319
 1096TIP3    H224704   4.545   2.676   5.376  0.2685  0.3024  0.5898
 1097TIP3   OH224705   2.938   0.850   1.983 -0.4216 -0.3059 -0.2078
 1097TIP3    H124706   2.873   0.840   1.913 -0.0815 -3.8526 -0.2210
 1097TIP3    H224707   2.895   0.814   2.061  0.9995 -1.5546  0.0611
 1098TIP3   OH224708   3.897   0.958   0.305 -0.2621  0.1306  0.4829
 1098TIP3    H124709   3.868   0.900   0.375 -0.2516  0.1590  0.5105
 1098TIP3    H224710   3.941   0.901   0.243  4.4867  0.6895  2.9168
 1099TIP3   OH224711   0.098   0.430  12.194 -0.0066  0.0218  0.7108
 1099TIP3    H124712   0.175   0.383  12.225 -0.2733  0.0691  1.4690
 1099TIP3    H224713   0.033   0.417  12.263 -0.8418 -0.4361 -0.1518
 1100TIP3   OH224714   1.142   5.582   3.378  0.0519 -0.5601 -0.1416
 1100TIP3    H124715   1.236   5.594   3.393  0.1937 -0.8615 -0.7604
 1100TIP3    H224716   1.101   5.644   3.439  0.6744  0.5024 -0.7552
 1101TIP3   OH224717   4.886   1.826   0.676  0.2217 -0.6984  0.1557
 1101TIP3    H124718   4.901   1.739   0.712  1.4284 -0.8056 -0.5658
 1101TIP3    H224719   4.834   1.811   0.597  1.3089 -0.8780 -0.5416
 1102TIP3   OH224720   1.482   1.312   5.571 -0.0832  0.5409 -0.3881
 1102TIP3    H124721   1.445   1.264   5.645 -0.5769  0.7870 -0.4678
 1102TIP3    H224722   1.541   1.376   5.610  0.1111  0.2724 -0.2430
 1103TIP3   OH224723   2.682   5.219  13.973 -0.0438  0.0576 -0.4955
 1103TIP3    H124724   2.630   5.164  14.032  0.4657 -1.2714 -1.2448
 1103TIP3    H224725   2.623   5.290  13.948  0.0754  1.3443  2.4958
 1104TIP3   OH224726   5.349   4.824   0.327 -0.5160  0.8292 -0.4023
 1104TIP3    H124727   5.363   4.801   0.419 -0.3594  2.9086  0.1411
 1104TIP3    H224728   5.259   4.856   0.324 -0.4850  0.8803 -0.9621
 1105TIP3   OH224729   0.770   1.066  11.727 -0.0260  0.2040 -0.3963
 1105TIP3    H124730   0.714   1.036  11.655 -0.8432 -0.3513  0.4465
 1105TIP3    H224731   0.833   1.125  11.686 -1.2837  0.9060 -1.3574
 1106TIP3   OH224732   2.179   0.176   2.846 -0.3174  0.0418  0.8589
 1106TIP3    H124733   2.181   0.272   2.855 -1.9409  0.1157  0.6898
 1106TIP3    H224734   2.121   0.147   2.916 -1.7329 -0.6002 -0.5406
 1107TIP3   OH224735   6.149   1.798  14.806  0.2601 -0.1714  0.1999
 1107TIP3    H124736   6.097   1.754  14.874 -0.5683  0.2109 -0.1826
 1107TIP3    H224737   6.234   1.813  14.848  0.4497 -1.7825  0.4694
 1108TIP3   OH224738   5.707   0.748  11.315  0.1540  0.6219  0.4721
 1108TIP3    H124739   5.687   0.717  11.403 -0.6065 -0.9288 -0.2087
 1108TIP3    H224740   5.622   0.773  11.279  0.6368  2.7227  0.6712
 1109TIP3   OH224741   1.261   6.032  11.706 -0.2828 -0.2209  0.2253
 1109TIP3    H124742   1.355   6.020  11.718 -0.5437 -1.5073  1.2060
 1109TIP3    H224743   1.243   6.120  11.741  0.4828 -0.1444  0.4475
 1110TIP3   OH224744   3.749   5.174  12.900 -0.2726 -0.2433 -0.1497
 1110TIP3    H124745   3.756   5.083  12.871 -0.2017 -0.2178 -0.2124
 1110TIP3    H224746   3.695   5.216  12.834 -1.2162 -0.4905  0.4442
 1111TIP3   OH224747   1.383   4.246  14.738  0.5700  0.0718 -0.2858
 1111TIP3    H124748   1.335   4.313  14.689  0.5631 -0.2110 -0.6686
 1111TIP3    H224749   1.340   4.164  14.715  1.0718 -0.1567 -0.4335
 1112TIP3   OH224750   5.585   1.172   3.947 -0.1760  0.0957  0.2872
 1112TIP3    H124751   5.668   1.133   3.972  1.6471  2.1080 -2.1397
 1112TIP3    H224752   5.563   1.231   4.019 -0.1946 -1.3417  1.4980
 1113TIP3   OH224753   6.745   1.113  12.910 -0.2110  0.0258 -0.1866
 1113TIP3    H124754   6.769   1.164  12.987  1.0963 -0.1323 -0.4710
 1113TIP3    H224755   6.814   1.047  12.902  0.2823  0.7121 -2.1178
 1114TIP3   OH224756   4.451   6.164   4.475  0.2617  0.0065 -0.4507
 1114TIP3    H124757   4.370   6.139   4.431  0.0538  0.3545 -0.2731
 1114TIP3    H224758   4.460   6.257   4.456  1.2245 -0.2654 -1.4301
 1115TIP3   OH224759   2.390   2.172   1.400  0.4242 -0.7417  0.1782
 1115TIP3    H124760   2.389   2.180   1.304  1.1038  0.0197  0.2257
 1115TIP3    H224761   2.455   2.104   1.417  2.1287  0.7830  0.1650
 1116TIP3   OH224762   4.206   2.368   5.417  0.0655 -0.5514  0.0173
 1116TIP3    H124763   4.238   2.299   5.359  1.7288  0.5671 -0.4672
 1116TIP3    H224764   4.285   2.401   5.461 -0.7715  0.6162  0.6933
 1117TIP3   OH224765   1.040   2.862  15.261  0.2825 -0.1046 -0.2265
 1117TIP3    H124766   0.989   2.784  15.281  1.2964 -0.3429  1.7082
 1117TIP3    H224767   0.985   2.935  15.291  0.7226 -0.3153  1.1624
 1118TIP3   OH224768   5.682   2.932  11.729 -0.2655 -0.4672 -0.2983
 1118TIP3    H124769   5.704   2.851  11.775 -0.5092 -0.9305 -0.9717
 1118TIP3    H224770   5.629   2.982  11.791  1.1270 -0.1338  0.6867
 1119TIP3   OH224771   3.904   1.099   3.216  0.0865 -0.3468  0.4711
 1119TIP3    H124772   3.827   1.134   3.260  0.0607 -0.1554  0.2715
 1119TIP3    H224773   3.869   1.030   3.159 -0.0269  0.2412 -0.1778
 1120TIP3   OH224774   4.638   3.096  15.156  0.0821  0.5971  0.4681
 1120TIP3    H124775   4.640   3.016  15.104  0.7130  1.1120 -0.3280
 1120TIP3    H224776   4.724   3.136  15.142  0.3692  0.6275  2.1155
 1121TIP3   OH224777   2.379   4.162  15.297  0.1614 -0.5582 -0.3206
 1121TIP3    H124778   2.296   4.172  15.250  0.8197  0.0596 -1.4017
 1121TIP3    H224779   2.415   4.080  15.266  0.7867  0.0452 -1.2278
 1122TIP3   OH224780   0.657   1.274   2.276 -0.2075  0.5405  0.6907
 1122TIP3    H124781   0.626   1.251   2.364  0.3999  0.9079  1.0056
 1122TIP3    H224782   0.734   1.329   2.291  0.5033 -0.2168 -0.0730
 1123TIP3   OH224783   1.314   3.110  13.381  0.0874  0.3069  0.4127
 1123TIP3    H124784   1.249   3.179  13.370  1.0763  1.1992 -0.0807
 1123TIP3    H224785   1.299   3.051  13.308 -1.9853 -1.1081  1.8464
 1124TIP3   OH224786   0.135   1.976   3.012  0.2299 -0.2236 -0.4533
 1124TIP3    H124787   0.069   2.013   2.954 -0.8077  1.2767  1.5620
 1124TIP3    H224788   0.203   2.043   3.017  0.1236 -0.1654  0.3389
 1125TIP3   OH224789   4.653   5.935  10.876  0.1898  0.0911  0.1888
 1125TIP3    H124790   4.749   5.936  10.871  0.1424  0.9703 -0.8010
 1125TIP3    H224791   4.628   5.856  10.829  0.4069  0.1358 -0.0048
 1126TIP3   OH224792   1.322   1.579  13.122  0.1379  0.2169  0.6508
 1126TIP3    H124793   1.249   1.594  13.183 -0.1684 -1.0111  0.6153
 1126TIP3    H224794   1.333   1.484  13.122  1.2157  0.3358  0.0278
 1127TIP3   OH224795   1.392   3.030  11.331  0.4228 -0.0290 -0.5476
 1127TIP3    H124796   1.405   3.123  11.346 -0.2155  0.2356 -1.5273
 1127TIP3    H224797   1.358   2.997  11.414 -1.2833  1.0247 -0.7773
 1128TIP3   OH224798   2.932   6.050   2.994  0.2404 -0.5865 -0.5135
 1128TIP3    H124799   2.863   6.025   3.056  0.5722 -1.7576 -0.5845
 1128TIP3    H224800   3.011   6.057   3.047  0.1665  0.2673 -0.5112
 1129TIP3   OH224801   6.343   1.291   3.439 -0.0714  0.0684 -0.4463
 1129TIP3    H124802   6.393   1.245   3.371  0.9764  0.4546  0.0420
 1129TIP3    H224803   6.257   1.248   3.439  0.4553 -1.0175 -0.8927
 1130TIP3   OH224804   4.752   0.498   5.513  0.4984 -0.1605  0.8860
 1130TIP3    H124805   4.683   0.501   5.579  0.7117  1.8389  1.0849
 1130TIP3    H224806   4.741   0.579   5.463  1.1256 -1.0370 -0.7402
 1131TIP3   OH224807   1.105   3.295   0.089  0.5354  0.3078  0.0132
 1131TIP3    H124808   1.167   3.222   0.088  0.3492  0.1422  0.4180
 1131TIP3    H224809   1.142   3.357   0.152 -1.0065 -0.9564  2.3366
 1132TIP3   OH224810   0.448   2.823   4.124  0.3016 -0.3058  0.0654
 1132TIP3    H124811   0.436   2.895   4.062 -0.5694 -0.7334 -0.2817
 1132TIP3    H224812   0.425   2.860   4.209 -0.7593 -0.3303 -0.1999
 1133TIP3   OH224813   0.222   0.618   0.858 -0.2068  0.0203  0.0435
 1133TIP3    H124814   0.252   0.629   0.768  0.7657  1.7946  0.5278
 1133TIP3    H224815   0.256   0.533   0.885 -0.6357 -0.6007 -1.2780
 1134TIP3   OH224816   0.395   2.258   2.429  0.0510 -0.1244  0.3311
 1134TIP3    H124817   0.304   2.287   2.419  0.5274  1.7956  0.9958
 1134TIP3    H224818   0.413   2.270   2.523  2.4434  4.6511 -0.3968
 1135TIP3   OH224819   0.189   2.032  11.562  0.2236  0.3693  0.1802
 1135TIP3    H124820   0.119   2.070  11.616  0.8476 -0.2188  1.4589
 1135TIP3    H224821   0.221   1.957  11.614  2.0919  0.8839 -0.1500
 1136TIP3   OH224822   4.468   2.132   4.838 -0.0279  0.0056  0.0519
 1136TIP3    H124823   4.404   2.066   4.814 -0.0861  0.5745 -1.4503
 1136TIP3    H224824   4.504   2.163   4.755  2.1096 -0.1952  0.8372
 1137TIP3   OH224825   3.471   4.132   5.306 -0.0120 -0.9929  0.4789
 1137TIP3    H124826   3.551   4.159   5.262 -0.2624  0.4782  0.8729
 1137TIP3    H224827   3.469   4.183   5.387 -1.7502 -0.3719  0.0928
 1138TIP3   OH224828   4.999   2.965  14.493  0.1723  0.1207  0.4090
 1138TIP3    H124829   5.050   2.884  14.494  0.3590  0.1821 -1.1120
 1138TIP3    H224830   4.942   2.956  14.417 -1.6115  0.3681  1.6537
 1139TIP3   OH224831   0.513   2.736  11.926 -0.2658  0.4378 -0.0731
 1139TIP3    H124832   0.418   2.739  11.914 -0.1172  1.4261 -1.1069
 1139TIP3    H224833   0.545   2.817  11.888  1.1735 -0.7316 -1.5210
 1140TIP3   OH224834   2.423   3.727   4.942 -0.3922  0.2624 -0.7417
 1140TIP3    H124835   2.464   3.770   4.867 -1.1685  1.0211 -0.7453
 1140TIP3    H224836   2.433   3.633   4.924  3.2449  0.3085  0.2976
 1141TIP3   OH224837   0.932   4.496  15.506 -0.5470 -0.1880  0.1900
 1141TIP3    H124838   0.974   4.473  15.423  0.1868 -0.2455  0.5652
 1141TIP3    H224839   0.851   4.446  15.508 -1.2654  0.8547 -1.1195
 1142TIP3   OH224840   5.591   2.671   2.485  0.3880 -0.0409  0.3429
 1142TIP3    H124841   5.670   2.708   2.444  0.9764 -1.5925  0.0054
 1142TIP3    H224842   5.601   2.691   2.578  1.7797 -1.1781  0.4733
 1143TIP3   OH224843   6.552   0.439   5.200 -0.5583  0.3933 -0.0444
 1143TIP3    H124844   6.636   0.459   5.242  0.1931 -0.5125 -1.0747
 1143TIP3    H224845   6.533   0.348   5.225 -2.1471  1.1069  1.6304
 1144TIP3   OH224846   0.958   3.368  12.722 -0.1123  0.1943 -0.8149
 1144TIP3    H124847   0.941   3.390  12.630  1.3017 -0.9834 -1.3939
 1144TIP3    H224848   1.047   3.399  12.738 -0.3210  0.3152  0.1454
 1145TIP3   OH224849   2.539   6.375  11.949  0.0871  0.6531 -0.0515
 1145TIP3    H124850   2.539   6.450  12.008 -1.3077  0.4676  0.2256
 1145TIP3    H224851   2.525   6.299  12.005 -0.4213  0.3919 -0.5112
 1146TIP3   OH224852   3.235   6.141   4.124  0.4844 -0.8001  0.5429
 1146TIP3    H124853   3.160   6.148   4.183 -0.1055  0.1003 -0.2855
 1146TIP3    H224854   3.241   6.048   4.104 -2.4260 -0.6572 -1.8417
 1147TIP3   OH224855   5.563   0.392  12.402  0.6588  0.1926 -0.2392
 1147TIP3    H124856   5.570   0.464  12.338  1.9417 -0.7612 -1.2235
 1147TIP3    H224857   5.645   0.343  12.391 -0.4326 -1.7417  0.0122
 1148TIP3   OH224858   5.487   6.564  16.550  0.4253 -0.7138 -0.1092
 1148TIP3    H124859   5.453   6.486  16.594  1.0035 -1.4939 -0.9963
 1148TIP3    H224860   5.567   6.534  16.507 -0.6054 -0.2607 -2.4812
 1149TIP3   OH224861   2.590   0.527  16.254 -0.1620  0.2780  0.0369
 1149TIP3    H124862   2.550   0.471  16.320 -0.0168 -0.3040 -0.3642
 1149TIP3    H224863   2.632   0.597  16.304  1.3292 -1.0140  0.6853
 1150TIP3   OH224864   0.701   4.123   3.995 -0.5660  0.1210  0.5559
 1150TIP3    H124865   0.714   4.196   4.057 -0.3103  0.0224  0.6230
 1150TIP3    H224866   0.635   4.068   4.036 -1.0511  0.5184  0.3198
 1151TIP3   OH224867   1.469   3.620  16.228  0.6755  0.2887 -0.1705
 1151TIP3    H124868   1.407   3.602  16.158  0.2564 -0.7711  0.4485
 1151TIP3    H224869   1.544   3.662  16.185  0.3332 -0.1527 -1.2076
 1152TIP3   OH224870   4.120   1.188   4.211 -0.0259 -0.5687  0.1541
 1152TIP3    H124871   4.173   1.172   4.289 -0.3290 -0.2614  0.4243
 1152TIP3    H224872   4.183   1.216   4.144  0.0074  1.1858  0.8689
 1153TIP3   OH224873   4.543   4.251   1.648  0.5310 -0.1620  0.0354
 1153TIP3    H124874   4.593   4.327   1.677  0.1843 -0.7024  2.2669
 1153TIP3    H224875   4.533   4.198   1.727 -0.1554 -2.0089 -1.2310
 1154TIP3   OH224876   5.270   3.116  14.372  0.5255  0.2014 -0.1724
 1154TIP3    H124877   5.230   3.057  14.437 -0.7741  0.3418 -0.8110
 1154TIP3    H224878   5.226   3.094  14.290  2.3819 -0.1940 -1.0937
 1155TIP3   OH224879   6.694   1.384  10.798 -0.0530  0.3232 -0.0555
 1155TIP3    H124880   6.678   1.476  10.775  0.8513  0.4413 -0.2265
 1155TIP3    H224881   6.765   1.387  10.862 -0.8824 -0.1787  0.9218
 1156TIP3   OH224882   2.658   6.043   5.300  0.5454  0.3706 -0.2863
 1156TIP3    H124883   2.734   5.986   5.300  1.3398  1.3777 -1.0079
 1156TIP3    H224884   2.684   6.118   5.354 -0.4743  0.0639  0.6541
 1157TIP3   OH224885   1.061   5.047   3.124  0.1888 -0.2278  0.2415
 1157TIP3    H124886   1.052   5.142   3.124  1.2309 -0.1115  0.9452
 1157TIP3    H224887   1.057   5.023   3.032  1.7198  0.7152 -0.1133
 1158TIP3   OH224888   2.458   1.565  11.097 -0.7200 -0.1213  0.4182
 1158TIP3    H124889   2.536   1.511  11.078 -1.3163 -1.0377  0.5063
 1158TIP3    H224890   2.481   1.652  11.063  0.8835  0.0088  1.6886
 1159TIP3   OH224891   5.001   0.072  11.921  0.0195  0.8221  0.3380
 1159TIP3    H124892   5.086   0.054  11.881  0.5084  0.4749  1.5156
 1159TIP3    H224893   5.008   0.039  12.010 -1.9423 -0.8926 -0.0457
 1160TIP3   OH224894   6.207   0.149   0.108  0.3223  0.4534 -0.5910
 1160TIP3    H124895   6.286   0.185   0.069  0.8356  0.9641  0.8577
 1160TIP3    H224896   6.218   0.054   0.101  1.3999  0.4986  0.1764
 1161TIP3   OH224897   2.203   1.323   6.167 -0.2687  0.3369  0.0477
 1161TIP3    H124898   2.250   1.264   6.226  1.8805  2.6162  0.7673
 1161TIP3    H224899   2.144   1.373   6.223  0.3544  1.1659 -0.0270
 1162TIP3   OH224900   6.640   0.807  10.965  0.3610 -0.0861 -0.1502
 1162TIP3    H124901   6.597   0.763  10.892  0.9286  0.7977 -1.0515
 1162TIP3    H224902   6.592   0.889  10.976  0.6486  0.0573  0.0652
 1163TIP3   OH224903   5.337   0.412   4.853  0.2410 -0.2152  0.8405
 1163TIP3    H124904   5.326   0.490   4.907 -0.2588  0.6226 -0.4187
 1163TIP3    H224905   5.431   0.396   4.851  0.7287  2.2093 -1.3127
 1164TIP3   OH224906   6.184   5.622  13.550  0.1467  0.5664  0.6813
 1164TIP3    H124907   6.128   5.586  13.482 -0.6389 -1.1208  2.1299
 1164TIP3    H224908   6.129   5.687  13.594  0.5238  1.3825 -0.0428
 1165TIP3   OH224909   3.531   4.727   2.297  0.1821 -0.1575 -0.3017
 1165TIP3    H124910   3.479   4.714   2.376  0.4227  0.3478 -0.0542
 1165TIP3    H224911   3.469   4.760   2.232  0.2799  0.9358  0.1408
 1166TIP3   OH224912   5.420   4.275  16.446  0.0936  0.2147 -0.0882
 1166TIP3    H124913   5.348   4.238  16.395  1.6266  0.5317 -2.6601
 1166TIP3    H224914   5.418   4.369  16.427 -0.5765  0.7422  2.2322
 1167TIP3   OH224915   6.747   0.980   0.930 -0.0820  0.0234 -0.3172
 1167TIP3    H124916   6.795   0.954   0.851 -1.4036  0.5964 -1.3644
 1167TIP3    H224917   6.753   0.904   0.988  2.4777  0.2667 -0.1598
 1168TIP3   OH224918   2.828   4.425   4.224 -0.3056  0.0387  0.6044
 1168TIP3    H124919   2.852   4.505   4.177  1.9831 -1.5398 -1.1346
 1168TIP3    H224920   2.739   4.405   4.193  0.4921 -0.0244 -1.9154
 1169TIP3   OH224921   3.098   5.923  15.186 -0.8713 -0.3980  0.0897
 1169TIP3    H124922   3.166   5.857  15.172 -0.2136 -0.1557  1.8237
 1169TIP3    H224923   3.024   5.874  15.221 -1.3276 -0.5537 -1.0660
 1170TIP3   OH224924   4.506   4.648   2.907 -0.0871  0.0243 -0.4163
 1170TIP3    H124925   4.579   4.587   2.919  0.7244  1.1456  0.6284
 1170TIP3    H224926   4.544   4.721   2.859 -0.7790  0.1973 -0.7090
 1171TIP3   OH224927   1.721   2.754  13.175  0.2757  0.0295 -0.1882
 1171TIP3    H124928   1.745   2.731  13.265  0.8499 -2.4604 -0.8863
 1171TIP3    H224929   1.796   2.725  13.123 -0.0833  1.3444 -1.5036
 1172TIP3   OH224930   0.051   2.366  17.186  0.3316  0.3165 -0.1682
 1172TIP3    H124931   0.056   2.411  17.101  0.0628  0.3792 -0.1536
 1172TIP3    H224932   0.066   2.274  17.165  2.7252  0.5971  0.0219
 1173TIP3   OH224933   3.239   3.368   6.033  0.6086  0.0507 -0.1442
 1173TIP3    H124934   3.251   3.300   6.099 -0.4418 -0.2492 -0.2417
 1173TIP3    H224935   3.260   3.324   5.950 -2.2166 -0.9018 -0.4840
 1174TIP3   OH224936   6.037   3.970  16.370  0.6729 -0.5065  0.0170
 1174TIP3    H124937   6.066   4.021  16.294  0.3163 -0.5603 -0.1534
 1174TIP3    H224938   6.022   3.882  16.335 -1.9704  0.0507 -0.4030
 1175TIP3   OH224939   4.080   2.045   5.815 -0.2895  0.9926 -0.0216
 1175TIP3    H124940   4.129   2.117   5.776  1.1506  0.9815  1.6729
 1175TIP3    H224941   4.140   1.971   5.812 -0.7140  0.6087  0.8487
 1176TIP3   OH224942   1.691   3.146  15.641  0.2094  0.3583 -0.4301
 1176TIP3    H124943   1.608   3.148  15.594  0.6049 -1.0191 -1.2472
 1176TIP3    H224944   1.751   3.197  15.586  0.2516  0.1492 -0.5807
 1177TIP3   OH224945   5.291   2.661  10.756 -0.1029 -0.0078  0.0006
 1177TIP3    H124946   5.358   2.592  10.754 -1.4528 -1.3379 -1.3094
 1177TIP3    H224947   5.225   2.628  10.817  0.1542  1.0796  0.9067
 1178TIP3   OH224948   2.333   3.261  11.401 -0.0668  0.3069  0.1417
 1178TIP3    H124949   2.417   3.221  11.375  0.6627  1.4466  0.6758
 1178TIP3    H224950   2.358   3.342  11.445 -1.4925  1.1564 -0.5458
 1179TIP3   OH224951   3.970   2.686   4.295  0.2357  0.0026 -0.3462
 1179TIP3    H124952   4.043   2.718   4.348  0.0009  0.6861 -0.4213
 1179TIP3    H224953   3.993   2.596   4.273  2.4198  1.0031 -2.7268
 1180TIP3   OH224954   0.983   4.502  16.749  0.1486 -1.0795 -0.7911
 1180TIP3    H124955   0.888   4.497  16.756  0.2000 -0.9813  0.2026
 1180TIP3    H224956   1.001   4.593  16.725  0.0592 -0.5396  1.0537
 1181TIP3   OH224957   5.506   0.930  12.643 -0.8489 -0.1300  0.1038
 1181TIP3    H124958   5.427   0.966  12.603  0.3084  2.6283  0.1263
 1181TIP3    H224959   5.514   0.975  12.726  0.1719 -1.2010  0.6136
 1182TIP3   OH224960   6.285   4.961   4.725 -0.0619  0.3305 -0.0876
 1182TIP3    H124961   6.222   4.892   4.705 -1.4122  1.0501  1.4047
 1182TIP3    H224962   6.332   4.929   4.802  0.0545  0.6123 -0.0383
 1183TIP3   OH224963   0.006   0.997  12.479 -0.0612  0.0584 -0.6315
 1183TIP3    H124964  -0.000   0.944  12.559 -1.7667  1.0088 -0.0758
 1183TIP3    H224965   0.099   1.000  12.459  0.4292 -0.0610  1.4300
 1184TIP3   OH224966   5.647   6.270   3.793 -0.0290 -0.3806  0.7201
 1184TIP3    H124967   5.570   6.214   3.780  0.0747 -0.2791 -0.4335
 1184TIP3    H224968   5.612   6.350   3.831 -0.3082 -0.8594  1.4880
 1185TIP3   OH224969   3.368   4.468  12.712  0.0639 -0.4091 -0.1679
 1185TIP3    H124970   3.305   4.399  12.735  0.3682 -0.9130 -0.7965
 1185TIP3    H224971   3.315   4.535  12.669  0.0622 -1.2770 -1.6013
 1186TIP3   OH224972   4.276   2.169   1.152 -0.8029  1.0033  0.3400
 1186TIP3    H124973   4.262   2.151   1.059  1.0734 -1.6546  0.4634
 1186TIP3    H224974   4.370   2.186   1.160 -0.6024 -0.5595  1.9387
 1187TIP3   OH224975   4.204   6.041  11.539 -0.0340  0.0801 -0.2852
 1187TIP3    H124976   4.246   6.126  11.530 -1.6408  0.9087 -0.2806
 1187TIP3    H224977   4.160   6.027  11.456  2.4732 -2.1062 -1.3984
 1188TIP3   OH224978   1.798   5.424  13.560  0.2163 -0.8398  0.4019
 1188TIP3    H124979   1.780   5.331  13.545  0.7734 -1.1325  1.4702
 1188TIP3    H224980   1.714   5.467  13.547  0.1976 -1.3114 -1.3398
 1189TIP3   OH224981   6.347   3.856  16.364  0.0840  0.0936  0.3368
 1189TIP3    H124982   6.311   3.819  16.445 -1.4197  0.7576  0.0092
 1189TIP3    H224983   6.369   3.946  16.386  0.8254 -0.0706  0.3079
 1190TIP3   OH224984   0.852   0.396   3.599  0.6324  0.0661 -0.6692
 1190TIP3    H124985   0.763   0.414   3.569  0.2774  0.0524  0.3159
 1190TIP3    H224986   0.900   0.478   3.584  0.1437  0.4594 -0.1635
 1191TIP3   OH224987   2.913   6.566  16.586  0.4778  0.6015 -0.0707
 1191TIP3    H124988   2.902   6.573  16.681 -0.1793  1.8685 -0.2170
 1191TIP3    H224989   2.852   6.630  16.550  3.2688  2.8354 -1.2124
 1192TIP3   OH224990   3.291   0.062  15.805 -0.0405 -0.0141 -0.1552
 1192TIP3    H124991   3.376   0.074  15.762  0.1001 -1.4278 -0.3276
 1192TIP3    H224992   3.227   0.069  15.734  0.0117  0.0813 -0.1924
 1193TIP3   OH224993   5.007   5.218   5.174 -0.3967  0.0624 -0.3366
 1193TIP3    H124994   5.086   5.173   5.204 -0.6742  1.2045  2.4387
 1193TIP3    H224995   5.040   5.290   5.119  0.2499 -1.2346 -1.7116
 1194TIP3   OH224996   3.241   6.121   0.746  0.2046  0.6584  0.3843
 1194TIP3    H124997   3.164   6.176   0.757 -1.0144 -0.2206 -2.6508
 1194TIP3    H224998   3.313   6.183   0.731 -0.2404  1.4586  1.4297
 1195TIP3   OH224999   5.405   3.239  13.174  0.7457 -0.1679  0.3504
 1195TIP3    H125000   5.311   3.250  13.159  0.9823  1.0583 -0.4134
 1195TIP3    H225001   5.421   3.145  13.165 -0.2603 -0.2777 -0.3913
 1196TIP3   OH225002   3.811   4.043  12.653  1.2660  0.5160 -0.3011
 1196TIP3    H125003   3.906   4.028  12.657  1.0496 -0.9548 -0.2361
 1196TIP3    H225004   3.783   3.997  12.574  0.7543  1.9865 -1.0147
 1197TIP3   OH225005   3.773   1.582  14.871  0.6540 -0.4135 -0.1411
 1197TIP3    H125006   3.689   1.585  14.917  1.2568  1.4321  0.9427
 1197TIP3    H225007   3.759   1.519  14.800 -1.4488 -0.6025  0.3723
 1198TIP3   OH225008   2.900   0.449   2.890 -0.4347  0.2168 -0.3538
 1198TIP3    H125009   2.879   0.375   2.947 -0.7136  1.0963  0.7112
 1198TIP3    H225010   2.981   0.485   2.927 -0.3896  0.5434 -0.7660
 1199TIP3   OH225011   4.846   4.379  16.680 -0.0395  0.6380 -0.5580
 1199TIP3    H125012   4.872   4.464  16.644  0.4138  0.7065 -0.0788
 1199TIP3    H225013   4.764   4.396  16.726  0.5203  1.0078  0.3104
 1200TIP3   OH225014   3.640   6.084   0.933  0.0391  0.0263 -1.1166
 1200TIP3    H125015   3.685   6.168   0.934  0.9174 -0.4408 -0.6258
 1200TIP3    H225016   3.708   6.019   0.949 -1.1395 -0.5291  2.7366
 1201TIP3   OH225017   3.180   4.294  15.100 -0.1621  0.1973 -0.5033
 1201TIP3    H125018   3.224   4.378  15.114 -1.3715  0.6173  1.0354
 1201TIP3    H225019   3.088   4.316  15.087 -0.5376 -0.8726  0.1494
 1202TIP3   OH225020   3.364   1.512  12.961 -0.3454  0.1176 -0.1084
 1202TIP3    H125021   3.441   1.485  13.011  0.4252  1.8995 -0.2268
 1202TIP3    H225022   3.309   1.558  13.024 -1.0498 -0.6479 -0.1533
 1203TIP3   OH225023   6.039   5.001   5.712 -0.6077  0.4592  0.0097
 1203TIP3    H125024   6.060   5.094   5.721  0.1118  0.1572  1.9478
 1203TIP3    H225025   6.100   4.969   5.645  0.8884  0.8981  1.1165
 1204TIP3   OH225026   0.815   5.499  12.268 -0.0395  0.2235 -0.7261
 1204TIP3    H125027   0.850   5.503  12.179 -0.3698  0.7801 -0.8354
 1204TIP3    H225028   0.794   5.590  12.290  0.0022  0.0868 -0.0927
 1205TIP3   OH225029   6.722   1.826  11.590  0.4713  0.0796 -0.1297
 1205TIP3    H125030   6.792   1.822  11.655 -0.4050 -0.1719  0.8182
 1205TIP3    H225031   6.718   1.738  11.553  1.5392  0.4384 -1.1711
 1206TIP3   OH225032   4.602   0.558  13.017 -0.0189  0.3654 -0.2524
 1206TIP3    H125033   4.558   0.599  13.091  0.5037  0.6348 -0.0818
 1206TIP3    H225034   4.690   0.539  13.049 -0.5162 -1.8338  0.0040
 1207TIP3   OH225035   2.094   4.114  12.550 -0.5127  0.2899  0.1229
 1207TIP3    H125036   2.041   4.092  12.474  0.4182  0.7096 -0.6638
 1207TIP3    H225037   2.098   4.210  12.550 -2.0254  0.4103  1.7784
 1208TIP3   OH225038   0.055   1.184  15.708 -0.0069  0.0471 -0.3511
 1208TIP3    H125039  -0.019   1.151  15.657  0.2387 -0.0568 -0.6427
 1208TIP3    H225040   0.054   1.279  15.692 -0.8497  0.2241  0.6685
 1209TIP3   OH225041   0.948   4.827  11.825 -0.3386  0.0078 -0.7380
 1209TIP3    H125042   0.922   4.794  11.739  1.9806  1.6772 -2.1870
 1209TIP3    H225043   0.973   4.918  11.809 -0.1581  0.4672  1.7937
 1210TIP3   OH225044   5.926   4.228   5.839  0.7241 -0.1221  0.5236
 1210TIP3    H125045   6.020   4.249   5.836  0.8387 -0.6978 -1.1668
 1210TIP3    H225046   5.920   4.156   5.901  1.5526 -0.7115 -0.0601
 1211TIP3   OH225047   4.924   4.681  14.247  0.0874 -0.0656  0.5527
 1211TIP3    H125048   4.971   4.714  14.323  0.8149 -0.7813  0.4205
 1211TIP3    H225049   4.840   4.727  14.249 -0.2792 -0.7291  2.3099
 1212TIP3   OH225050   4.756   2.915  17.332 -0.3447 -0.2771 -0.3731
 1212TIP3    H125051   4.776   3.008  17.322  2.8819 -1.0414 -2.4975
 1212TIP3    H225052   4.739   2.904  17.425 -0.9026  2.4435 -0.0858
 1213TIP3   OH225053   4.961   4.528  10.352 -0.5260  0.3072 -0.5268
 1213TIP3    H125054   4.952   4.433  10.357 -0.1672  0.2458 -0.9614
 1213TIP3    H225055   4.910   4.561  10.426  0.7864 -0.3079  0.6892
 1214TIP3   OH225056   2.363   4.989  12.442  0.1453  0.2005 -0.3279
 1214TIP3    H125057   2.288   5.040  12.473  0.5966  0.4392  0.4096
 1214TIP3    H225058   2.385   5.027  12.357  0.4829  1.2478  0.2126
 1215TIP3   OH225059   3.886   0.796  12.439  0.4586 -0.3803  0.1450
 1215TIP3    H125060   3.947   0.723  12.431  0.0293 -0.7251  0.0126
 1215TIP3    H225061   3.916   0.860  12.374  1.5714  0.0952  1.0817
 1216TIP3   OH225062   3.425   2.895   6.060 -0.5082  0.0321 -0.1022
 1216TIP3    H125063   3.447   2.986   6.082  0.4332 -0.2353  0.1223
 1216TIP3    H225064   3.412   2.896   5.965 -0.3688  0.3780 -0.1190
 1217TIP3   OH225065   4.042   4.505   0.677 -0.0818 -0.2119 -0.3252
 1217TIP3    H125066   4.009   4.461   0.599 -0.3773  2.4940 -1.8179
 1217TIP3    H225067   4.029   4.441   0.747 -1.9627 -1.8710 -2.0624
 1218TIP3   OH225068   0.629   5.229   0.173 -0.0230 -0.1253 -0.0214
 1218TIP3    H125069   0.544   5.266   0.196  1.1466  1.6881  1.8822
 1218TIP3    H225070   0.677   5.303   0.135  1.2368 -0.6210  0.5364
 1219TIP3   OH225071   5.078   0.935  12.567  0.8754  0.3648  0.3568
 1219TIP3    H125072   5.167   0.971  12.577  0.2078  1.9539  0.8947
 1219TIP3    H225073   5.022   1.012  12.556 -0.5128 -0.5760  0.5747
 1220TIP3   OH225074   1.585   3.749   1.313 -0.5241 -0.1449 -0.0966
 1220TIP3    H125075   1.605   3.675   1.256  1.7905  0.5915 -0.3504
 1220TIP3    H225076   1.502   3.784   1.280 -0.7867 -1.5681 -1.0386
 1221TIP3   OH225077   4.560   2.595   5.919 -0.3494 -0.3770  0.0359
 1221TIP3    H125078   4.579   2.583   6.013  1.6565  0.6471 -0.1742
 1221TIP3    H225079   4.608   2.524   5.876  0.4304  0.3424 -0.3160
 1222TIP3   OH225080   6.686   2.588   2.830  0.2516 -0.8505 -0.4973
 1222TIP3    H125081   6.739   2.662   2.800  2.1239 -1.2981  1.4496
 1222TIP3    H225082   6.609   2.627   2.871  2.3151  0.2642  2.6043
 1223TIP3   OH225083   1.476   2.613   4.361  0.1049 -0.0845 -0.1002
 1223TIP3    H125084   1.513   2.649   4.442 -1.3931 -0.8051  0.9716
 1223TIP3    H225085   1.391   2.656   4.353  0.8704  1.1676 -2.2108
 1224TIP3   OH225086   3.690   0.715  13.019  0.0495  0.4927 -0.3335
 1224TIP3    H125087   3.610   0.732  13.069  0.4314 -0.0127  0.4499
 1224TIP3    H225088   3.752   0.680  13.082  0.7614  0.4757 -1.0236
 1225TIP3   OH225089   1.083   2.348   5.712  0.1574  0.5569 -0.1853
 1225TIP3    H125090   1.045   2.260   5.714 -0.5162  0.8456  1.3344
 1225TIP3    H225091   1.131   2.356   5.794 -1.0223  2.0911  0.4318
 1226TIP3   OH225092   3.163   4.811  16.793  0.2714 -0.0044 -0.0211
 1226TIP3    H125093   3.096   4.870  16.757  0.8446  0.4911 -0.2918
 1226TIP3    H225094   3.214   4.784  16.717  0.0331 -0.8337  0.1064
 1227TIP3   OH225095   0.734   2.529  11.373 -0.5580  0.4694 -0.2250
 1227TIP3    H125096   0.768   2.551  11.460  0.1831 -0.3645 -0.2903
 1227TIP3    H225097   0.771   2.443  11.354 -1.6962  0.1003 -0.8593
 1228TIP3   OH225098   2.779   3.068  11.868  0.1242 -0.2036 -0.9091
 1228TIP3    H125099   2.693   3.042  11.899  0.5872  0.3071  0.9505
 1228TIP3    H225100   2.762   3.131  11.798 -1.0258  0.2579 -0.2362
 1229TIP3   OH225101   1.861   2.635   5.382  0.5761 -0.3025 -0.4275
 1229TIP3    H125102   1.860   2.720   5.338  2.9065 -1.1559 -2.3327
 1229TIP3    H225103   1.948   2.630   5.422 -0.1744 -1.1065  1.2065
 1230TIP3   OH225104   6.162   3.837   2.979 -0.6932  0.3054 -0.2067
 1230TIP3    H125105   6.184   3.792   3.060  0.3440 -0.2283 -0.7629
 1230TIP3    H225106   6.136   3.767   2.918 -1.9066  0.7346 -0.2258
 1231TIP3   OH225107   5.209   3.174   1.067 -0.1900 -0.0125 -0.0916
 1231TIP3    H125108   5.115   3.161   1.080 -0.4807  0.0674 -1.8222
 1231TIP3    H225109   5.249   3.139   1.146 -1.7987  2.3269  1.9313
 1232TIP3   OH225110   6.480   6.553  17.326  0.3278  0.2784 -0.3340
 1232TIP3    H125111   6.524   6.603  17.257  1.1272 -0.3159 -0.2689
 1232TIP3    H225112   6.547   6.539  17.392  0.2243 -1.1910 -0.5119
 1233TIP3   OH225113   6.185   5.502   2.016 -0.3586  0.1893 -0.4277
 1233TIP3    H125114   6.177   5.434   1.949 -0.4891  0.6454 -0.8821
 1233TIP3    H225115   6.270   5.543   1.998 -0.4023  0.3258 -0.3225
 1234TIP3   OH225116   6.142   1.177   5.397 -0.6167 -0.2515  0.0175
 1234TIP3    H125117   6.201   1.120   5.346  2.1111  1.3395  1.2148
 1234TIP3    H225118   6.111   1.241   5.333 -0.6289 -0.7839 -0.5277
 1235TIP3   OH225119   0.846   5.165  13.844  0.5001 -0.9292 -0.0241
 1235TIP3    H125120   0.842   5.255  13.809  0.0809 -0.9074  0.0804
 1235TIP3    H225121   0.939   5.144  13.842  0.4455 -1.2376 -1.9497
 1236TIP3   OH225122   0.699   3.393   2.319  0.4237 -0.0934  0.8141
 1236TIP3    H125123   0.780   3.401   2.370  1.4514 -1.9394 -0.4400
 1236TIP3    H225124   0.697   3.302   2.290 -1.3681  0.2884 -0.4292
 1237TIP3   OH225125   1.252   1.319  12.778  0.2892  0.2508  0.4770
 1237TIP3    H125126   1.296   1.402  12.793 -0.4959  0.5499  1.1591
 1237TIP3    H225127   1.324   1.255  12.771  0.8667  0.8702  0.6610
 1238TIP3   OH225128   1.937   1.777  11.669  0.1531  0.1360  0.3659
 1238TIP3    H125129   1.970   1.687  11.681 -1.0566 -0.3753 -0.0142
 1238TIP3    H225130   1.846   1.772  11.697  0.7509  1.8852  2.9560
 1239TIP3   OH225131   5.568   0.781  10.951 -0.5197 -0.7309  0.3440
 1239TIP3    H125132   5.544   0.816  10.865 -0.8181 -1.8599 -0.0495
 1239TIP3    H225133   5.663   0.791  10.955 -0.7096  1.3984  0.8441
 1240TIP3   OH225134   2.482   1.159   2.644 -0.3798 -0.1237  0.0603
 1240TIP3    H125135   2.453   1.080   2.690 -0.1325  2.1498  4.7232
 1240TIP3    H225136   2.402   1.195   2.607 -0.7770 -1.6187 -0.6343
 1241TIP3   OH225137   5.202   3.127   2.625 -0.9770  0.0620 -0.4454
 1241TIP3    H125138   5.115   3.088   2.619 -0.7460 -0.8530  1.5250
 1241TIP3    H225139   5.187   3.213   2.664 -1.0889  0.4046 -1.2152
 1242TIP3   OH225140   1.833   4.976   4.949  0.0275 -0.0191 -1.0823
 1242TIP3    H125141   1.814   5.068   4.928 -1.4266 -0.1929 -0.6863
 1242TIP3    H225142   1.747   4.934   4.949  0.2783 -0.7391  1.7679
 1243TIP3   OH225143   1.551   0.176  15.952  0.1983 -0.4151 -0.2190
 1243TIP3    H125144   1.479   0.120  15.981  0.4949 -0.9739 -0.5476
 1243TIP3    H225145   1.538   0.186  15.858  0.7901 -0.8966 -0.3658
 1244TIP3   OH225146   5.257   5.596   4.515 -0.0684  0.0293  0.0972
 1244TIP3    H125147   5.226   5.681   4.549  1.2995  1.4533 -1.9676
 1244TIP3    H225148   5.333   5.575   4.570  0.3119  0.7925 -0.1087
 1245TIP3   OH225149   1.180   2.660  11.214 -0.2389  0.3480 -0.2149
 1245TIP3    H125150   1.136   2.606  11.148 -0.3765  1.1819 -0.8239
 1245TIP3    H225151   1.208   2.738  11.166  0.3647  0.6103  0.5516
 1246TIP3   OH225152   2.311   5.379   2.233 -0.1946 -0.2492 -0.2636
 1246TIP3    H125153   2.274   5.420   2.155 -0.5003 -0.0495 -0.0193
 1246TIP3    H225154   2.273   5.291   2.234 -0.3842 -0.1687 -0.2108
 1247TIP3   OH225155   5.173   5.000   2.628  0.4091  0.7115  0.2369
 1247TIP3    H125156   5.141   5.090   2.617 -0.1897  0.6156  1.1263
 1247TIP3    H225157   5.248   4.994   2.568  2.8373  2.9704  2.7436
 1248TIP3   OH225158   3.439   0.730   1.578  0.1884  0.0176 -0.2693
 1248TIP3    H125159   3.393   0.792   1.634  1.5387  1.5851 -0.7945
 1248TIP3    H225160   3.399   0.645   1.597 -0.5261  0.7612  1.7892
 1249TIP3   OH225161   2.224   3.853   4.214  0.1370  0.8831  0.3240
 1249TIP3    H125162   2.239   3.935   4.167  1.4970 -0.1672 -1.1602
 1249TIP3    H225163   2.310   3.827   4.246  0.4175 -1.5364 -2.0071
 1250TIP3   OH225164   2.929   4.230  12.274 -0.2338 -0.2984  0.6208
 1250TIP3    H125165   3.002   4.172  12.255 -1.1925 -1.8875  1.5344
 1250TIP3    H225166   2.853   4.172  12.279 -1.8053  1.3869 -1.3672
 1251TIP3   OH225167   0.702   3.437  13.791  0.3901  0.3423 -0.1052
 1251TIP3    H125168   0.759   3.367  13.822  1.5394 -0.0417 -2.8135
 1251TIP3    H225169   0.614   3.411  13.819  1.1771 -0.5487  1.6335
 1252TIP3   OH225170   3.521   3.347   0.558  0.2607  0.1318  0.0479
 1252TIP3    H125171   3.533   3.284   0.487 -0.1417  2.0403 -1.8200
 1252TIP3    H225172   3.430   3.334   0.586  0.1714 -0.0993 -0.3384
 1253TIP3   OH225173   2.110   4.481  15.645 -0.0607 -0.7377 -0.0850
 1253TIP3    H125174   2.175   4.425  15.601  0.0368 -0.8455  0.1931
 1253TIP3    H225175   2.142   4.570  15.633  0.9024 -0.8804  1.2831
 1254TIP3   OH225176   4.410   3.066   5.369  0.5387 -0.8952 -0.0334
 1254TIP3    H125177   4.468   3.140   5.354  1.0547 -1.4167 -0.6803
 1254TIP3    H225178   4.345   3.098   5.432  2.4013 -0.7307  1.9152
 1255TIP3   OH225179   3.767   6.138  11.021  0.3666  0.2437 -0.6948
 1255TIP3    H125180   3.805   6.052  11.003 -2.7167 -1.8379  1.6558
 1255TIP3    H225181   3.683   6.137  10.976 -0.8532  0.9006  1.4231
 1256TIP3   OH225182   6.111   0.607   4.752 -0.0860  0.7519  0.2466
 1256TIP3    H125183   6.186   0.571   4.705 -0.6986 -0.1408 -0.0643
 1256TIP3    H225184   6.127   0.584   4.843 -0.7498 -0.8516 -0.0158
 1257TIP3   OH225185   1.356   1.800   1.624 -0.3894  0.5767 -0.1541
 1257TIP3    H125186   1.404   1.735   1.675 -1.1821 -2.4392 -2.9522
 1257TIP3    H225187   1.417   1.873   1.615  1.3237 -0.5703  1.4580
 1258TIP3   OH225188   4.250   3.524  14.795 -0.2790  0.2402 -0.0956
 1258TIP3    H125189   4.163   3.508  14.832  0.2343  1.3862  1.7258
 1258TIP3    H225190   4.307   3.462  14.841 -0.2262 -1.2051 -1.9874
 1259TIP3   OH225191   2.723   3.277   1.005 -0.1309  0.0918  0.6215
 1259TIP3    H125192   2.696   3.343   0.942 -1.1883  0.9909  1.9493
 1259TIP3    H225193   2.787   3.224   0.959 -0.0582  1.3828 -0.8307
 1260TIP3   OH225194   0.241   1.751   2.506 -0.4496 -0.2921 -0.5064
 1260TIP3    H125195   0.217   1.833   2.463 -0.2671  0.0078 -0.0397
 1260TIP3    H225196   0.312   1.716   2.452  0.7675  0.7927  0.3173
 1261TIP3   OH225197   5.498   4.984   0.527  0.1151  0.3060 -0.3063
 1261TIP3    H125198   5.429   5.029   0.477  0.3820  1.9941  0.7557
 1261TIP3    H225199   5.464   4.896   0.541 -0.6340  0.2669 -2.1038
 1262TIP3   OH225200   0.722   2.073   5.859  0.0828 -0.6521 -0.2393
 1262TIP3    H125201   0.697   2.128   5.933  1.0749  0.1742 -0.5033
 1262TIP3    H225202   0.659   2.001   5.861  0.9342 -1.4406  2.2625
 1263TIP3   OH225203   4.034   5.614   1.838  0.2698 -0.0129 -0.5462
 1263TIP3    H125204   4.018   5.639   1.929 -0.4302  1.0420 -0.9531
 1263TIP3    H225205   3.973   5.542   1.822  0.7305 -0.5322 -0.0580
 1264TIP3   OH225206   1.147   1.778   3.541 -0.1085 -0.2226 -0.2290
 1264TIP3    H125207   1.064   1.786   3.589  0.4965  2.6112  0.5209
 1264TIP3    H225208   1.126   1.809   3.453  0.2107  0.9763  0.0963
 1265TIP3   OH225209   0.488   5.894  12.444 -0.1838 -0.3336 -0.5593
 1265TIP3    H125210   0.565   5.936  12.483  1.2316 -1.8760 -1.5459
 1265TIP3    H225211   0.456   5.835  12.512  0.8315 -1.2543 -0.8497
 1266TIP3   OH225212   2.604   1.090  15.861  0.2959 -1.1126  0.3163
 1266TIP3    H125213   2.599   1.161  15.926  2.0705 -0.7845  0.1622
 1266TIP3    H225214   2.592   1.010  15.912 -0.6502 -0.7568  0.6689
 1267TIP3   OH225215   3.544   1.182   1.544 -0.3779 -0.3954  0.1877
 1267TIP3    H125216   3.596   1.154   1.468 -0.7467 -0.5397 -0.0149
 1267TIP3    H225217   3.596   1.252   1.584 -0.8534  0.6926 -1.0318
 1268TIP3   OH225218   2.426   0.016  12.709 -0.0954 -0.3816  0.5153
 1268TIP3    H125219   2.334  -0.010  12.720 -0.5373  1.4816  1.5724
 1268TIP3    H225220   2.422   0.110  12.690  1.6151 -0.1848  1.0171
 1269TIP3   OH225221   4.686   5.723   1.522  0.5992 -0.0236  0.5518
 1269TIP3    H125222   4.693   5.667   1.445  0.3928  0.3822  0.2349
 1269TIP3    H225223   4.605   5.695   1.565  0.1944  0.4044  0.0867
 1270TIP3   OH225224   4.016   1.709  14.091  0.0910  0.3122 -0.1854
 1270TIP3    H125225   4.061   1.782  14.049 -0.8481  0.8013 -0.3640
 1270TIP3    H225226   3.993   1.741  14.178  0.4042 -0.0659  0.0425
 1271TIP3   OH225227   4.630   5.365   4.641  0.1002  0.0620 -0.5472
 1271TIP3    H125228   4.682   5.353   4.721 -0.1820  1.2727 -0.1694
 1271TIP3    H225229   4.594   5.278   4.623 -0.7139 -0.0134  1.2678
 1272TIP3   OH225230   0.688   0.208  13.170 -0.1919 -0.8573 -0.2510
 1272TIP3    H125231   0.784   0.218  13.171 -0.0692 -1.7733 -1.0883
 1272TIP3    H225232   0.665   0.210  13.077 -1.4204  2.7737 -0.0384
 1273TIP3   OH225233   1.924   3.962   1.564 -0.4001  0.4535  0.2115
 1273TIP3    H125234   1.958   3.951   1.475 -0.7904 -1.7205  0.2642
 1273TIP3    H225235   1.830   3.976   1.552 -1.0346 -2.9359  0.2632
 1274TIP3   OH225236   2.618   4.722  15.215  0.0308 -0.5693  0.0369
 1274TIP3    H125237   2.564   4.796  15.242  1.3826  0.3522  0.3092
 1274TIP3    H225238   2.705   4.742  15.250  0.5998 -1.9222 -0.5397
 1275TIP3   OH225239   0.332   3.352   4.008 -0.3643 -0.3554 -0.0987
 1275TIP3    H125240   0.404   3.400   3.967 -1.3692  1.0904 -0.2673
 1275TIP3    H225241   0.282   3.317   3.934 -1.1375  0.6708 -0.0835
 1276TIP3   OH225242   3.402   2.761   4.776 -0.1176 -0.3206  0.0224
 1276TIP3    H125243   3.357   2.731   4.697 -0.2045  0.4399 -0.2293
 1276TIP3    H225244   3.418   2.854   4.760  0.9246 -0.4184  0.3974
 1277TIP3   OH225245   2.840   2.208  17.091  0.3477 -0.6383  0.6269
 1277TIP3    H125246   2.879   2.136  17.141  1.2166 -0.6167 -0.0031
 1277TIP3    H225247   2.881   2.287  17.126  1.1442 -0.6421 -0.2666
 1278TIP3   OH225248   1.530   5.195  10.840  0.2073 -0.3296  0.3824
 1278TIP3    H125249   1.616   5.189  10.799 -0.2798 -0.6468 -0.6105
 1278TIP3    H225250   1.508   5.105  10.864 -1.0298 -0.6779 -1.8754
 1279TIP3   OH225251   5.983   0.025   4.811 -0.4272 -0.2268 -0.3498
 1279TIP3    H125252   6.064  -0.003   4.854  0.1103 -1.0551 -1.8257
 1279TIP3    H225253   6.006   0.105   4.765 -0.4672 -0.4378 -0.7343
 1280TIP3   OH225254   4.318   0.997  16.022 -0.5226 -0.3098 -0.3187
 1280TIP3    H125255   4.287   1.065  15.963  0.2680 -0.4420 -0.8874
 1280TIP3    H225256   4.252   0.927  16.014 -1.4933  0.4843  0.4910
 1281TIP3   OH225257   3.847   4.222   4.418 -0.2485  0.2885 -0.0578
 1281TIP3    H125258   3.836   4.168   4.339  1.1926  0.3580 -0.3414
 1281TIP3    H225259   3.888   4.303   4.385 -0.5455  0.7234  0.6323
 1282TIP3   OH225260   3.069   3.230   5.702  0.2282  0.3649 -0.6483
 1282TIP3    H125261   2.980   3.226   5.667  0.7365  0.5576 -2.0466
 1282TIP3    H225262   3.109   3.305   5.658  0.9107  0.6524  0.4165
 1283TIP3   OH225263   5.674   3.881  12.647  0.1927 -0.2771  0.4473
 1283TIP3    H125264   5.642   3.939  12.716  0.8194  0.0896  0.4411
 1283TIP3    H225265   5.767   3.903  12.638  0.7955 -2.2294  1.4004
 1284TIP3   OH225266   2.365   3.247   0.090  0.4492  0.1228  0.4094
 1284TIP3    H125267   2.424   3.171   0.093  1.7728  1.1559  1.6860
 1284TIP3    H225268   2.282   3.211   0.058  0.6012 -2.1489  2.2746
 1285TIP3   OH225269   4.443   6.191   4.032 -0.2800  0.1013  0.0450
 1285TIP3    H125270   4.435   6.272   3.981 -0.0246  0.4649  0.5738
 1285TIP3    H225271   4.471   6.220   4.119 -0.5256 -0.5285  0.3401
 1286TIP3   OH225272   1.427   3.602   2.804 -0.2572  0.0715  0.1696
 1286TIP3    H125273   1.511   3.646   2.795  0.0984 -0.5212  0.5292
 1286TIP3    H225274   1.448   3.509   2.809 -0.6881  0.0187  2.6444
 1287TIP3   OH225275   2.280   5.518  10.990  0.2057 -0.0845  0.0984
 1287TIP3    H125276   2.189   5.489  10.986  0.1243 -0.6411  3.1521
 1287TIP3    H225277   2.274   5.613  10.998 -0.1887 -0.1648  0.9181
 1288TIP3   OH225278   4.584   1.388  12.296 -0.1699 -0.3676  0.1521
 1288TIP3    H125279   4.632   1.368  12.376  0.9627 -1.2458 -0.7138
 1288TIP3    H225280   4.647   1.436  12.242 -1.7556  2.6992  0.7983
 1289TIP3   OH225281   3.953   5.692  14.181  0.0048 -0.0301  0.0189
 1289TIP3    H125282   4.012   5.764  14.203  1.6640 -1.1095 -0.6343
 1289TIP3    H225283   3.923   5.712  14.092 -1.5192  1.0467  0.7262
 1290TIP3   OH225284   5.945   3.590  11.949 -0.1456 -0.0309 -0.9042
 1290TIP3    H125285   5.980   3.670  11.910  0.9894 -0.6943 -1.2872
 1290TIP3    H225286   5.993   3.580  12.031 -0.3268 -0.2823 -0.8258
 1291TIP3   OH225287   1.534   4.828   2.555  0.1038  0.1370  0.3663
 1291TIP3    H125288   1.463   4.819   2.619  0.1065  0.5686  0.4306
 1291TIP3    H225289   1.544   4.740   2.518  0.3269 -0.1896  1.1930
 1292TIP3   OH225290   6.354   1.019   4.102 -0.3448 -0.2212  0.1055
 1292TIP3    H125291   6.304   0.942   4.129 -0.2093 -1.4826 -2.8137
 1292TIP3    H225292   6.289   1.087   4.088 -0.8837 -0.8184 -0.3639
 1293TIP3   OH225293   4.513   6.581  11.497  0.5163 -0.3056  0.1157
 1293TIP3    H125294   4.546   6.641  11.430  0.5596  1.3891  1.5823
 1293TIP3    H225295   4.580   6.513  11.503  0.1874 -0.8925 -1.9914
 1294TIP3   OH225296   6.592   0.328  13.235 -0.0242  0.2287  0.2003
 1294TIP3    H125297   6.514   0.315  13.182  0.2870  0.5383 -0.3398
 1294TIP3    H225298   6.590   0.421  13.259 -0.3360  0.0213  1.0099
 1295TIP3   OH225299   2.704   5.181  11.840 -0.7372  0.3779 -0.2513
 1295TIP3    H125300   2.770   5.231  11.888 -0.6368 -1.3168  1.4854
 1295TIP3    H225301   2.733   5.184  11.749  1.0646  0.6882  0.2918
 1296TIP3   OH225302   5.705   3.636  13.544 -0.2129  0.3708  0.1335
 1296TIP3    H125303   5.735   3.582  13.471 -2.7444 -1.1694  0.1110
 1296TIP3    H225304   5.776   3.633  13.607  0.4717 -1.4660 -0.6709
 1297TIP3   OH225305   3.021   2.895   3.302  0.3829 -0.2153 -0.3884
 1297TIP3    H125306   3.094   2.835   3.289  0.8490  0.5318 -1.3321
 1297TIP3    H225307   3.046   2.973   3.253 -0.0284  0.9021  1.1315
 1298TIP3   OH225308   1.080   5.369  12.317  0.4455  0.2013 -0.0066
 1298TIP3    H125309   1.027   5.436  12.273 -0.7215 -0.6491  0.0747
 1298TIP3    H225310   1.065   5.385  12.411  1.3083  0.7118  0.0590
 1299TIP3   OH225311   5.455   1.324  16.700 -0.1219  0.7108 -0.2541
 1299TIP3    H125312   5.367   1.325  16.737  0.1306 -1.4957  0.5093
 1299TIP3    H225313   5.443   1.292  16.610 -0.0676 -0.1676  0.0399
 1300TIP3   OH225314   1.676   1.956   4.499  0.0522 -0.1187 -0.3854
 1300TIP3    H125315   1.664   1.979   4.407 -0.6449  1.6791  0.1015
 1300TIP3    H225316   1.606   1.894   4.518  0.1699 -0.4602 -1.0417
 1301TIP3   OH225317   0.550   1.832  13.452 -0.6584  0.1256  0.3504
 1301TIP3    H125318   0.638   1.797  13.441 -0.9229 -1.0093  1.5930
 1301TIP3    H225319   0.552   1.917  13.408  0.8694 -0.1462 -0.1579
 1302TIP3   OH225320   1.518   2.855  16.579 -0.0537 -0.2050  0.5289
 1302TIP3    H125321   1.593   2.829  16.526 -0.6042 -0.0346 -0.3417
 1302TIP3    H225322   1.475   2.924  16.529 -1.2739 -0.8848  0.6041
 1303TIP3   OH225323   5.547   4.392   4.944  0.6114 -0.1879  0.2714
 1303TIP3    H125324   5.487   4.326   4.979  0.8920  0.3344  1.8130
 1303TIP3    H225325   5.490   4.460   4.908  0.2703 -0.1826  0.8027
 1304TIP3   OH225326   0.880   6.222  16.825  0.2339  0.0698 -0.2556
 1304TIP3    H125327   0.858   6.140  16.781 -0.8967  0.5279 -0.5624
 1304TIP3    H225328   0.861   6.205  16.917 -0.3153  0.0851 -0.3620
 1305TIP3   OH225329   1.224   4.177  13.883  0.0981 -0.3824  0.7891
 1305TIP3    H125330   1.239   4.159  13.976 -1.6344 -0.9372  0.9924
 1305TIP3    H225331   1.149   4.122  13.859 -2.0923  2.6229  0.1129
 1306TIP3   OH225332   3.033   4.991  16.597 -0.0104  0.4296 -0.2446
 1306TIP3    H125333   2.941   4.969  16.580 -0.0941  0.9711 -0.5122
 1306TIP3    H225334   3.029   5.067  16.654  0.2777 -0.0612  0.4443
 1307TIP3   OH225335   5.332   3.623  14.459  0.2593  0.1816 -0.7093
 1307TIP3    H125336   5.361   3.538  14.492  0.1982  0.4245 -0.0277
 1307TIP3    H225337   5.395   3.645  14.391  0.3967 -0.3105 -0.7483
 1308TIP3   OH225338   6.453   0.382  15.306  0.0840  0.1337 -0.1988
 1308TIP3    H125339   6.439   0.371  15.212  4.2067 -0.7542 -0.8815
 1308TIP3    H225340   6.393   0.319  15.346 -0.4458 -0.8011 -2.3199
 1309TIP3   OH225341   3.531   3.885  10.796  0.2222 -0.3370  0.1540
 1309TIP3    H125342   3.481   3.808  10.821  2.3084 -2.3837 -1.4561
 1309TIP3    H225343   3.494   3.957  10.847 -1.9682 -2.3495  1.5615
 1310TIP3   OH225344   1.784   0.107  12.940  0.3548 -0.0102 -0.5011
 1310TIP3    H125345   1.834   0.026  12.930 -0.2552 -0.3746 -0.6752
 1310TIP3    H225346   1.712   0.098  12.878 -0.6432 -0.0690  0.6414
 1311TIP3   OH225347   3.039   5.430   5.881 -1.0936  0.0693  0.0263
 1311TIP3    H125348   3.097   5.506   5.872 -0.8370 -0.1161  0.0894
 1311TIP3    H225349   3.015   5.429   5.974 -0.0555 -0.6697  0.3074
 1312TIP3   OH225350   2.938   6.622  15.994 -0.1578  0.1568  0.8389
 1312TIP3    H125351   2.954   6.711  15.963 -0.5268  0.4701  1.5407
 1312TIP3    H225352   3.025   6.582  15.997 -0.1981 -0.2986 -1.7822
 1313TIP3   OH225353   1.808   6.207   0.665  0.5919 -0.2955  0.0474
 1313TIP3    H125354   1.877   6.273   0.657  0.4565 -0.1252  0.2741
 1313TIP3    H225355   1.733   6.245   0.619  0.2331  0.1016  0.9441
 1314TIP3   OH225356   2.146   2.733   4.109  0.4196  0.1834  0.5612
 1314TIP3    H125357   2.230   2.777   4.125  1.3538 -1.0324 -0.7603
 1314TIP3    H225358   2.084   2.804   4.093  1.9375  1.0834 -1.7862
 1315TIP3   OH225359   2.123   4.456  16.664  0.1290 -0.1557  0.2931
 1315TIP3    H125360   2.109   4.388  16.598 -0.2353 -0.2871  0.5091
 1315TIP3    H225361   2.157   4.409  16.740 -0.8164 -0.2059  0.6993
 1316TIP3   OH225362   1.367   0.850   1.007 -0.2318 -0.1994  0.4107
 1316TIP3    H125363   1.309   0.866   0.932  0.3028 -1.9214 -0.4377
 1316TIP3    H225364   1.375   0.934   1.050 -1.3095  0.6394 -0.9460
 1317TIP3   OH225365   2.539   3.718  16.951 -0.0635 -0.0221 -0.0210
 1317TIP3    H125366   2.627   3.682  16.937  0.2315  0.7341 -0.1491
 1317TIP3    H225367   2.485   3.679  16.882  0.6084  1.0063 -1.1609
 1318TIP3   OH225368   3.372   4.304   1.049  0.2992  0.1188 -0.2043
 1318TIP3    H125369   3.412   4.251   1.118 -0.9828  0.5250  0.9069
 1318TIP3    H225370   3.327   4.240   0.994  2.2037 -0.3196 -1.3458
 1319TIP3   OH225371   0.557   1.018   5.089  0.3376 -0.5685 -0.3812
 1319TIP3    H125372   0.470   1.053   5.108  0.6027  1.1231 -1.9528
 1319TIP3    H225373   0.541   0.940   5.037 -0.2605  0.0824 -1.1964
 1320TIP3   OH225374   4.987   3.739   1.164  0.2267  0.3142 -0.0042
 1320TIP3    H125375   5.034   3.822   1.166  2.3237 -0.8338  0.8514
 1320TIP3    H225376   5.022   3.689   1.237  0.1043 -1.8928 -1.3663
 1321TIP3   OH225377   5.690   5.723  11.335 -0.2024  0.0220 -0.5879
 1321TIP3    H125378   5.595   5.720  11.326 -0.3726  1.6355  0.3688
 1321TIP3    H225379   5.712   5.816  11.328  1.1151 -0.1437  0.8504
 1322TIP3   OH225380   6.002   1.707  15.032  0.2112  0.2620 -0.4836
 1322TIP3    H125381   6.014   1.784  15.089 -2.0781  0.9920 -0.8654
 1322TIP3    H225382   5.933   1.656  15.075 -0.3949 -0.0191 -1.7423
 1323TIP3   OH225383   6.724   4.028   4.656 -0.3435 -0.1998 -0.5388
 1323TIP3    H125384   6.719   3.998   4.565  2.4391  0.1917 -0.8986
 1323TIP3    H225385   6.746   4.121   4.649  0.3594 -0.2726  0.5245
 1324TIP3   OH225386   5.270   2.765   2.731  0.4826 -0.2948 -0.6803
 1324TIP3    H125387   5.232   2.796   2.813 -1.1363  0.7611 -1.7721
 1324TIP3    H225388   5.279   2.671   2.744 -1.5726 -0.4590  0.0595
 1325TIP3   OH225389   0.634   1.697   3.076  0.1832 -0.0808  0.3675
 1325TIP3    H125390   0.554   1.654   3.044 -0.1684 -0.7232  1.9953
 1325TIP3    H225391   0.602   1.764   3.138  0.8479  0.7495 -0.1707
 1326TIP3   OH225392   2.825   0.773   4.904 -0.2950  1.0082 -1.0103
 1326TIP3    H125393   2.776   0.790   4.823 -0.8238 -0.4984 -1.0296
 1326TIP3    H225394   2.910   0.742   4.875 -1.5618 -2.8108 -1.1462
 1327TIP3   OH225395   1.090   6.377   2.950  0.2302 -0.0521  0.4483
 1327TIP3    H125396   0.995   6.377   2.948  0.0500 -3.1002  2.4593
 1327TIP3    H225397   1.113   6.363   3.042  2.5606 -1.1335 -0.2133
 1328TIP3   OH225398   3.273   5.489   1.112  0.0697 -0.3184  0.2859
 1328TIP3    H125399   3.353   5.498   1.058  0.9010  1.9534  1.7455
 1328TIP3    H225400   3.303   5.507   1.201 -1.6646 -1.9368  1.2412
 1329TIP3   OH225401   1.149   4.788   1.179 -0.2850 -0.5886 -0.1897
 1329TIP3    H125402   1.222   4.836   1.139  0.0668 -1.1959 -0.2776
 1329TIP3    H225403   1.148   4.818   1.270 -0.7549  0.4017 -0.5056
 1330TIP3   OH225404   3.381   0.704  12.486  0.0884 -0.1012 -0.1355
 1330TIP3    H125405   3.313   0.658  12.437 -1.0009 -0.0293  1.2485
 1330TIP3    H225406   3.460   0.692  12.434 -1.3668  1.8311 -3.0983
 1331TIP3   OH225407   5.999   6.324  16.477  0.4131  0.2306  0.0242
 1331TIP3    H125408   5.971   6.319  16.385  2.5093  0.7870 -0.6990
 1331TIP3    H225409   6.074   6.265  16.483  0.9304  0.9529  1.1233
 1332TIP3   OH225410   5.997   4.912   0.840  0.0896  0.1308 -0.4659
 1332TIP3    H125411   6.052   4.861   0.900  0.9352 -0.6809 -1.8759
 1332TIP3    H225412   6.025   5.003   0.853  1.1081 -0.1672 -0.4762
 1333TIP3   OH225413   0.678   4.383  14.507 -0.1437 -0.2353  0.2998
 1333TIP3    H125414   0.702   4.476  14.504  0.8268 -0.4853 -1.6616
 1333TIP3    H225415   0.732   4.346  14.576 -0.1733  0.5690  0.7585
 1334TIP3   OH225416   4.775   0.695   0.814  0.1508  0.3410  0.8258
 1334TIP3    H125417   4.783   0.601   0.795 -0.9717  0.4016 -0.0814
 1334TIP3    H225418   4.849   0.735   0.768 -1.0407  0.1849 -1.3796
 1335TIP3   OH225419   2.997   3.865  13.146  0.1493 -0.1306  0.2936
 1335TIP3    H125420   2.903   3.858  13.126  0.2549 -0.7110 -0.0477
 1335TIP3    H225421   3.040   3.832  13.067  0.6525  0.4566  0.3173
 1336TIP3   OH225422   2.980   0.148   0.866 -0.0293 -0.1592 -0.2000
 1336TIP3    H125423   3.012   0.234   0.894  1.8962 -1.1690  0.9455
 1336TIP3    H225424   3.015   0.137   0.778  1.3668 -0.4896  0.3601
 1337TIP3   OH225425   4.191   0.844   6.015  0.2002 -0.0942  0.3588
 1337TIP3    H125426   4.260   0.886   6.067 -0.0831 -0.3572  0.9413
 1337TIP3    H225427   4.191   0.753   6.043 -1.9130  0.3536  2.0302
 1338TIP3   OH225428   0.411   3.929  11.990 -0.1335  0.2372 -0.1534
 1338TIP3    H125429   0.464   3.972  11.923  1.0981 -1.1177 -0.1000
 1338TIP3    H225430   0.337   3.988  12.003  0.0875  1.0064 -2.0058
 1339TIP3   OH225431   6.629   4.244  15.018 -0.2042 -0.4280  0.0430
 1339TIP3    H125432   6.664   4.297  15.090  1.3344 -0.4758 -0.6292
 1339TIP3    H225433   6.642   4.298  14.940 -1.0894 -0.7153 -0.3104
 1340TIP3   OH225434   2.307   1.474  13.025  0.4362  0.1886 -0.6380
 1340TIP3    H125435   2.300   1.395  12.972  2.0675 -0.9952  0.8088
 1340TIP3    H225436   2.393   1.467  13.068 -0.0214  2.0000  0.7154
 1341TIP3   OH225437   5.712   0.567   5.284  0.2091  0.8084  0.2172
 1341TIP3    H125438   5.680   0.657   5.290 -0.5946  0.5655 -0.3433
 1341TIP3    H225439   5.642   0.519   5.241  0.7462 -0.0357  0.2594
 1342TIP3   OH225440   3.415   6.221   3.636  0.7112 -0.7258  0.3622
 1342TIP3    H125441   3.426   6.292   3.700  0.8836  0.3453 -0.8103
 1342TIP3    H225442   3.445   6.259   3.553 -0.4768 -1.7304 -0.5614
 1343TIP3   OH225443   3.631   4.255   2.507  0.0024  0.2730  0.5584
 1343TIP3    H125444   3.556   4.290   2.557 -1.4542 -0.5213 -0.9583
 1343TIP3    H225445   3.608   4.164   2.491 -0.0744  0.7255 -2.3524
 1344TIP3   OH225446   5.103   4.198  12.971 -0.2246 -0.7428 -0.1533
 1344TIP3    H125447   5.184   4.146  12.975  0.2333 -0.0240 -0.0172
 1344TIP3    H225448   5.131   4.288  12.986 -1.2387 -0.6580  1.3676
 1345TIP3   OH225449   1.290   0.176  12.788 -0.2940  0.6685  0.1414
 1345TIP3    H125450   1.247   0.174  12.874  0.1488  1.8953  0.4174
 1345TIP3    H225451   1.226   0.217  12.730 -0.4634  0.1476 -0.0449
 1346TIP3   OH225452   3.316   5.164   1.944 -0.0618 -0.0178 -0.3288
 1346TIP3    H125453   3.328   5.230   2.012 -1.9709  0.0695 -0.0182
 1346TIP3    H225454   3.326   5.081   1.989 -0.2253  0.0476 -0.1697
 1347TIP3   OH225455   3.302   0.288   3.575 -0.7264  0.9423 -0.0708
 1347TIP3    H125456   3.333   0.203   3.546  0.9058  1.7774 -0.9458
 1347TIP3    H225457   3.377   0.326   3.622 -1.1838  2.1506 -0.2817
 1348TIP3   OH225458   1.018   6.583  12.382  0.2674 -0.6377  0.5933
 1348TIP3    H125459   1.046   6.553  12.296  0.7218  1.9772 -0.2684
 1348TIP3    H225460   0.962   6.659  12.364  1.0281  0.4771  2.5926
 1349TIP3   OH225461   6.216   5.023  12.445  0.8222 -0.3648  0.1765
 1349TIP3    H125462   6.208   5.000  12.353 -1.3265  2.0709 -0.3631
 1349TIP3    H225463   6.126   5.030  12.476  1.4159  1.7867  1.6253
 1350TIP3   OH225464   0.549   6.255  11.335 -0.0829  0.0632 -0.3182
 1350TIP3    H125465   0.582   6.321  11.274  1.4211  1.7647  2.1473
 1350TIP3    H225466   0.462   6.286  11.361 -0.1895  0.0208 -0.6242
 1351TIP3   OH225467   4.149   3.399   1.360 -0.5755  0.5512 -0.0426
 1351TIP3    H125468   4.166   3.481   1.315 -0.0869  0.3226 -0.2823
 1351TIP3    H225469   4.198   3.333   1.311  0.1659  0.3322  0.9622
 1352TIP3   OH225470   1.141   6.404  13.093 -0.4518 -0.3494  0.2339
 1352TIP3    H125471   1.098   6.319  13.087 -1.1878 -0.0259  0.7613
 1352TIP3    H225472   1.212   6.400  13.029 -0.6870 -1.2364  0.0220
 1353TIP3   OH225473   0.583   1.965   2.818 -0.6100 -0.1079  0.2954
 1353TIP3    H125474   0.560   1.875   2.793 -1.5995  0.6302 -1.7265
 1353TIP3    H225475   0.678   1.966   2.820 -0.5914 -1.1886  0.2362
 1354TIP3   OH225476   6.523   4.635  11.958 -0.0564 -1.2157  0.3178
 1354TIP3    H125477   6.599   4.625  12.015 -0.8558  0.2993  1.7235
 1354TIP3    H225478   6.560   4.670  11.876  0.8578 -1.4372  0.6215
 1355TIP3   OH225479   1.105   4.031   5.124  0.2984 -0.4291 -0.3557
 1355TIP3    H125480   1.101   3.994   5.212  3.4930  0.9920  0.5369
 1355TIP3    H225481   1.163   3.973   5.075 -0.6859 -0.6715 -1.2916
 1356TIP3   OH225482   4.886   5.811   5.154 -0.0662  0.4246 -0.3175
 1356TIP3    H125483   4.935   5.768   5.084 -1.5850 -0.3217 -0.9919
 1356TIP3    H225484   4.904   5.904   5.143  1.4339  0.1487 -0.3130
 1357TIP3   OH225485   5.938   0.283  16.904  0.0608 -0.0536  0.7418
 1357TIP3    H125486   5.987   0.204  16.926  0.2107 -1.1122 -2.7917
 1357TIP3    H225487   5.846   0.258  16.916  0.1267 -0.6390  0.0657
 1358TIP3   OH225488   6.449   5.614  14.343  0.5236 -0.7814  0.0121
 1358TIP3    H125489   6.531   5.658  14.320  0.4295 -0.8131 -0.4009
 1358TIP3    H225490   6.467   5.571  14.427  0.4209  0.5773  0.7594
 1359TIP3   OH225491   2.621   3.467  16.492 -0.4431  0.2106 -0.0780
 1359TIP3    H125492   2.572   3.540  16.455 -0.9336 -0.0385  0.0795
 1359TIP3    H225493   2.577   3.389  16.459  1.4211 -0.0805 -2.0900
 1360TIP3   OH225494   5.662   5.266  14.664 -0.1162 -0.1487  0.2596
 1360TIP3    H125495   5.567   5.269  14.651 -0.1531 -1.9840 -0.1776
 1360TIP3    H225496   5.698   5.278  14.576  0.0191 -0.2367  0.3028
 1361TIP3   OH225497   3.055   3.828   1.033 -0.8147  0.0521 -0.3622
 1361TIP3    H125498   3.076   3.808   0.942 -1.1778 -0.6609 -0.2904
 1361TIP3    H225499   2.963   3.854   1.031 -0.6994  0.4863 -0.2590
 1362TIP3   OH225500   2.342   3.988  13.349  0.4501  0.4962 -1.0644
 1362TIP3    H125501   2.319   3.950  13.264  2.9545 -1.1581 -1.1236
 1362TIP3    H225502   2.276   3.954  13.409  0.8300 -1.5667 -1.7124
 1363TIP3   OH225503   4.317   1.817   5.975  0.3730  0.1100 -0.1932
 1363TIP3    H125504   4.235   1.782   6.010  0.7744  0.3384  0.9925
 1363TIP3    H225505   4.330   1.768   5.893 -0.3828 -0.6953  0.1450
 1364TIP3   OH225506   0.531   3.718  12.840  0.5416  0.4021  0.3294
 1364TIP3    H125507   0.585   3.639  12.838  2.6265  1.7709 -1.5060
 1364TIP3    H225508   0.441   3.685  12.846  1.3086 -2.1275 -0.7986
 1365TIP3   OH225509   1.017   4.390  15.263  0.4636  0.3613 -0.0511
 1365TIP3    H125510   1.046   4.384  15.172  1.7832  0.5397  0.3327
 1365TIP3    H225511   0.974   4.306  15.279  0.3692  0.2576 -0.7838
 1366TIP3   OH225512   0.302   5.021   5.604 -0.7744 -0.2964 -0.0894
 1366TIP3    H125513   0.386   5.054   5.571 -0.1542  0.9955  2.5130
 1366TIP3    H225514   0.323   4.936   5.642 -1.0816 -0.8655 -1.1544
 1367TIP3   OH225515   6.386   5.852   0.927  0.1054 -0.5646  0.1245
 1367TIP3    H125516   6.390   5.863   0.832 -1.4014  1.5535  0.2368
 1367TIP3    H225517   6.388   5.757   0.941  4.1073 -0.9632 -1.7470
 1368TIP3   OH225518   0.876   1.380  11.158 -0.3731 -0.4089 -0.9582
 1368TIP3    H125519   0.825   1.396  11.079 -1.5541 -0.6876 -0.2788
 1368TIP3    H225520   0.932   1.305  11.135  1.1632  1.0676 -2.3233
 1369TIP3   OH225521   2.455   1.135   3.818 -0.0781  0.2893  0.1659
 1369TIP3    H125522   2.483   1.115   3.729 -1.0730 -1.5047  0.1807
 1369TIP3    H225523   2.450   1.049   3.861  0.5117  1.1179  2.0037
 1370TIP3   OH225524   2.783   4.540   0.182  0.4388 -0.3433  0.2698
 1370TIP3    H125525   2.859   4.548   0.239  1.9733  1.4861 -1.8372
 1370TIP3    H225526   2.762   4.447   0.182  2.2018 -0.7905  1.4852
 1371TIP3   OH225527   2.905   5.012   1.036 -0.3540  0.1635  0.1415
 1371TIP3    H125528   2.844   5.076   1.073  0.1347  1.0914 -0.6215
 1371TIP3    H225529   2.924   5.045   0.948  0.1046 -0.9047 -0.1726
 1372TIP3   OH225530   0.079   5.269   3.223  0.6815 -0.0926  0.0441
 1372TIP3    H125531   0.105   5.205   3.157  1.4524  0.8662 -0.6079
 1372TIP3    H225532  -0.004   5.235   3.257  0.9538 -1.3162 -0.4331
 1373TIP3   OH225533   5.148   3.908   5.952  0.3146  0.0865 -0.0027
 1373TIP3    H125534   5.196   3.825   5.952 -0.7280 -0.5322  0.0880
 1373TIP3    H225535   5.159   3.943   5.864  0.7773 -0.1325 -0.0342
 1374TIP3   OH225536   3.829   0.641   5.496  0.0949 -0.0504  0.4050
 1374TIP3    H125537   3.837   0.618   5.589 -0.6334  0.8547  0.7072
 1374TIP3    H225538   3.735   0.634   5.478  0.1830  0.1666 -0.1522
 1375TIP3   OH225539   6.249   6.061   0.529  0.2909  0.1656 -0.7999
 1375TIP3    H125540   6.201   6.123   0.583  1.1878  0.3367 -0.1793
 1375TIP3    H225541   6.184   6.028   0.467 -1.1168 -1.0682  1.2163
 1376TIP3   OH225542   4.244   0.821   4.046 -0.3871 -0.0068  0.3425
 1376TIP3    H125543   4.283   0.886   3.987 -0.0704 -0.7825 -0.3186
 1376TIP3    H225544   4.319   0.773   4.081 -0.6971 -2.0613 -1.5596
 1377TIP3   OH225545   1.027   2.021  17.120 -0.0142  0.5529  0.5210
 1377TIP3    H125546   1.090   2.036  17.190 -0.5298  0.1081  1.0915
 1377TIP3    H225547   1.075   2.041  17.039  1.4963 -1.6915  0.7706
 1378TIP3   OH225548   4.480   1.989   5.362  0.0948 -0.4046  0.0838
 1378TIP3    H125549   4.536   2.030   5.296  2.0011 -1.1160  1.1716
 1378TIP3    H225550   4.431   1.922   5.314  1.2702 -0.7485 -0.6859
 1379TIP3   OH225551   5.659   4.256   4.127  0.2866 -0.2804 -0.3614
 1379TIP3    H125552   5.571   4.217   4.119  0.7347 -1.2728 -0.6152
 1379TIP3    H225553   5.662   4.289   4.216 -1.0784  1.6286 -0.9683
 1380TIP3   OH225554   2.727   0.884  14.025 -0.3433  0.4106  0.2233
 1380TIP3    H125555   2.781   0.806  14.008 -0.1967  0.6305 -0.3286
 1380TIP3    H225556   2.754   0.947  13.959 -1.3935  0.4735 -0.1667
 1381TIP3   OH225557   2.798   2.863   0.674 -0.2793  0.3409  0.2692
 1381TIP3    H125558   2.772   2.831   0.760 -0.5548 -2.2552 -0.6915
 1381TIP3    H225559   2.725   2.839   0.617  1.2641 -0.9881 -1.2580
 1382TIP3   OH225560   6.130   2.223   1.251 -0.4963  0.3147  0.1704
 1382TIP3    H125561   6.060   2.264   1.200 -0.2067 -0.1150 -0.5865
 1382TIP3    H225562   6.171   2.161   1.191 -0.7707 -0.9321  1.2151
 1383TIP3   OH225563   3.819   2.210   0.336  0.1352 -0.6046  0.2441
 1383TIP3    H125564   3.773   2.235   0.256  0.6247  2.0488  0.7242
 1383TIP3    H225565   3.859   2.125   0.315  1.5194  0.6922 -2.8744
 1384TIP3   OH225566   2.144   6.266   5.129 -0.1829 -0.1772 -0.1242
 1384TIP3    H125567   2.087   6.266   5.206  1.4173  0.8072  1.1208
 1384TIP3    H225568   2.156   6.173   5.108 -0.9754 -0.4438  0.5379
 1385TIP3   OH225569   1.972   1.919  17.142  0.5126  0.2855 -0.0657
 1385TIP3    H125570   2.055   1.902  17.097  0.2900 -1.4088  0.1054
 1385TIP3    H225571   1.905   1.892  17.080  0.1282  0.2474  0.3605
 1386TIP3   OH225572   0.797   0.530   5.213  0.0249 -0.0168  0.3785
 1386TIP3    H125573   0.764   0.567   5.131  1.7783  0.5774 -0.0936
 1386TIP3    H225574   0.883   0.494   5.190  0.6605  0.3847  2.0024
 1387TIP3   OH225575   4.580   5.614  11.713  0.3108 -0.5863  0.4702
 1387TIP3    H125576   4.516   5.620  11.784 -0.5843 -0.5159 -0.3258
 1387TIP3    H225577   4.527   5.603  11.634  1.2291  0.4872 -0.3239
 1388TIP3   OH225578   6.268   0.692  14.795 -0.6147 -0.1665 -0.1378
 1388TIP3    H125579   6.203   0.745  14.841 -0.2950  1.7939 -1.7882
 1388TIP3    H225580   6.352   0.732  14.815 -0.4763  0.8585 -2.4065
 1389TIP3   OH225581   4.087   0.088   2.062 -0.3029  0.2875 -0.6512
 1389TIP3    H125582   4.148   0.122   1.997  0.0276  2.3137  0.6581
 1389TIP3    H225583   4.001   0.120   2.033 -0.2021  0.8952 -0.2784
 1390TIP3   OH225584   2.343   1.951  12.006 -0.0481 -0.3170 -0.5057
 1390TIP3    H125585   2.276   1.930  11.941 -0.1819  0.3520 -0.5837
 1390TIP3    H225586   2.301   2.012  12.066  0.5344  0.2275 -0.6440
 1391TIP3   OH225587   4.064   4.956   5.147  0.5653 -0.6440  0.0039
 1391TIP3    H125588   4.041   4.899   5.074 -0.6878 -1.9795  1.3348
 1391TIP3    H225589   4.159   4.962   5.145  0.5455 -0.3779 -1.8796
 1392TIP3   OH225590   2.067   0.689  11.669 -1.1859 -0.3873 -0.2653
 1392TIP3    H125591   2.029   0.776  11.678  2.1457  1.3193 -0.8681
 1392TIP3    H225592   2.018   0.649  11.597 -0.4047  2.5901 -2.6827
 1393TIP3   OH225593   5.634   2.077  13.869  0.0149 -1.1117  0.2582
 1393TIP3    H125594   5.673   2.121  13.793 -0.1928  0.0475  0.7933
 1393TIP3    H225595   5.611   1.990  13.837  1.6061 -1.2979 -0.4933
 1394TIP3   OH225596   4.660   0.374   3.435 -0.4650  0.0527  0.4588
 1394TIP3    H125597   4.635   0.453   3.388  1.0199  0.6258  0.5828
 1394TIP3    H225598   4.619   0.302   3.386 -1.4072  0.8449  0.0586
 1395TIP3   OH225599   5.246   5.287  11.455  0.1342 -0.2617  0.3054
 1395TIP3    H125600   5.244   5.370  11.504 -0.1447 -0.4687  0.6511
 1395TIP3    H225601   5.242   5.313  11.363  1.1610  0.1535  0.3702
 1396TIP3   OH225602   1.762   3.398  17.198  0.2992 -0.4893 -0.9527
 1396TIP3    H125603   1.801   3.475  17.157 -0.4706  0.0501 -0.7147
 1396TIP3    H225604   1.671   3.425  17.216  0.6678 -0.5952  1.3391
 1397TIP3   OH225605   5.138   5.425  11.205 -0.2980  0.0927  0.7317
 1397TIP3    H125606   5.150   5.520  11.193 -0.8192 -0.0976 -2.1089
 1397TIP3    H225607   5.052   5.407  11.167  0.2952 -1.6689  0.1202
 1398TIP3   OH225608   5.927   2.631  16.853 -0.3234 -0.6201  0.5514
 1398TIP3    H125609   5.892   2.709  16.809  2.2204 -0.6287 -1.8075
 1398TIP3    H225610   6.010   2.660  16.889  0.4070 -2.0975  0.1054
 1399TIP3   OH225611   5.318   0.205   1.889 -0.3108  0.3974 -0.1344
 1399TIP3    H125612   5.384   0.150   1.847 -0.2676  0.1965  0.2007
 1399TIP3    H225613   5.366   0.257   1.953 -0.0156  2.1720 -1.6795
 1400TIP3   OH225614   2.076   4.996   0.981 -0.0542  0.6239 -0.3028
 1400TIP3    H125615   1.981   5.006   0.984 -0.2457 -1.1882  1.1215
 1400TIP3    H225616   2.092   4.941   0.904  0.2102  3.5434 -2.5129
 1401TIP3   OH225617   2.628   2.757   5.976  0.9369 -0.2432  0.2803
 1401TIP3    H125618   2.720   2.731   5.968  1.3725  1.0593  0.7897
 1401TIP3    H225619   2.631   2.843   6.017 -0.5511 -0.4849  0.9695
 1402TIP3   OH225620   1.681   0.997   4.389  0.0697 -0.3399  0.3011
 1402TIP3    H125621   1.640   1.078   4.421 -0.3860 -0.5792  0.3293
 1402TIP3    H225622   1.739   1.026   4.319  0.0234  0.0317  0.4153
 1403TIP3   OH225623   0.758   6.651  16.880 -0.7387 -0.2797  0.7397
 1403TIP3    H125624   0.718   6.591  16.817 -0.6235  1.0461 -0.6383
 1403TIP3    H225625   0.831   6.691  16.832 -3.0015  3.7250  0.2497
 1404TIP3   OH225626   2.337   5.834   0.077 -0.0502 -0.9364  0.5534
 1404TIP3    H125627   2.371   5.857   0.163  2.0182  1.7771 -0.8594
 1404TIP3    H225628   2.290   5.912   0.048  3.3025  0.2074 -2.5852
 1405TIP3   OH225629   0.977   5.336   1.475  0.5103  0.3509  0.0187
 1405TIP3    H125630   0.960   5.246   1.446 -0.0053  0.1283  0.9693
 1405TIP3    H225631   0.918   5.390   1.421  2.2062  0.3723 -1.9609
 1406TIP3   OH225632   0.863   0.643  13.532  0.5187  0.2171 -0.1917
 1406TIP3    H125633   0.919   0.567  13.521  0.3260 -0.1810  1.2800
 1406TIP3    H225634   0.916   0.704  13.584 -0.2703 -0.0486  0.9707
 1407TIP3   OH225635   0.709   0.866   1.768 -0.1848  0.9398  0.2448
 1407TIP3    H125636   0.743   0.873   1.679 -2.6889 -0.9039 -0.9595
 1407TIP3    H225637   0.685   0.956   1.792  0.1089  1.3890 -1.0858
 1408TIP3   OH225638   4.672   3.486   3.447  0.1747 -0.4851 -0.4253
 1408TIP3    H125639   4.736   3.482   3.376  0.7170 -1.1339  0.0974
 1408TIP3    H225640   4.721   3.465   3.526 -0.3620  0.5152  0.2059
 1409TIP3   OH225641   1.845   0.949  10.785  0.4130  0.5141 -0.0993
 1409TIP3    H125642   1.881   0.888  10.850  1.6733 -0.3842 -1.5830
 1409TIP3    H225643   1.891   0.928  10.704 -0.7483  1.9549 -1.1858
 1410TIP3   OH225644   4.908   2.250   4.565 -0.3083 -0.1034  0.4223
 1410TIP3    H125645   4.923   2.161   4.597 -0.9973 -0.4817 -0.2629
 1410TIP3    H225646   4.990   2.297   4.584 -0.0318 -0.8109  1.0131
 1411TIP3   OH225647   1.683   4.888   4.672  0.5480  0.4996 -0.3721
 1411TIP3    H125648   1.770   4.872   4.637  1.3352 -0.9500  1.9903
 1411TIP3    H225649   1.623   4.846   4.610  1.4780  1.4218 -1.9638
 1412TIP3   OH225650   2.998   5.136   2.876  0.3853 -0.0272  0.3531
 1412TIP3    H125651   3.000   5.091   2.791 -0.6275  1.5142 -0.5313
 1412TIP3    H225652   3.072   5.196   2.873  1.3046 -1.0824  1.2403
 1413TIP3   OH225653   1.614   4.210   1.377  0.4412 -0.3518 -0.2833
 1413TIP3    H125654   1.671   4.269   1.427 -1.3358 -0.9490  2.7508
 1413TIP3    H225655   1.531   4.257   1.372 -0.3418 -1.6344  0.2073
 1414TIP3   OH225656   0.621   6.320   1.787  0.0069  0.7343 -0.2548
 1414TIP3    H125657   0.651   6.267   1.713 -0.9199 -1.4483  0.8531
 1414TIP3    H225658   0.538   6.359   1.756  0.8228  1.8291 -1.1632
 1415TIP3   OH225659   2.890   5.267   0.197  0.8011 -0.5205  0.1511
 1415TIP3    H125660   2.934   5.271   0.282  0.7302  0.5218  0.1511
 1415TIP3    H225661   2.886   5.358   0.168 -0.4868 -0.7076 -0.2944
 1416TIP3   OH225662   0.606   2.613  12.164  0.4827  0.3437 -0.5293
 1416TIP3    H125663   0.580   2.639  12.076 -0.0294  0.2671 -0.4069
 1416TIP3    H225664   0.589   2.690  12.218 -3.0137 -0.7570  0.2182
 1417TIP3   OH225665   1.081   4.717  13.913  0.3424 -0.0347  0.4875
 1417TIP3    H125666   1.052   4.724  14.004  0.1563  0.6897  0.3747
 1417TIP3    H225667   1.146   4.786  13.903 -3.1236  3.3547 -1.2381
 1418TIP3   OH225668   4.446   4.144  16.205  0.0568 -0.2004 -0.0808
 1418TIP3    H125669   4.509   4.104  16.264 -0.1589 -0.8458 -0.2707
 1418TIP3    H225670   4.392   4.199  16.261  1.2407  0.9459 -0.0295
 1419TIP3   OH225671   1.123   4.028   5.625  0.1821  0.8430  0.2862
 1419TIP3    H125672   1.030   4.018   5.645  0.6436  0.9361  2.9337
 1419TIP3    H225673   1.166   3.960   5.677  1.6949  1.8415  0.4140
 1420TIP3   OH225674   0.525   4.236   3.034 -0.8471  0.1711  0.3958
 1420TIP3    H125675   0.569   4.172   2.977 -2.5180 -0.4153 -0.2925
 1420TIP3    H225676   0.460   4.184   3.082 -0.5922  0.9589  1.6473
 1421TIP3   OH225677   4.758   3.238   2.160 -0.0737 -0.1358 -0.8109
 1421TIP3    H125678   4.782   3.157   2.204  0.2352  0.4296  0.0769
 1421TIP3    H225679   4.759   3.216   2.067  0.0080 -1.1450 -0.5779
 1422TIP3   OH225680   5.227   6.603  13.171 -0.1499  0.2413  0.0387
 1422TIP3    H125681   5.148   6.550  13.188  0.5638 -0.5936  0.8214
 1422TIP3    H225682   5.193   6.691  13.154 -1.3986 -0.4972 -1.6051
 1423TIP3   OH225683   4.821   3.335  15.290 -0.3788  0.2757  0.1350
 1423TIP3    H125684   4.899   3.345  15.344 -0.2014  1.9040 -0.3844
 1423TIP3    H225685   4.845   3.266  15.227 -0.4514 -1.3592  1.7986
 1424TIP3   OH225686   3.919   5.510   0.940 -0.0342  0.5237  0.1962
 1424TIP3    H125687   3.885   5.565   1.011  0.9474 -0.1626  1.2320
 1424TIP3    H225688   3.892   5.421   0.964  0.6200  0.2422 -0.0906
 1425TIP3   OH225689   3.940   3.209   2.566  0.5488 -0.1654  0.2884
 1425TIP3    H125690   3.990   3.134   2.599  0.6535 -0.3441 -0.2645
 1425TIP3    H225691   3.988   3.286   2.597  0.9435 -0.3342  0.1014
 1426TIP3   OH225692   3.183   4.687   2.261 -0.5246  0.1629 -0.8274
 1426TIP3    H125693   3.128   4.659   2.188 -1.9736  1.1922 -0.1935
 1426TIP3    H225694   3.234   4.760   2.227 -0.2372 -0.1917 -1.1615
 1427TIP3   OH225695   6.030   6.150   2.158 -0.3868  0.2503  0.6590
 1427TIP3    H125696   6.020   6.113   2.246 -1.7132 -1.6277 -0.1971
 1427TIP3    H225697   6.104   6.103   2.121 -0.2606  0.5425  0.5397
 1428TIP3   OH225698   1.160   0.304  16.093  0.4328 -0.4537 -0.3969
 1428TIP3    H125699   1.138   0.253  16.015 -2.0932 -1.4012  0.8241
 1428TIP3    H225700   1.155   0.241  16.165  2.1234  0.5145  0.6529
 1429TIP3   OH225701   1.116   2.495  16.090  0.8412  0.0577  0.2177
 1429TIP3    H125702   1.082   2.413  16.055  0.8607  0.5236 -0.9177
 1429TIP3    H225703   1.087   2.562  16.028  0.3795  0.9930  1.4025
 1430TIP3   OH225704   2.697   3.924   1.925  0.3973 -0.5322  0.0161
 1430TIP3    H125705   2.785   3.907   1.890 -0.2802 -1.7050 -1.2334
 1430TIP3    H225706   2.688   3.861   1.997  0.2733 -1.0213 -0.4196
 1431TIP3   OH225707   2.523   0.340   0.237  0.1862  0.1703 -0.0451
 1431TIP3    H125708   2.568   0.304   0.313 -1.1462 -2.8183 -0.5089
 1431TIP3    H225709   2.430   0.343   0.262 -0.1253  0.3286 -1.1290
 1432TIP3   OH225710   5.926   1.154  16.705 -0.3580 -0.5845  0.0942
 1432TIP3    H125711   5.901   1.245  16.722 -1.0439 -0.7368 -0.0575
 1432TIP3    H225712   6.010   1.143  16.750 -0.1704  0.1787 -0.0574
 1433TIP3   OH225713   6.081   3.108  13.714  0.2988  0.4674 -0.0581
 1433TIP3    H125714   6.082   3.181  13.652  2.2548  2.4235  2.0804
 1433TIP3    H225715   6.170   3.106  13.751  0.1380 -2.6388  0.4713
 1434TIP3   OH225716   0.040   5.991   5.847 -0.0546 -0.2619  0.2485
 1434TIP3    H125717   0.063   5.911   5.799  1.8301 -0.3227  1.1832
 1434TIP3    H225718   0.121   6.041   5.851 -0.6057  0.5683  1.7773
 1435TIP3   OH225719   6.327   4.485   5.374  0.3051  0.1792  0.1426
 1435TIP3    H125720   6.374   4.401   5.373  2.2400  1.1119 -3.1014
 1435TIP3    H225721   6.370   4.537   5.441 -0.5497 -1.1362  1.7965
 1436TIP3   OH225722   3.143   6.220   0.190 -0.0352  0.0770  0.0065
 1436TIP3    H125723   3.080   6.244   0.258 -0.5004  0.7187 -0.6247
 1436TIP3    H225724   3.221   6.191   0.237 -0.3283  0.5709  0.8088
 1437TIP3   OH225725   6.148   6.039   5.615 -0.3655 -0.3020  0.0522
 1437TIP3    H125726   6.238   6.010   5.631  0.0388  0.1796 -1.1914
 1437TIP3    H225727   6.139   6.034   5.520 -1.7893 -0.7057  0.1875
 1438TIP3   OH225728   4.908   5.483  13.019 -0.2240  0.0225  0.4948
 1438TIP3    H125729   4.961   5.561  13.002 -1.6622  0.4962 -2.2700
 1438TIP3    H225730   4.942   5.416  12.960 -1.0371 -0.4722  0.5688
 1439TIP3   OH225731   5.815   4.430   6.172 -0.4543  0.1058  0.3804
 1439TIP3    H125732   5.824   4.503   6.110  2.1427 -0.7038 -0.3393
 1439TIP3    H225733   5.865   4.457   6.249  1.4314 -1.2304 -0.2984
 1440TIP3   OH225734   2.952   5.310  11.798  0.0064 -0.1360  0.0459
 1440TIP3    H125735   2.947   5.298  11.703  1.9343  1.1053 -0.2560
 1440TIP3    H225736   3.043   5.292  11.820  0.3953  2.7354  1.1439
 1441TIP3   OH225737   3.629   4.581  14.398 -0.3028  0.2976  0.4772
 1441TIP3    H125738   3.699   4.529  14.360  0.0303  0.1611  1.2547
 1441TIP3    H225739   3.568   4.597  14.326  0.2045 -0.1336 -0.0481
 1442TIP3   OH225740   2.812   0.797  11.313 -0.2729  0.6870 -0.0948
 1442TIP3    H125741   2.750   0.808  11.241  0.1083  0.6578 -0.4350
 1442TIP3    H225742   2.790   0.712  11.352  0.1595  0.2248 -0.8241
 1443TIP3   OH225743   0.836   3.897  13.549  0.3962  0.1936 -0.4549
 1443TIP3    H125744   0.816   3.980  13.591  0.8302 -0.1632  0.5009
 1443TIP3    H225745   0.771   3.836  13.584  2.0999 -0.6275  1.5235
 1444TIP3   OH225746   2.851   4.259   2.372  0.2226 -0.6584 -0.3042
 1444TIP3    H125747   2.943   4.278   2.392 -0.1558 -0.6531  1.6118
 1444TIP3    H225748   2.807   4.345   2.375  0.1862 -0.6181 -1.5287
 1445TIP3   OH225749   2.009   4.829  12.769 -0.5288  0.1015  0.4960
 1445TIP3    H125750   1.966   4.837  12.684 -0.6780  1.5209  0.6848
 1445TIP3    H225751   1.942   4.854  12.833 -0.8517 -2.2352  1.1957
 1446TIP3   OH225752   4.752   2.436   4.011 -0.0715 -0.2673 -0.0262
 1446TIP3    H125753   4.740   2.503   3.944 -1.4448 -0.1608  0.2964
 1446TIP3    H225754   4.846   2.417   4.009 -0.0078  0.0245 -1.6882
 1447TIP3   OH225755   0.010   5.106  16.964 -0.6785 -0.2980 -0.2257
 1447TIP3    H125756   0.092   5.126  16.920  1.3066 -0.5719  3.0835
 1447TIP3    H225757   0.005   5.010  16.964  0.1524 -0.3701  1.4046
 1448TIP3   OH225758   0.230   6.485   0.574  0.0424  0.1487  0.3109
 1448TIP3    H125759   0.243   6.486   0.669  1.2902  2.1897  0.1817
 1448TIP3    H225760   0.275   6.406   0.545 -0.4495 -0.5593  1.4175
 1449TIP3   OH225761   6.628   0.782  14.267 -0.1563 -0.4177 -0.0370
 1449TIP3    H125762   6.676   0.858  14.299 -0.8709 -0.2614  0.7162
 1449TIP3    H225763   6.598   0.807  14.179 -0.0949  0.0404  0.0705
 1450TIP3   OH225764   0.319   6.253   4.464  0.0836  0.0596 -0.0389
 1450TIP3    H125765   0.226   6.234   4.473  0.1101 -0.6434 -1.0893
 1450TIP3    H225766   0.359   6.211   4.540 -0.5344  1.0631  0.8569
 1451TIP3   OH225767   2.163   1.449   1.892 -0.1920  0.0915  0.2752
 1451TIP3    H125768   2.111   1.490   1.962  1.9173  2.8795  0.3855
 1451TIP3    H225769   2.212   1.521   1.853  2.6062 -2.1273 -0.6666
 1452TIP3   OH225770   0.479   5.620  15.848  0.0338 -0.0296  0.5613
 1452TIP3    H125771   0.568   5.592  15.826 -0.4646  0.3040 -2.3197
 1452TIP3    H225772   0.422   5.565  15.794 -1.4963  0.2909  1.7655
 1453TIP3   OH225773   5.564   4.206   1.098  0.3662  0.1615 -0.5614
 1453TIP3    H125774   5.515   4.243   1.171  1.5368 -0.1561  0.4232
 1453TIP3    H225775   5.562   4.274   1.031  1.2537  1.4781  0.6682
 1454TIP3   OH225776   6.597   3.315   2.623 -0.0096 -0.3142  0.5190
 1454TIP3    H125777   6.656   3.336   2.551 -0.5072  0.3213  0.2864
 1454TIP3    H225778   6.650   3.328   2.702  0.7549 -1.7257  0.2664
 1455TIP3   OH225779   5.889   0.882   6.504  0.2273  0.0966 -0.0288
 1455TIP3    H125780   5.866   0.812   6.566  0.6098 -1.5306 -1.6479
 1455TIP3    H225781   5.984   0.878   6.497  0.0837 -0.9974 -2.0487
 1456TIP3   OH225782   2.575   2.317  13.830 -0.1037  0.4240 -0.0543
 1456TIP3    H125783   2.511   2.357  13.889  1.5408  0.1767  2.0118
 1456TIP3    H225784   2.647   2.379  13.826  0.9196 -0.7115  0.2922
 1457TIP3   OH225785   4.432   4.383  12.310 -0.3612  0.1758 -0.1511
 1457TIP3    H125786   4.411   4.291  12.327  0.7809 -0.0831 -0.0871
 1457TIP3    H225787   4.374   4.407  12.237 -2.1097  0.0088  1.1218
 1458TIP3   OH225788   5.236   5.787   5.131 -0.1575  0.0188 -0.2653
 1458TIP3    H125789   5.303   5.854   5.144 -1.2212  1.0317  0.1004
 1458TIP3    H225790   5.283   5.704   5.141  0.5027  0.6590  3.1103
 1459TIP3   OH225791   1.588   1.066  11.519  0.1451  0.1136  0.0357
 1459TIP3    H125792   1.519   1.094  11.459 -2.5286 -3.0236  1.3380
 1459TIP3    H225793   1.547   1.068  11.606  2.6040  0.6690  1.2819
 1460TIP3   OH225794   0.505   1.741  11.652  0.4418  0.0550 -0.0565
 1460TIP3    H125795   0.488   1.683  11.578  2.3801 -1.2414  0.4264
 1460TIP3    H225796   0.532   1.824  11.612 -0.3426 -0.0075 -0.7583
 1461TIP3   OH225797   1.526   4.763   4.483  0.1800  0.2630 -0.1437
 1461TIP3    H125798   1.439   4.731   4.508  0.3714 -0.2354 -0.0891
 1461TIP3    H225799   1.521   4.776   4.389  0.6003 -1.6482 -0.4841
 1462TIP3   OH225800   6.201   4.648  13.758  0.4652 -0.1702  0.1518
 1462TIP3    H125801   6.221   4.733  13.720 -1.1606 -0.4361 -1.4399
 1462TIP3    H225802   6.284   4.618  13.795  1.9386  0.5941 -2.3051
 1463TIP3   OH225803   0.174   2.850   1.310 -0.5354 -0.0388  0.1130
 1463TIP3    H125804   0.119   2.885   1.240 -0.4224  0.2389  0.1646
 1463TIP3    H225805   0.244   2.914   1.321  0.1602 -0.6941 -0.3844
 1464TIP3   OH225806   2.279   2.605   2.782 -0.3638  0.1876  0.6342
 1464TIP3    H125807   2.267   2.590   2.688 -0.9960 -1.3550  0.9418
 1464TIP3    H225808   2.194   2.585   2.821 -0.2205  1.1795  1.5140
 1465TIP3   OH225809   2.531   6.691  14.313  0.4640  0.1353  0.0607
 1465TIP3    H125810   2.625   6.679  14.321  0.2554 -2.4110 -0.4000
 1465TIP3    H225811   2.506   6.633  14.240 -1.1863  2.3455 -1.2629
 1466TIP3   OH225812   2.139   1.929   5.526  0.5973 -0.2410 -0.2831
 1466TIP3    H125813   2.055   1.922   5.480  0.7692  1.7436 -0.9973
 1466TIP3    H225814   2.140   1.854   5.585 -2.1642  0.2338  0.5224
 1467TIP3   OH225815   3.622   5.544   2.948  0.5124 -0.1008  0.6504
 1467TIP3    H125816   3.685   5.558   3.018 -1.0383  0.7053  1.9655
 1467TIP3    H225817   3.673   5.511   2.875  2.0950 -1.6882  2.3966
 1468TIP3   OH225818   5.737   2.620  13.541 -0.6532  0.0033 -0.2878
 1468TIP3    H125819   5.649   2.614  13.504 -0.6901 -3.1732  0.0604
 1468TIP3    H225820   5.739   2.555  13.611  1.2441  1.7534  1.4513
 1469TIP3   OH225821   4.965   2.400  13.257 -0.0380 -0.6557 -0.4668
 1469TIP3    H125822   4.952   2.470  13.321 -0.2356  0.6040 -1.8168
 1469TIP3    H225823   4.878   2.388  13.218  0.4557 -0.0464 -1.8048
 1470TIP3   OH225824   6.222   3.777  15.658 -0.0772 -0.9860 -0.1055
 1470TIP3    H125825   6.163   3.723  15.606  0.3653 -1.5537 -0.0253
 1470TIP3    H225826   6.280   3.715  15.701 -0.5561 -0.5390  1.2266
 1471TIP3   OH225827   2.510   3.386  13.715 -0.1036 -0.0352 -0.2348
 1471TIP3    H125828   2.537   3.373  13.806 -1.5263  0.4660  0.2768
 1471TIP3    H225829   2.530   3.302  13.673  0.0724 -0.4646  0.6682
 1472TIP3   OH225830   2.313   0.690   5.059  0.1164 -0.1136  0.1233
 1472TIP3    H125831   2.220   0.669   5.061  0.4029 -1.9938 -2.0771
 1472TIP3    H225832   2.317   0.783   5.083 -2.4068  0.2483 -0.5394
 1473TIP3   OH225833   3.594   3.151   0.365  0.2536  0.2713  0.0115
 1473TIP3    H125834   3.680   3.166   0.324 -0.2036 -0.2307 -1.1904
 1473TIP3    H225835   3.581   3.056   0.360  0.6693  0.0225  2.4262
 1474TIP3   OH225836   0.408   2.325   2.722  0.3108  0.6118  0.1894
 1474TIP3    H125837   0.378   2.237   2.747 -2.0633  1.2440 -0.2257
 1474TIP3    H225838   0.370   2.383   2.788  0.8164  1.4558 -0.2504
 1475TIP3   OH225839   5.865   6.556  12.404 -0.2679 -0.6336  0.3664
 1475TIP3    H125840   5.883   6.465  12.427 -2.2970 -0.2888  4.1696
 1475TIP3    H225841   5.786   6.552  12.350 -0.1381 -1.1397  0.2050
 1476TIP3   OH225842   0.354   3.334  16.311 -0.4829 -0.5919  0.4379
 1476TIP3    H125843   0.378   3.420  16.346  1.2444 -0.4473 -0.9354
 1476TIP3    H225844   0.409   3.273  16.361  2.3387 -0.3476 -2.0490
 1477TIP3   OH225845   1.587   5.597   1.475  0.1607  0.3896 -0.3844
 1477TIP3    H125846   1.511   5.655   1.464  0.3944  0.4472 -1.9219
 1477TIP3    H225847   1.551   5.509   1.472 -0.2400  0.3885  2.2965
 1478TIP3   OH225848   5.363   4.665  14.174  0.4277  0.2758 -0.3538
 1478TIP3    H125849   5.380   4.648  14.081  1.8523 -3.7104  0.4552
 1478TIP3    H225850   5.303   4.595  14.200  0.3229  1.1077  1.8258
 1479TIP3   OH225851   0.925   1.406  12.723  0.1669  0.1626  0.6046
 1479TIP3    H125852   0.973   1.398  12.641  0.2121  0.6790  0.5767
 1479TIP3    H225853   0.835   1.427  12.696 -0.6415 -2.9097  0.5630
 1480TIP3   OH225854   6.321   5.614  11.878 -0.6017  0.4891  0.7495
 1480TIP3    H125855   6.338   5.584  11.967  0.3444  0.8468  0.7012
 1480TIP3    H225856   6.243   5.669  11.885 -0.8540  0.0684  1.2577
 1481TIP3   OH225857   1.905   3.643  16.040 -0.4893 -0.1652  0.0683
 1481TIP3    H125858   1.890   3.734  16.066  2.5190  0.6557 -0.5740
 1481TIP3    H225859   1.999   3.630  16.055 -0.5807 -2.7413 -1.1373
 1482TIP3   OH225860   4.408   1.476   3.414  0.2616  0.4018  0.1059
 1482TIP3    H125861   4.355   1.457   3.336 -2.8719  1.8635  1.7056
 1482TIP3    H225862   4.444   1.563   3.398  1.2643 -0.0968 -0.4677
 1483TIP3   OH225863   2.369   4.619  14.076 -0.5459 -0.0978 -0.2228
 1483TIP3    H125864   2.464   4.620  14.090 -0.5375 -1.0244 -0.1655
 1483TIP3    H225865   2.358   4.573  13.993 -0.9851 -0.6397  0.1353
 1484TIP3   OH225866   1.791   2.475   0.833 -0.2191  0.0038  0.1787
 1484TIP3    H125867   1.775   2.381   0.837  0.5364 -0.1534 -0.2093
 1484TIP3    H225868   1.746   2.510   0.910 -0.2859 -0.7101  0.4781
 1485TIP3   OH225869   2.044   6.361  14.352 -0.2719  0.2145  0.4988
 1485TIP3    H125870   1.978   6.406  14.299 -0.7812 -1.5777 -0.4566
 1485TIP3    H225871   2.113   6.426  14.364 -1.4255  1.5830  0.0636
 1486TIP3   OH225872   4.560   1.268  14.610  0.2765  0.5043 -0.3281
 1486TIP3    H125873   4.575   1.174  14.598  1.0137  0.6613 -0.7391
 1486TIP3    H225874   4.527   1.276  14.699 -1.7000 -0.3364 -0.9223
 1487TIP3   OH225875   0.816   5.555   5.084  0.1062 -0.2044 -0.1956
 1487TIP3    H125876   0.893   5.499   5.088  2.0969  2.3210 -0.3694
 1487TIP3    H225877   0.747   5.505   5.127  2.0116 -2.3068  0.5852
 1488TIP3   OH225878   3.888   2.109  12.604  0.0225  0.0212 -0.0933
 1488TIP3    H125879   3.828   2.148  12.668 -0.2920  0.7533 -0.8097
 1488TIP3    H225880   3.975   2.135  12.634 -0.1070  0.1335  0.1911
 1489TIP3   OH225881   3.780   6.720  14.904  0.3022 -0.1176 -0.4285
 1489TIP3    H125882   3.860   6.762  14.934  0.5243 -0.6093 -0.3228
 1489TIP3    H225883   3.710   6.776  14.937  0.6264  1.3839 -2.1535
 1490TIP3   OH225884   1.168   0.721   4.589  0.4279 -0.2295 -0.1078
 1490TIP3    H125885   1.237   0.735   4.653 -0.7558 -0.5562  1.2829
 1490TIP3    H225886   1.183   0.631   4.557  1.0515 -0.0445 -0.3656
 1491TIP3   OH225887   1.185   6.632  16.312  0.0644 -0.0901 -0.0539
 1491TIP3    H125888   1.155   6.569  16.247 -1.9484  1.9705 -1.2830
 1491TIP3    H225889   1.275   6.606  16.332 -0.2633 -2.5185 -1.4462
 1492TIP3   OH225890   5.290   5.535   0.352  0.2764 -0.2723 -0.2172
 1492TIP3    H125891   5.264   5.625   0.331  0.3473 -0.7297 -2.5614
 1492TIP3    H225892   5.372   5.544   0.399 -0.6630  0.9313  1.3144
 1493TIP3   OH225893   2.335   3.746  11.813 -0.3689 -0.1222 -0.2685
 1493TIP3    H125894   2.418   3.785  11.841  0.8020 -3.3721  1.3736
 1493TIP3    H225895   2.271   3.778  11.876 -0.4389  2.2644 -1.4347
 1494TIP3   OH225896   5.677   4.371  16.509 -0.0792  0.0905  0.2809
 1494TIP3    H125897   5.635   4.301  16.459  1.3975 -0.2600 -0.5623
 1494TIP3    H225898   5.613   4.442  16.510 -0.9972 -0.7035 -0.2098
 1495TIP3   OH225899   3.484   0.124  16.170  0.2421 -0.5466 -0.5270
 1495TIP3    H125900   3.459   0.065  16.099  0.1917 -1.5008  0.2684
 1495TIP3    H225901   3.456   0.211  16.141  2.2378 -0.5355 -2.6914
 1496TIP3   OH225902   2.209   3.626   1.350  0.2847  0.0947 -0.2733
 1496TIP3    H125903   2.239   3.579   1.272  0.6761  0.8826 -0.6110
 1496TIP3    H225904   2.125   3.663   1.325  0.2742  0.1038 -0.2255
 1497TIP3   OH225905   0.772   3.414  15.948  0.3772  0.4792  0.3741
 1497TIP3    H125906   0.721   3.360  15.889  1.1612  0.5562 -0.3943
 1497TIP3    H225907   0.710   3.477  15.984 -0.4417 -0.5853  0.8855
 1498TIP3   OH225908   3.993   4.793  12.791  0.0234 -0.1670 -0.6391
 1498TIP3    H125909   4.009   4.791  12.697  0.5350 -0.6371 -0.5482
 1498TIP3    H225910   4.002   4.702  12.819 -1.4635 -0.2436 -0.3430
 1499TIP3   OH225911   5.821   0.394  14.565 -0.1230  0.4989 -0.2104
 1499TIP3    H125912   5.861   0.392  14.651 -2.4493 -2.9916  0.9952
 1499TIP3    H225913   5.737   0.438  14.578 -1.4363 -1.8918 -0.0703
 1500TIP3   OH225914   2.493   6.228   2.706  0.2455 -0.6240  0.2885
 1500TIP3    H125915   2.455   6.239   2.794 -1.9580 -0.4108 -0.6266
 1500TIP3    H225916   2.580   6.190   2.722  0.1551 -0.0101  2.5706
 1501TIP3   OH225917   3.899   2.998  15.271  0.5547  0.2123 -0.3732
 1501TIP3    H125918   3.805   2.988  15.252  0.1834  1.1550  0.8665
 1501TIP3    H225919   3.942   2.943  15.205 -0.9621 -2.6678  0.8548
 1502TIP3   OH225920   1.849   5.689  13.308 -0.1650  0.7802 -0.2060
 1502TIP3    H125921   1.889   5.751  13.247 -1.1154  2.6643  0.9795
 1502TIP3    H225922   1.809   5.623  13.252  1.5980  0.7313 -1.4974
 1503TIP3   OH225923   5.717   4.317  13.342 -0.7073  0.2670 -0.2961
 1503TIP3    H125924   5.808   4.324  13.312 -0.9868 -0.4300 -1.3655
 1503TIP3    H225925   5.705   4.392  13.401  0.3154  0.8225 -0.7721
 1504TIP3   OH225926   3.677   0.808  13.405  0.3122 -0.4182 -0.3370
 1504TIP3    H125927   3.635   0.825  13.321 -0.0713 -1.7883 -0.4318
 1504TIP3    H225928   3.764   0.777  13.383  0.1586 -0.9286 -0.2470
 1505TIP3   OH225929   1.655   4.619   5.427 -0.1610 -0.1996  0.1578
 1505TIP3    H125930   1.623   4.549   5.370 -1.5925  0.4614  0.1200
 1505TIP3    H225931   1.599   4.694   5.407  0.7456  0.6946  0.8645
 1506TIP3   OH225932   6.653   2.244  12.213 -0.3424  0.4953  0.6844
 1506TIP3    H125933   6.698   2.328  12.214  1.1019 -0.1938 -1.2273
 1506TIP3    H225934   6.721   2.179  12.230 -0.8515 -0.4680 -0.7354
 1507TIP3   OH225935   3.299   6.645   1.981 -0.4332  0.1250  0.2074
 1507TIP3    H125936   3.257   6.729   1.999  1.3112  1.3675 -1.2108
 1507TIP3    H225937   3.265   6.619   1.895 -0.3189 -0.2120  0.2599
 1508TIP3   OH225938   4.995   6.718   4.419 -0.4711 -0.4622 -0.0221
 1508TIP3    H125939   5.084   6.691   4.440 -1.0065 -1.6578  0.7833
 1508TIP3    H225940   4.987   6.704   4.324  1.2406  2.8753 -0.8080
 1509TIP3   OH225941   0.259   0.219  16.233  0.3289 -0.1486  0.3621
 1509TIP3    H125942   0.308   0.141  16.209  1.8206 -0.2349  3.2460
 1509TIP3    H225943   0.244   0.210  16.327 -0.0112  2.7230  0.6726
 1510TIP3   OH225944   1.783   5.247   4.898 -0.2779  0.2950 -0.3093
 1510TIP3    H125945   1.795   5.319   4.959 -0.0899  0.4894 -0.5714
 1510TIP3    H225946   1.802   5.285   4.812 -1.6878  0.3148 -0.6267
 1511TIP3   OH225947   4.983   4.118   0.651 -0.1327  0.3066 -0.3833
 1511TIP3    H125948   4.995   4.033   0.609 -2.7956  0.4986 -1.7203
 1511TIP3    H225949   5.005   4.102   0.743  0.6827 -1.4717 -0.8319
 1512TIP3   OH225950   4.676   6.383  14.698  0.8294  0.2661  0.1355
 1512TIP3    H125951   4.628   6.452  14.745 -1.0531 -1.4482  0.9155
 1512TIP3    H225952   4.694   6.421  14.612 -1.8334  1.1171 -0.1430
 1513TIP3   OH225953   0.846   2.361   5.193 -0.2515  0.2799  0.2462
 1513TIP3    H125954   0.785   2.320   5.132 -1.5198  1.3955  0.7131
 1513TIP3    H225955   0.795   2.375   5.273  1.1288 -0.3971  1.3043
 1514TIP3   OH225956   1.813   0.981   4.878  0.1839 -0.0067 -0.1431
 1514TIP3    H125957   1.741   0.918   4.882  0.9131 -0.7736  1.4653
 1514TIP3    H225958   1.798   1.028   4.796 -1.5622 -0.8383 -0.3513
 1515TIP3   OH225959   2.928   5.763   0.018 -0.0946 -0.2383  0.3021
 1515TIP3    H125960   2.990   5.835   0.024 -0.4451  0.1248 -0.3129
 1515TIP3    H225961   2.961   5.708  -0.053 -0.3803 -0.1396  0.0947
 1516TIP3   OH225962   0.248   5.463   3.144 -0.1577 -0.1096 -0.1210
 1516TIP3    H125963   0.330   5.413   3.138  0.3930  0.2108  2.8513
 1516TIP3    H225964   0.182   5.397   3.164 -0.2174 -0.1309 -0.3917
 1517TIP3   OH225965   0.420   1.660   2.157 -0.4960  0.6285  0.2447
 1517TIP3    H125966   0.431   1.619   2.243  0.2872 -0.1982 -0.2326
 1517TIP3    H225967   0.329   1.692   2.157 -0.2298  1.4826  1.7166
 1518TIP3   OH225968   5.755   0.973  16.125  0.0558  0.2021  0.0260
 1518TIP3    H125969   5.755   0.885  16.086 -1.0922 -0.0453  0.5423
 1518TIP3    H225970   5.791   0.960  16.213 -0.6203  0.1309  0.3042
 1519TIP3   OH225971   2.767   2.743  15.876  0.2099  0.6357  0.6097
 1519TIP3    H125972   2.724   2.772  15.956  1.7301  0.6542  1.4539
 1519TIP3    H225973   2.817   2.819  15.846  0.1111  0.4520 -0.0435
 1520TIP3   OH225974   3.623   0.676   3.545  0.8402  0.3752 -0.0093
 1520TIP3    H125975   3.661   0.743   3.489  0.8599  0.4433  0.0855
 1520TIP3    H225976   3.681   0.674   3.622 -0.3838  1.7702  0.9909
 1521TIP3   OH225977   1.835   5.302  14.880 -0.5199 -0.2459 -0.5052
 1521TIP3    H125978   1.922   5.266  14.865 -0.4607 -0.3175 -0.0208
 1521TIP3    H225979   1.781   5.226  14.899 -0.8933 -0.2943 -1.6768
 1522TIP3   OH225980   6.755   2.802  10.675 -0.8651  0.6156  0.1168
 1522TIP3    H125981   6.712   2.824  10.592 -0.7032  0.2174 -0.0728
 1522TIP3    H225982   6.742   2.880  10.729 -1.0507  0.8436 -0.2488
 1523TIP3   OH225983   6.025   3.336  14.685  0.2771  0.7119  0.4460
 1523TIP3    H125984   5.960   3.399  14.717 -1.7856 -0.7066 -0.7243
 1523TIP3    H225985   6.032   3.354  14.591  1.6429  0.8704  0.5649
 1524TIP3   OH225986   1.135   5.493  15.549  0.2616  0.3547  0.4832
 1524TIP3    H125987   1.166   5.533  15.630  0.4662  1.3762 -0.0889
 1524TIP3    H225988   1.125   5.566  15.488  1.1860 -0.5219 -0.7683
 1525TIP3   OH225989   5.796   6.474   4.126  0.3103 -0.0041  0.1249
 1525TIP3    H125990   5.830   6.507   4.043 -1.4222 -0.4178 -0.7999
 1525TIP3    H225991   5.857   6.507   4.192  0.2465  2.6530 -1.0317
 1526TIP3   OH225992   2.603   5.442   2.525  0.3186 -0.1063  0.4161
 1526TIP3    H125993   2.587   5.366   2.580 -0.2496 -1.1493 -1.1027
 1526TIP3    H225994   2.530   5.501   2.545 -1.3058 -1.5391 -0.9206
 1527TIP3   OH225995   2.725   0.838   1.771 -0.4866  0.2521 -0.3230
 1527TIP3    H125996   2.667   0.854   1.696 -0.6138 -0.3022 -0.3468
 1527TIP3    H225997   2.692   0.897   1.839  0.8309  2.2180 -1.2969
 1528TIP3   OH225998   1.822   0.603  13.908  0.4894  0.0873 -0.2769
 1528TIP3    H125999   1.822   0.680  13.851  0.2513  0.0252 -0.3636
 1528TIP3    H226000   1.778   0.632  13.987 -2.7768 -0.8588 -1.5790
 1529TIP3   OH226001   5.494   6.103  15.166 -0.2748 -0.4300 -0.4757
 1529TIP3    H126002   5.403   6.128  15.153  0.2559  2.1190  0.2462
 1529TIP3    H226003   5.493   6.047  15.244 -1.3894 -2.0424 -1.5804
 1530TIP3   OH226004   0.597   6.060  13.330  0.2340  0.1087 -0.1688
 1530TIP3    H126005   0.567   6.142  13.367  0.6035  0.1709 -0.0025
 1530TIP3    H226006   0.521   6.002  13.335 -0.2255  0.6379 -0.9019
 1531TIP3   OH226007   3.444   2.457  11.765 -0.7427  0.1982  0.1791
 1531TIP3    H126008   3.395   2.377  11.782 -1.4616  0.5631 -0.0955
 1531TIP3    H226009   3.451   2.461  11.670  1.6561 -0.9016  0.2570
 1532TIP3   OH226010   1.828   0.129   0.813 -0.0236  0.0145  0.1189
 1532TIP3    H126011   1.854   0.044   0.849 -2.4580 -0.6966  0.4021
 1532TIP3    H226012   1.859   0.127   0.723  0.7258 -0.7947  0.3804
 1533TIP3   OH226013   2.500   5.588  14.914  0.1784 -0.1722  0.4336
 1533TIP3    H126014   2.476   5.540  14.993  0.6282  0.3915  0.9333
 1533TIP3    H226015   2.504   5.522  14.845  0.8969 -0.8754  1.1251
 1534TIP3   OH226016   1.298   4.451  14.185  0.4147 -0.0091  0.1564
 1534TIP3    H126017   1.393   4.439  14.180  0.7709  2.3777  0.1185
 1534TIP3    H226018   1.275   4.424  14.274  1.3246  0.3645  0.5177
 1535TIP3   OH226019   6.260   4.644  11.943 -0.3017 -1.3651 -0.3341
 1535TIP3    H126020   6.256   4.716  11.880 -0.4489 -0.9583  0.1331
 1535TIP3    H226021   6.354   4.629  11.956 -0.2308  0.0783  1.0536
 1536TIP3   OH226022   2.379   2.915   5.655 -0.0573  0.1791  0.5894
 1536TIP3    H126023   2.441   2.845   5.675 -0.6834 -1.2047 -1.8193
 1536TIP3    H226024   2.425   2.995   5.679  3.0868 -0.7070 -1.7373
 1537TIP3   OH226025   4.420   0.130   2.163 -1.2286  1.2525 -0.4197
 1537TIP3    H126026   4.414   0.064   2.232 -1.8763  0.3395 -1.3042
 1537TIP3    H226027   4.329   0.143   2.134 -0.9509  1.4871 -1.2099
 1538TIP3   OH226028   3.888   5.409  12.815 -0.6467  0.4107 -0.3153
 1538TIP3    H126029   3.943   5.422  12.892 -0.4708 -2.2917  0.1275
 1538TIP3    H226030   3.809   5.367  12.848 -1.7373  1.5772 -1.3246
 1539TIP3   OH226031   2.018   6.655  12.999 -0.2168 -0.3402  0.2760
 1539TIP3    H126032   2.098   6.702  13.024  0.5326 -1.3112 -0.2060
 1539TIP3    H226033   2.036   6.624  12.910 -1.7529  0.7247 -0.4445
 1540TIP3   OH226034   4.266   5.424   6.299  0.0787  0.3014 -0.3310
 1540TIP3    H126035   4.213   5.354   6.261 -2.8444  1.7445  0.7020
 1540TIP3    H226036   4.233   5.433   6.388  0.2567  3.0068 -0.4526
 1541TIP3   OH226037   3.362   2.213   0.330 -0.9662  0.4960  0.4435
 1541TIP3    H126038   3.371   2.265   0.410 -1.6498  2.4128 -0.6692
 1541TIP3    H226039   3.418   2.137   0.345  0.1108  1.5593  2.1401
 1542TIP3   OH226040   2.802   5.664  16.422 -0.6059  0.4011  0.2933
 1542TIP3    H126041   2.739   5.629  16.485 -0.5460  2.3195  1.4654
 1542TIP3    H226042   2.750   5.722  16.366 -0.0027  1.4965  0.8581
 1543TIP3   OH226043   4.154   1.934  14.051  0.0073 -0.4712 -0.2840
 1543TIP3    H126044   4.135   2.018  14.009 -1.2730  0.3275  1.7564
 1543TIP3    H226045   4.249   1.934  14.061  0.1248  0.2713 -1.1808
 1544TIP3   OH226046   4.862   4.145  13.965  0.1860  0.0339 -0.1214
 1544TIP3    H126047   4.842   4.139  13.872 -0.1929 -0.0702 -0.0336
 1544TIP3    H226048   4.779   4.124  14.009  0.0290  1.3025  0.2235
 1545TIP3   OH226049   2.297   2.149   5.451  0.0704 -0.7731  0.6307
 1545TIP3    H126050   2.263   2.061   5.466 -1.4304 -0.8394 -2.3137
 1545TIP3    H226051   2.227   2.208   5.479  0.3354 -0.5890  0.9172
 1546TIP3   OH226052   3.887   0.547   2.388 -0.7406  0.3333  0.0001
 1546TIP3    H126053   3.950   0.581   2.451 -0.5915 -0.5284  0.3336
 1546TIP3    H226054   3.940   0.496   2.327 -1.3262 -3.0792  2.0512
 1547TIP3   OH226055   1.864   0.138  11.796 -0.3239 -0.4466 -0.2352
 1547TIP3    H126056   1.857   0.138  11.700 -2.0056 -2.1503 -0.1797
 1547TIP3    H226057   1.773   0.141  11.827  0.1789 -0.2466  1.2942
 1548TIP3   OH226058   6.710   1.521   5.802  0.0122 -0.6048  0.2213
 1548TIP3    H126059   6.704   1.460   5.876  0.0801 -0.8709  0.0109
 1548TIP3    H226060   6.713   1.464   5.725  1.8635 -0.4171  0.1112
 1549TIP3   OH226061   2.234   5.422  12.486  0.5187  0.4093 -0.3896
 1549TIP3    H126062   2.185   5.451  12.409  0.9020  1.8529 -0.1194
 1549TIP3    H226063   2.200   5.334  12.504  2.0438 -1.0223 -3.5682
 1550TIP3   OH226064   1.609   4.674   3.915  0.1079  0.1648 -0.2121
 1550TIP3    H126065   1.622   4.749   3.973  0.6080  0.5528 -0.8124
 1550TIP3    H226066   1.692   4.627   3.918  0.1888  0.2716 -0.7243
 1551TIP3   OH226067   5.436   4.221  12.856 -0.5420 -0.2162 -0.0277
 1551TIP3    H126068   5.437   4.263  12.941 -0.4226 -1.0955  0.4131
 1551TIP3    H226069   5.436   4.127  12.875 -2.0274 -0.4409 -0.9623
 1552TIP3   OH226070   5.622   4.896   6.040  0.8319  0.3434  0.2861
 1552TIP3    H126071   5.554   4.894   5.973  0.7212 -2.0903  0.3679
 1552TIP3    H226072   5.705   4.890   5.992  0.8671  0.9597  0.2723
 1553TIP3   OH226073   1.487   0.419   0.310  0.3375  0.1466 -0.2713
 1553TIP3    H126074   1.575   0.382   0.301  0.3825 -0.1772  1.1949
 1553TIP3    H226075   1.429   0.351   0.278  0.5489 -0.2657  0.2054
 1554TIP3   OH226076   5.920   2.898  13.696 -0.1251  0.6488  0.3857
 1554TIP3    H126077   5.964   2.981  13.680  0.7524  0.0835 -0.2785
 1554TIP3    H226078   5.954   2.840  13.628 -0.8883 -0.1930  0.6985
 1555TIP3   OH226079   4.003   0.486   1.639 -0.6934 -0.3575  0.4282
 1555TIP3    H126080   3.968   0.481   1.728 -1.1602 -4.3640  0.2330
 1555TIP3    H226081   4.081   0.429   1.642  0.3401  0.8797 -1.3437
 1556TIP3   OH226082   1.179   0.852  17.155  0.4074 -0.2731  0.2326
 1556TIP3    H126083   1.224   0.936  17.152 -3.2077  1.8488 -0.7243
 1556TIP3    H226084   1.126   0.855  17.234 -0.8948 -0.9572 -0.5665
 1557TIP3   OH226085   4.049   6.114   0.094  0.1243  0.0173 -0.0931
 1557TIP3    H126086   4.116   6.074   0.039  0.5214  1.5319 -0.7369
 1557TIP3    H226087   3.998   6.039   0.126  0.2230 -0.9578 -2.0394
 1558TIP3   OH226088   1.377   2.519   1.371 -0.3168 -0.1330 -0.1127
 1558TIP3    H126089   1.384   2.425   1.356  0.2003 -0.3030  1.0616
 1558TIP3    H226090   1.435   2.558   1.307 -3.8270 -0.2235 -3.7879
 1559TIP3   OH226091   5.446   2.505   5.183  0.1853 -0.2801 -0.0327
 1559TIP3    H126092   5.519   2.516   5.244  1.0453 -0.3347 -1.0198
 1559TIP3    H226093   5.422   2.413   5.189 -0.6472 -0.0051  1.2049
 1560TIP3   OH226094   5.805   0.196   6.192 -0.4750 -0.7241 -0.0787
 1560TIP3    H126095   5.898   0.177   6.182 -0.5103 -0.4850 -1.0084
 1560TIP3    H226096   5.794   0.216   6.284  0.2915 -1.2938  0.1477
 1561TIP3   OH226097   2.232   5.214  11.471  0.0266 -0.0635 -0.2639
 1561TIP3    H126098   2.237   5.307  11.450  2.0590  0.9114  3.6444
 1561TIP3    H226099   2.144   5.202  11.507 -0.1691  0.3483 -0.5933
 1562TIP3   OH226100   2.698   1.456  14.070  0.0786  0.2008  0.3645
 1562TIP3    H126101   2.700   1.362  14.085 -1.8361  0.2591  1.2288
 1562TIP3    H226102   2.683   1.465  13.975  0.7581 -0.3262  0.1994
 1563TIP3   OH226103   2.672   4.054  12.182 -0.4776 -0.1436  0.0134
 1563TIP3    H126104   2.744   4.003  12.145  0.2417 -0.7044  2.0144
 1563TIP3    H226105   2.607   3.988  12.208 -1.1729  0.2674 -0.6523
 1564TIP3   OH226106   2.307   3.865  13.841  0.2206  0.5228 -1.0839
 1564TIP3    H126107   2.275   3.935  13.785 -0.1745 -0.2555 -1.8595
 1564TIP3    H226108   2.398   3.888  13.860 -0.1806  1.7259 -0.5315
 1565TIP3   OH226109   4.924   2.872  12.059 -0.2957 -0.2041  0.1333
 1565TIP3    H126110   4.932   2.919  12.142 -1.9645 -0.7667  0.6673
 1565TIP3    H226111   4.975   2.792  12.071 -1.2070 -0.6854  0.9657
 1566TIP3   OH226112   6.405   2.898   1.568  0.0330  0.1895  0.2949
 1566TIP3    H126113   6.382   2.951   1.491 -0.0925  0.3942  0.4738
 1566TIP3    H226114   6.458   2.826   1.532 -0.4343  0.0114 -0.0472
 1567TIP3   OH226115   4.339   4.060  15.146 -0.2100  0.0028  0.0028
 1567TIP3    H126116   4.377   4.041  15.060 -0.4114  2.0265 -0.5864
 1567TIP3    H226117   4.336   4.155  15.150 -0.8390 -0.0625  1.9967
 1568TIP3   OH226118   3.527   1.904   4.575  0.0307 -0.0123 -0.2501
 1568TIP3    H126119   3.539   1.835   4.640 -0.7904  2.0811  2.2709
 1568TIP3    H226120   3.570   1.870   4.496  2.2627 -2.1379  1.7218
 1569TIP3   OH226121   1.603   1.084   5.309  0.3172  0.4368 -0.2220
 1569TIP3    H126122   1.510   1.062   5.307  0.3554 -0.0655  1.7794
 1569TIP3    H226123   1.606   1.177   5.332  0.2859 -0.1398  2.4115
 1570TIP3   OH226124   2.603   1.090  10.859 -0.4657 -0.4766 -0.1868
 1570TIP3    H126125   2.666   1.026  10.824  0.3226 -0.1360  0.5892
 1570TIP3    H226126   2.570   1.135  10.781  0.4151 -0.5152 -0.5946
 1571TIP3   OH226127   2.270   3.522   0.505  0.2520 -0.7506  0.4304
 1571TIP3    H126128   2.262   3.592   0.440  1.0129 -1.5773 -0.5998
 1571TIP3    H226129   2.181   3.506   0.534 -0.3072 -1.2654 -1.4304
 1572TIP3   OH226130   3.838   2.434  11.200  0.1538  0.4504 -0.2474
 1572TIP3    H126131   3.916   2.390  11.167  0.3423  0.2766  0.4261
 1572TIP3    H226132   3.870   2.492  11.269 -0.3615  0.1045  0.2840
 1573TIP3   OH226133   4.455   4.388  15.550  0.1326  0.7437  0.1148
 1573TIP3    H126134   4.423   4.347  15.630 -2.2504 -1.3243 -1.7384
 1573TIP3    H226135   4.413   4.474  15.548  1.3747  1.4393  1.7091
 1574TIP3   OH226136   5.835   6.641   1.464  0.3441 -0.0877  0.4741
 1574TIP3    H126137   5.891   6.587   1.520 -0.2187 -2.2638 -0.9518
 1574TIP3    H226138   5.751   6.596   1.463 -1.2800  2.6183  1.8319
 1575TIP3   OH226139   5.416   5.365   4.999 -0.2683 -0.2403 -0.2261
 1575TIP3    H126140   5.489   5.353   5.061  0.6090  2.9591 -0.4692
 1575TIP3    H226141   5.357   5.425   5.044 -0.2956  1.0540 -1.9197
 1576TIP3   OH226142   4.168   0.592   6.112 -0.4086 -0.6636  0.4658
 1576TIP3    H126143   4.134   0.564   6.197 -3.1170 -1.0993 -0.6296
 1576TIP3    H226144   4.209   0.513   6.076 -1.6770 -1.2816  0.3073
 1577TIP3   OH226145   5.090   3.333   3.662  0.4086 -0.6963  0.7774
 1577TIP3    H126146   5.119   3.266   3.599  0.1441 -2.2244  2.2211
 1577TIP3    H226147   5.149   3.323   3.737 -0.8209 -0.5743  1.7802
 1578TIP3   OH226148   3.869   6.694  12.556 -0.4985 -0.0486  0.3744
 1578TIP3    H126149   3.952   6.692  12.605 -0.4382 -2.3058  0.3184
 1578TIP3    H226150   3.803   6.665  12.620 -0.8286 -0.5632 -0.1871
 1579TIP3   OH226151   5.538   1.507  11.312  0.2502 -0.3518  0.2602
 1579TIP3    H126152   5.454   1.500  11.267  0.7310 -0.9735 -0.5636
 1579TIP3    H226153   5.550   1.422  11.354  1.0923 -0.7603 -0.7693
 1580TIP3   OH226154   2.501   2.335  16.666  0.0766  0.6209  0.1321
 1580TIP3    H126155   2.423   2.280  16.661  2.1661 -2.5265 -2.5308
 1580TIP3    H226156   2.551   2.299  16.739  0.0567  1.1754  0.4253
 1581TIP3   OH226157   5.838   4.419   2.847  0.0471 -0.3595  0.0478
 1581TIP3    H126158   5.796   4.409   2.932  0.8179 -0.8938  0.3672
 1581TIP3    H226159   5.931   4.414   2.865  0.1967 -1.3588 -0.9389
 1582TIP3   OH226160   5.298   0.264  14.693 -0.2043 -0.0989  0.4286
 1582TIP3    H126161   5.366   0.329  14.676 -0.5231 -0.2465 -1.8368
 1582TIP3    H226162   5.345   0.188  14.726  0.5349  0.3272  0.3761
 1583TIP3   OH226163   2.600   1.079   2.405  0.1479 -0.2396  0.2282
 1583TIP3    H126164   2.597   1.107   2.497  0.7136 -0.5580  0.3481
 1583TIP3    H226165   2.513   1.043   2.388 -0.3607  0.8969  0.2861
 1584TIP3   OH226166   2.072   1.072   4.977 -0.0104 -0.1387 -0.0925
 1584TIP3    H126167   2.029   1.082   5.061  0.3952 -1.1090  0.2490
 1584TIP3    H226168   2.014   1.014   4.927  0.0073  0.0200 -0.3028
 1585TIP3   OH226169   1.331   0.214   0.189  0.6180 -0.0277 -0.6079
 1585TIP3    H126170   1.238   0.195   0.206  0.8507  1.0457  2.4712
 1585TIP3    H226171   1.370   0.128   0.173 -0.4985 -0.7872  0.5331
 1586TIP3   OH226172   0.904   4.433   3.614 -0.2301 -0.3843 -0.6501
 1586TIP3    H126173   0.986   4.474   3.643 -2.2008  3.2581  0.4961
 1586TIP3    H226174   0.914   4.424   3.519  1.0264  1.2978 -0.7333
 1587TIP3   OH226175   6.703   6.590   4.538  0.1005  0.1469  0.0093
 1587TIP3    H126176   6.798   6.573   4.539  0.3570  1.2753 -1.3797
 1587TIP3    H226177   6.672   6.542   4.461 -0.0331  1.6124 -0.8894
 1588TIP3   OH226178   5.193   0.531   1.360  0.6207  0.0070  0.0404
 1588TIP3    H126179   5.228   0.587   1.290 -0.2311  1.2327  0.5632
 1588TIP3    H226180   5.245   0.553   1.437 -0.0600  0.4700  0.3725
 1589TIP3   OH226181   1.006   3.148  14.287 -0.4897 -0.2355 -0.2363
 1589TIP3    H126182   1.011   3.243  14.284 -0.4367 -0.1734  1.2071
 1589TIP3    H226183   0.983   3.122  14.198  2.5173  0.9317 -1.4927
 1590TIP3   OH226184   1.086   5.851   1.300 -0.4879  0.0658  0.2288
 1590TIP3    H126185   1.012   5.900   1.335 -1.4654 -1.5193  0.4910
 1590TIP3    H226186   1.137   5.916   1.251 -2.5409  1.0390 -0.7608
 1591TIP3   OH226187   3.476   2.148  14.572 -0.3151  0.1805 -0.5854
 1591TIP3    H126188   3.553   2.144  14.516 -0.0253 -0.0526 -0.1811
 1591TIP3    H226189   3.491   2.224  14.628 -0.8058  0.6697 -1.1060
 1592TIP3   OH226190   5.159   5.884   4.165 -0.1592 -0.4441  1.0929
 1592TIP3    H126191   5.148   5.818   4.097  0.0810 -0.2502  0.8646
 1592TIP3    H226192   5.238   5.857   4.212  0.4133  0.1227  0.4840
 1593TIP3   OH226193   0.577   1.942  16.556 -0.0060  0.2625  0.4477
 1593TIP3    H126194   0.577   1.998  16.634 -0.3109 -0.4513  0.9823
 1593TIP3    H226195   0.484   1.925  16.539  0.0936 -0.4541  0.5814
 1594TIP3   OH226196   2.059   1.500  15.050 -0.6429  0.3811  0.6947
 1594TIP3    H126197   1.984   1.459  15.008 -1.0089  2.3274 -0.7050
 1594TIP3    H226198   2.035   1.507  15.143 -1.7081 -0.0462  0.4555
 1595TIP3   OH226199   3.858   3.702  14.856 -0.4072 -0.1724 -0.1780
 1595TIP3    H126200   3.916   3.779  14.856 -2.4015  1.4268  0.2045
 1595TIP3    H226201   3.843   3.684  14.763  0.0863 -0.1115 -0.2711
 1596TIP3   OH226202   0.410   3.673  11.887 -0.3731  0.2649  0.2752
 1596TIP3    H126203   0.491   3.673  11.835 -0.0149 -0.1903  0.8248
 1596TIP3    H226204   0.414   3.754  11.937  0.0637 -0.0545  0.7754
 1597TIP3   OH226205   3.834   6.404  16.694 -0.4229 -0.3317 -0.2269
 1597TIP3    H126206   3.770   6.463  16.656  0.3517  0.4244 -0.3779
 1597TIP3    H226207   3.781   6.339  16.741 -1.3148 -0.1224 -0.9094
 1598TIP3   OH226208   0.229   3.098  13.263  0.7512 -0.1618 -0.8922
 1598TIP3    H126209   0.249   3.142  13.180 -1.6510  1.0910 -0.9073
 1598TIP3    H226210   0.146   3.053  13.246  0.2237  0.1007  0.8093
 1599TIP3   OH226211   1.987   4.691  16.463 -0.5440 -0.0517 -0.1912
 1599TIP3    H126212   1.987   4.707  16.557  1.0981 -0.4503 -0.0954
 1599TIP3    H226213   2.058   4.747  16.429 -2.3778  1.6308 -1.5031
 1600TIP3   OH226214   4.924   6.075  13.333 -0.2783  0.4383  0.1735
 1600TIP3    H126215   4.912   6.068  13.239 -1.2716  0.6000  0.2751
 1600TIP3    H226216   4.865   6.145  13.360 -0.8516 -0.3576  1.0661
 1601TIP3   OH226217   5.546   5.421  17.239 -0.6198 -0.1954  0.0536
 1601TIP3    H126218   5.468   5.365  17.239 -1.9188  1.5114 -1.3708
 1601TIP3    H226219   5.533   5.481  17.313 -1.3619  0.9515 -0.9740
 1602TIP3   OH226220   0.755   6.066   2.402  0.0478  0.3018 -0.6097
 1602TIP3    H126221   0.692   6.057   2.473  1.3065 -0.4677  0.4767
 1602TIP3    H226222   0.764   6.160   2.389 -1.0655  0.4259 -0.5620
 1603TIP3   OH226223   6.129   1.991  13.990 -0.3173 -0.6517  0.3787
 1603TIP3    H126224   6.188   2.057  14.027 -1.1167  1.0184 -1.1467
 1603TIP3    H226225   6.050   1.997  14.043 -1.2987  1.4337 -1.1273
 1604TIP3   OH226226   1.494   1.932  16.463 -0.4218  0.0036 -0.3525
 1604TIP3    H126227   1.405   1.903  16.482  0.2317 -3.3376 -1.7630
 1604TIP3    H226228   1.489   1.972  16.376 -0.3941 -1.1722 -0.9059
 1605TIP3   OH226229   3.852   5.768  13.494 -0.0512  0.6325  0.4810
 1605TIP3    H126230   3.775   5.712  13.500 -0.6431  1.2494 -0.8903
 1605TIP3    H226231   3.861   5.787  13.400  1.6311  0.7719  0.6295
 1606TIP3   OH226232   2.387   6.206   5.278 -0.0093 -0.0478 -0.2069
 1606TIP3    H126233   2.395   6.235   5.187 -1.2879  1.6333  0.1628
 1606TIP3    H226234   2.330   6.272   5.319 -1.1462 -1.8877  1.3095
 1607TIP3   OH226235   2.167   0.522  16.712 -0.1737 -0.1291 -0.0962
 1607TIP3    H126236   2.226   0.554  16.780  0.3714 -0.3506 -0.4567
 1607TIP3    H226237   2.119   0.600  16.684 -1.1499 -0.2224  1.2568
 1608TIP3   OH226238   2.796   1.703   0.968 -0.6444 -0.0679  0.1408
 1608TIP3    H126239   2.708   1.707   0.933 -0.7948 -0.9720  0.3828
 1608TIP3    H226240   2.849   1.664   0.898 -0.8681 -1.5056  0.7440
 1609TIP3   OH226241   2.172   3.781   5.111  0.3657  0.4249 -0.0025
 1609TIP3    H126242   2.255   3.762   5.067  0.1733  0.7862 -0.5298
 1609TIP3    H226243   2.116   3.818   5.042 -0.1416  0.4307  0.4095
 1610TIP3   OH226244   5.640   5.355   4.105 -0.5876  0.3948  0.7764
 1610TIP3    H126245   5.640   5.369   4.200  0.9233 -1.2321  1.0701
 1610TIP3    H226246   5.644   5.443   4.068 -1.5101  1.0659  2.2053
 1611TIP3   OH226247   1.474   0.066  12.085  0.1158 -0.1650  0.2449
 1611TIP3    H126248   1.541  -0.002  12.093  1.0579  0.6369 -0.6658
 1611TIP3    H226249   1.505   0.138  12.140 -0.9011 -0.4502  1.2410
 1612TIP3   OH226250   6.624   6.489   3.249  0.2337  0.3023 -0.0335
 1612TIP3    H126251   6.575   6.558   3.204  2.9410  0.4659 -3.0919
 1612TIP3    H226252   6.654   6.530   3.330 -2.7045  0.8392  0.9051
 1613TIP3   OH226253   4.067   1.090  11.265  0.3303  0.0888 -0.2477
 1613TIP3    H126254   4.040   1.006  11.230  0.6554 -0.1309  0.0202
 1613TIP3    H226255   4.047   1.153  11.196 -0.0808 -0.1835 -0.3749
 1614TIP3   OH226256   2.060   0.314   0.672  0.3576  0.1725  0.5699
 1614TIP3    H126257   2.082   0.251   0.741 -0.4087 -0.6323  0.1024
 1614TIP3    H226258   2.012   0.263   0.607  0.7209  1.0043 -0.3789
 1615TIP3   OH226259   1.795   1.816  13.378 -0.0752  0.2923 -0.3738
 1615TIP3    H126260   1.836   1.901  13.367 -0.8993  0.7284 -0.1120
 1615TIP3    H226261   1.716   1.820  13.325 -0.9775  0.2792  0.9392
 1616TIP3   OH226262   5.866   2.808   0.942  0.0780 -0.3382 -0.0564
 1616TIP3    H126263   5.887   2.892   0.900  0.0909 -1.4669 -2.4755
 1616TIP3    H226264   5.916   2.744   0.892  0.0284 -1.8294  1.7187
 1617TIP3   OH226265   4.381   4.490  11.302 -0.2927 -0.5651 -0.2343
 1617TIP3    H126266   4.311   4.459  11.244 -2.0795 -0.3577  1.6923
 1617TIP3    H226267   4.410   4.572  11.262 -1.2677 -0.5712 -0.9972
 1618TIP3   OH226268   2.434   3.220  15.022  0.1668 -0.2426  0.3201
 1618TIP3    H126269   2.435   3.146  15.083 -1.0104 -0.1405  0.4889
 1618TIP3    H226270   2.373   3.193  14.953  0.0558  0.4000  0.1632
 1619TIP3   OH226271   5.406   4.188   1.751 -0.1360  0.0001  0.3273
 1619TIP3    H126272   5.443   4.193   1.663 -2.1461  0.8988 -0.5234
 1619TIP3    H226273   5.470   4.136   1.801  0.7077 -1.1630 -1.8232
 1620TIP3   OH226274   0.877   0.500  17.332  0.5348 -0.1501  0.1114
 1620TIP3    H126275   0.904   0.426  17.277 -0.2869 -0.1124 -0.3615
 1620TIP3    H226276   0.959   0.544  17.354  1.1666 -1.7947  1.2749
 1621TIP3   OH226277   6.309   2.219  16.162 -0.4391  0.1934 -0.2642
 1621TIP3    H126278   6.284   2.250  16.075 -0.3339  0.6118 -0.1475
 1621TIP3    H226279   6.404   2.230  16.165 -0.5044  0.6976  0.0998
 1622TIP3   OH226280   2.410   1.535   1.200  0.2133  0.0173 -0.4077
 1622TIP3    H126281   2.337   1.597   1.194 -0.5884 -0.9611 -0.9016
 1622TIP3    H226282   2.393   1.486   1.281  0.6972  0.2323 -0.1667
 1623TIP3   OH226283   0.781   6.301   5.226  0.0517  0.1274  0.2158
 1623TIP3    H126284   0.698   6.254   5.242  1.0814 -1.8694 -0.0131
 1623TIP3    H226285   0.756   6.375   5.171 -1.8201  0.5176  1.4888
 1624TIP3   OH226286   3.288   2.216   1.095 -0.3017  0.7804 -0.1359
 1624TIP3    H126287   3.364   2.187   1.145  1.5104  1.9213 -2.1112
 1624TIP3    H226288   3.264   2.300   1.135  0.5030  1.1960 -0.5054
 1625TIP3   OH226289   3.821   1.779  13.393 -0.2817 -0.6862  0.0800
 1625TIP3    H126290   3.840   1.841  13.464  0.7745 -0.3367 -0.4829
 1625TIP3    H226291   3.777   1.832  13.327  0.0234 -0.6727 -0.1170
 1626TIP3   OH226292   1.365   5.352  13.204 -0.3478  0.2563  0.1686
 1626TIP3    H126293   1.333   5.373  13.292  0.0822 -2.4370  1.0537
 1626TIP3    H226294   1.456   5.327  13.218 -0.2155 -0.0258 -1.1079
 1627TIP3   OH226295   4.387   2.508  15.480 -0.6003  0.3246  0.2014
 1627TIP3    H126296   4.377   2.428  15.428 -0.6892  0.4965 -0.0478
 1627TIP3    H226297   4.376   2.579  15.417  0.7569  0.5386  0.1788
 1628TIP3   OH226298   4.686   4.193  11.466  0.3705 -0.2351  0.1301
 1628TIP3    H126299   4.696   4.287  11.454  0.3868 -0.3658 -1.0013
 1628TIP3    H226300   4.775   4.158  11.453  0.2927 -0.4443  0.1504
 1629TIP3   OH226301   4.548   4.928  11.777  0.3311 -0.0245  0.7692
 1629TIP3    H126302   4.582   4.987  11.709 -1.2276  1.7385  1.4473
 1629TIP3    H226303   4.625   4.905  11.829  1.3806 -0.6017 -0.9652
 1630TIP3   OH226304   5.140   3.908   1.893 -0.2375  0.3708  0.1815
 1630TIP3    H126305   5.077   3.977   1.911 -0.0283  0.7511 -0.5230
 1630TIP3    H226306   5.173   3.883   1.980 -1.1528  0.3410  0.5394
 1631TIP3   OH226307   2.851   5.752  15.228 -0.1834 -0.0409 -0.3757
 1631TIP3    H126308   2.867   5.659  15.209  1.6631  0.2735 -0.4738
 1631TIP3    H226309   2.827   5.790  15.144 -0.0361 -0.2529 -0.5143
 1632TIP3   OH226310   6.408   5.851  11.358  0.2705  0.6327  0.0193
 1632TIP3    H126311   6.470   5.873  11.289 -0.4369  0.6666 -0.6089
 1632TIP3    H226312   6.323   5.877  11.324  0.1211  2.6564  1.7487
 1633TIP3   OH226313   1.714   6.663   0.013  0.0353  0.0569  0.3499
 1633TIP3    H126314   1.683   6.657  -0.077 -0.0552 -1.3560  0.4534
 1633TIP3    H226315   1.761   6.746   0.017  0.6519 -0.1896 -1.1983
 1634TIP3   OH226316   1.243   4.684   3.076 -0.0519  0.0317 -0.3949
 1634TIP3    H126317   1.181   4.639   3.133  0.9063 -0.0641  0.6169
 1634TIP3    H226318   1.189   4.739   3.020 -1.1333 -1.1569 -0.5570
 1635TIP3   OH226319   0.293   2.765  15.400  0.3847  0.1819 -0.8422
 1635TIP3    H126320   0.321   2.752  15.309  2.4879 -0.5629 -0.1465
 1635TIP3    H226321   0.248   2.684  15.424 -0.3426  0.4532 -1.2417
 1636TIP3   OH226322   2.001   3.276   3.676  0.3413  0.4512 -0.2853
 1636TIP3    H126323   2.046   3.360   3.680  2.2620 -0.5699  0.7624
 1636TIP3    H226324   2.006   3.242   3.765  0.4152 -1.1852 -0.8852
 1637TIP3   OH226325   0.237   0.708   3.408 -0.0452  0.1528  0.1486
 1637TIP3    H126326   0.246   0.702   3.503  1.3234  0.4401  0.0614
 1637TIP3    H226327   0.235   0.802   3.390  0.0389  0.1025 -0.1264
 1638TIP3   OH226328   5.296   5.129   5.208  0.1767 -0.1624 -0.5779
 1638TIP3    H126329   5.308   5.204   5.267 -0.1555  0.0447 -0.7664
 1638TIP3    H226330   5.306   5.052   5.264 -1.7640  0.0256  0.1156
 1639TIP3   OH226331   1.274   0.788   3.338  0.2680  0.1671  0.6538
 1639TIP3    H126332   1.319   0.787   3.254 -0.2118  2.5460  0.2843
 1639TIP3    H226333   1.218   0.865   3.334 -1.0800 -0.6345  2.5116
 1640TIP3   OH226334   6.041   4.754   5.507 -0.4413 -0.1056 -0.0206
 1640TIP3    H126335   6.004   4.832   5.466  0.9750 -0.4126 -2.0190
 1640TIP3    H226336   6.126   4.783   5.541 -0.5952 -0.4279  0.6713
 1641TIP3   OH226337   3.094   3.525   5.057  1.4443 -0.0318  0.4390
 1641TIP3    H126338   3.068   3.433   5.050 -1.0175  0.5963  0.4112
 1641TIP3    H226339   3.114   3.551   4.967  1.7348 -0.4384  0.3839
 1642TIP3   OH226340   0.730   5.583  14.698  0.4549  0.4402 -0.1043
 1642TIP3    H126341   0.690   5.504  14.663  2.5729 -0.9521  0.4253
 1642TIP3    H226342   0.687   5.597  14.782  1.3701 -1.3110  0.6978
 1643TIP3   OH226343   4.215   5.811   6.508 -0.4117 -0.6437  0.1553
 1643TIP3    H126344   4.153   5.824   6.579 -0.6060 -2.9131  0.4481
 1643TIP3    H226345   4.251   5.899   6.492 -1.9151  0.2879  1.5803
 1644TIP3   OH226346   1.554   4.201   3.164 -0.0489  0.1147  0.2978
 1644TIP3    H126347   1.625   4.184   3.225  1.5538 -0.9708 -1.7246
 1644TIP3    H226348   1.561   4.130   3.099 -1.2563  1.5023 -1.4520
 1645TIP3   OH226349   1.009   6.460   4.975 -0.2022 -0.1049  0.2319
 1645TIP3    H126350   1.011   6.443   4.881  1.1377 -0.3873  0.2912
 1645TIP3    H226351   0.921   6.493   4.992  0.3132  2.5424 -1.5781
 1646TIP3   OH226352   1.339   5.126   2.875  0.1767  0.0962  0.0142
 1646TIP3    H126353   1.345   5.169   2.790 -1.5664 -0.6149 -0.5230
 1646TIP3    H226354   1.352   5.197   2.938 -2.0403  1.4049 -0.8524
 1647TIP3   OH226355   4.869   3.356  16.279 -0.7138 -0.2502  0.0790
 1647TIP3    H126356   4.848   3.422  16.345  1.9258  2.2745 -1.3554
 1647TIP3    H226357   4.812   3.377  16.205 -0.4826 -0.1035 -0.0608
 1648TIP3   OH226358   5.984   0.101   3.614 -0.6422  0.1613 -0.1916
 1648TIP3    H126359   5.907   0.158   3.620 -1.2577 -0.5205 -1.3825
 1648TIP3    H226360   5.950   0.016   3.589  0.3402 -0.6066  0.9494
 1649TIP3   OH226361   3.523   3.422  13.748  0.0008 -0.1691 -0.2971
 1649TIP3    H126362   3.501   3.335  13.781 -1.0296  0.0711 -0.3055
 1649TIP3    H226363   3.439   3.466  13.740  0.6035  1.4425  1.4025
 1650TIP3   OH226364   2.850   4.748  14.623 -0.6597  0.3266  0.2956
 1650TIP3    H126365   2.912   4.701  14.568  1.3186  0.7727  2.0305
 1650TIP3    H226366   2.805   4.679  14.673  0.6837  0.1150  1.2598
 1651TIP3   OH226367   1.525   3.564   4.950  0.0004  0.5103 -0.3559
 1651TIP3    H126368   1.563   3.490   4.903  0.5526  0.9993 -0.6921
 1651TIP3    H226369   1.531   3.539   5.042  1.1554  0.5655 -0.4008
 1652TIP3   OH226370   5.235   3.258  13.574  0.3639  0.7558 -0.0480
 1652TIP3    H126371   5.175   3.228  13.643  0.1830  1.0907 -0.0565
 1652TIP3    H226372   5.184   3.255  13.494  0.5443  0.4648 -0.1533
 1653TIP3   OH226373   4.913   5.697  12.052 -0.2825 -0.8084  0.2805
 1653TIP3    H126374   4.863   5.681  12.132 -1.3697 -0.0424 -0.2216
 1653TIP3    H226375   4.853   5.745  11.996  1.3518  1.0930  0.0441
 1654TIP3   OH226376   2.562   3.461   3.604  0.3879 -0.7995  0.3456
 1654TIP3    H126377   2.569   3.447   3.698  0.9225 -1.6692  0.1878
 1654TIP3    H226378   2.639   3.418   3.567  0.5390  0.1004 -0.4456
 1655TIP3   OH226379   6.026   1.173   5.664 -0.4989 -0.0351  0.7260
 1655TIP3    H126380   5.950   1.115   5.661  0.1385 -0.8808  0.6765
 1655TIP3    H226381   6.061   1.171   5.575  0.7490 -1.2547  1.2101
 1656TIP3   OH226382   5.604   1.943   4.309  0.2574  0.6351 -0.5712
 1656TIP3    H126383   5.552   1.866   4.287  0.5566  0.6999 -1.5565
 1656TIP3    H226384   5.693   1.910   4.319  1.0215  1.2178 -4.1097
 1657TIP3   OH226385   5.015   4.524   6.229  0.0533 -0.1878 -0.3450
 1657TIP3    H126386   5.015   4.467   6.306  2.4674 -2.0086 -1.5955
 1657TIP3    H226387   5.033   4.611   6.264 -2.9213 -0.1624  1.5094
 1658TIP3   OH226388   4.360   2.888  16.721  0.4016 -0.4402 -0.1812
 1658TIP3    H126389   4.452   2.906  16.700  0.0902  0.9045 -0.5141
 1658TIP3    H226390   4.316   2.885  16.635 -0.5067  2.8957  0.0186
 1659TIP3   OH226391   2.363   1.386   3.792 -0.3006 -0.0638  0.8454
 1659TIP3    H126392   2.403   1.301   3.810  1.7732  0.8359  0.7751
 1659TIP3    H226393   2.435   1.440   3.758 -1.5960  1.6512  0.6844
 1660TIP3   OH226394   2.613   4.091  11.811 -0.0731  0.4730  0.2685
 1660TIP3    H126395   2.578   4.149  11.878  0.6065  1.7114 -0.4238
 1660TIP3    H226396   2.708   4.103  11.815 -0.0270  0.6372 -0.9737
 1661TIP3   OH226397   6.496   5.773  15.797 -0.4158 -0.7979  0.1883
 1661TIP3    H126398   6.567   5.711  15.787  0.9207  0.7482 -0.4305
 1661TIP3    H226399   6.538   5.852  15.833 -1.9120 -0.0156  0.3031
 1662TIP3   OH226400   6.163   2.855  15.468 -0.3015  0.4221  0.0437
 1662TIP3    H126401   6.152   2.834  15.561  0.9205  0.6701  0.2613
 1662TIP3    H226402   6.242   2.908  15.464  0.4894 -0.7760 -1.3094
 1663TIP3   OH226403   5.051   0.442   1.121  0.2399  0.1290  0.3254
 1663TIP3    H126404   5.087   0.357   1.145 -2.0877 -0.9079  0.3415
 1663TIP3    H226405   5.060   0.495   1.201 -2.2001 -1.5083  1.8272
 1664TIP3   OH226406   5.211   4.652  11.486  0.1141 -0.3400 -0.1332
 1664TIP3    H126407   5.266   4.582  11.452  0.9629 -0.3054  1.0896
 1664TIP3    H226408   5.205   4.716  11.415 -0.7944 -1.7043 -1.3129
 1665TIP3   OH226409   5.809   5.902  16.700  0.7423 -0.4734  0.2019
 1665TIP3    H126410   5.824   5.979  16.754 -0.2970  0.5482 -0.9059
 1665TIP3    H226411   5.721   5.873  16.723  0.2933 -0.0368 -0.8672
 1666TIP3   OH226412   3.544   2.971  12.167 -0.1023  0.2859  0.4511
 1666TIP3    H126413   3.475   2.909  12.143  3.1338 -3.1566 -0.8961
 1666TIP3    H226414   3.534   2.982  12.262 -2.0784 -0.5770  0.3963
 1667TIP3   OH226415   5.665   2.413  13.276 -0.0557 -0.1303 -0.6326
 1667TIP3    H126416   5.603   2.449  13.339  1.1206  0.6466  0.1376
 1667TIP3    H226417   5.637   2.448  13.192 -1.0172 -0.3038 -0.3944
 1668TIP3   OH226418   0.140   5.754   1.150  0.0208 -0.4305  0.3080
 1668TIP3    H126419   0.171   5.667   1.175 -1.2321 -1.1942 -0.6269
 1668TIP3    H226420   0.117   5.745   1.057 -1.5505  0.4523  0.5691
 1669TIP3   OH226421   2.717   4.511  11.860  0.0304  0.0880  0.1963
 1669TIP3    H126422   2.778   4.470  11.799 -1.6691  0.3277 -1.7310
 1669TIP3    H226423   2.735   4.468  11.944  1.7639 -0.9323 -0.6506
 1670TIP3   OH226424   2.535   6.192  10.893 -0.0360  0.1492 -0.1702
 1670TIP3    H126425   2.615   6.141  10.877  0.3591  0.8969 -0.6380
 1670TIP3    H226426   2.465   6.138  10.857  0.4342  0.1481 -1.1059
 1671TIP3   OH226427   5.633   1.137  11.539 -0.5392  0.1087  0.1019
 1671TIP3    H126428   5.562   1.169  11.483 -0.3737 -0.8928 -0.7262
 1671TIP3    H226429   5.592   1.070  11.594  0.0028 -1.5958 -1.4467
 1672TIP3   OH226430   2.644   2.570   3.554  0.0244  0.4817 -0.0221
 1672TIP3    H126431   2.566   2.522   3.580 -0.5791  1.9674  1.0575
 1672TIP3    H226432   2.620   2.662   3.563  1.5992  0.9848 -0.5895
 1673TIP3   OH226433   3.863   5.013   0.437  0.2092 -0.2866  0.1116
 1673TIP3    H126434   3.803   4.952   0.480  1.6585 -0.9087  1.3605
 1673TIP3    H226435   3.946   5.002   0.484  0.5818  2.5700  0.2841
 1674TIP3   OH226436   3.441   1.476  16.620  0.5360 -0.4947 -0.6072
 1674TIP3    H126437   3.521   1.427  16.602 -0.1299 -1.5190 -0.9104
 1674TIP3    H226438   3.470   1.566  16.633  2.1314 -1.3066  2.4838
 1675TIP3   OH226439   6.665   6.023  16.668 -0.6499  0.1809  0.0988
 1675TIP3    H126440   6.633   5.997  16.582 -1.1980 -1.0410  0.6579
 1675TIP3    H226441   6.743   6.076  16.649 -2.0700  1.9114 -1.2100
 1676TIP3   OH226442   5.657   2.568   5.375 -0.2019  0.4556  0.0852
 1676TIP3    H126443   5.733   2.584   5.320 -1.4448  0.9786 -1.5325
 1676TIP3    H226444   5.627   2.655   5.401 -1.0164  0.3204 -0.3818
 1677TIP3   OH226445   5.630   3.352  14.357  0.3290 -0.0407  0.2160
 1677TIP3    H126446   5.695   3.356  14.287  1.0915 -1.2682  0.8115
 1677TIP3    H226447   5.637   3.262  14.391 -1.1868  0.0206  0.7744
 1678TIP3   OH226448   0.784   3.286  14.521 -0.0553 -0.4870  0.0627
 1678TIP3    H126449   0.770   3.197  14.554  0.8560 -0.6172  0.1498
 1678TIP3    H226450   0.764   3.343  14.595 -0.8404 -0.6024 -0.0549
 1679TIP3   OH226451   1.566   5.247  16.560 -0.2063  0.6137  0.1908
 1679TIP3    H126452   1.608   5.234  16.645  1.2842 -1.4704 -0.7684
 1679TIP3    H226453   1.533   5.161  16.536 -1.1061  1.2829 -1.1109
 1680TIP3   OH226454   0.352   3.490   3.490 -0.2113  0.4847 -0.1852
 1680TIP3    H126455   0.441   3.456   3.483 -0.8980 -1.1001 -2.2320
 1680TIP3    H226456   0.317   3.482   3.402 -1.7345  3.0401  0.0938
 1681TIP3   OH226457   3.152   3.599  17.022  0.2994 -0.0657 -0.2183
 1681TIP3    H126458   3.185   3.516  17.057 -1.3242 -0.0520  1.4915
 1681TIP3    H226459   3.223   3.630  16.965  1.5834 -1.8531  0.2889
 1682TIP3   OH226460   5.229   5.649  10.929  0.3481 -0.5974  0.2339
 1682TIP3    H126461   5.324   5.637  10.931  0.8701  2.4425 -0.9521
 1682TIP3    H226462   5.210   5.697  11.009 -0.5197 -2.7462  1.3631
 1683TIP3   OH226463   6.427   3.352  12.214  0.2416 -0.4981  0.4463
 1683TIP3    H126464   6.450   3.369  12.305 -1.2376 -0.5198  0.8540
 1683TIP3    H226465   6.380   3.269  12.215  0.2328 -0.5167 -0.3437
 1684TIP3   OH226466   3.600   6.387  11.158 -0.1481 -0.3246 -0.2216
 1684TIP3    H126467   3.672   6.450  11.159  0.0526 -0.5561  0.8584
 1684TIP3    H226468   3.642   6.302  11.172 -0.7400 -0.3012  2.0779
 1685TIP3   OH226469   4.758   6.596   3.616 -0.4914 -0.2698 -0.2497
 1685TIP3    H126470   4.736   6.557   3.532 -1.1458 -1.5442  0.4909
 1685TIP3    H226471   4.853   6.593   3.619 -0.5154 -3.2998  0.4134
 1686TIP3   OH226472   5.136   4.827   5.545  0.2429  0.1000  0.2196
 1686TIP3    H126473   5.118   4.853   5.635 -0.1068 -2.3496  0.9084
 1686TIP3    H226474   5.225   4.860   5.528  0.8194 -0.4992  1.9053
 1687TIP3   OH226475   0.744   5.338   1.776 -0.0482 -0.1016 -0.3130
 1687TIP3    H126476   0.684   5.355   1.849  0.0594  2.5927 -0.7459
 1687TIP3    H226477   0.720   5.403   1.710  1.0775 -1.2687 -1.9425
 1688TIP3   OH226478   4.523   2.312   3.751 -0.1211 -0.2681 -0.4663
 1688TIP3    H126479   4.451   2.373   3.769  0.0993  0.2992 -1.4457
 1688TIP3    H226480   4.495   2.229   3.790 -0.8569  0.2121  0.0371
 1689TIP3   OH226481   2.521   3.575  14.059 -0.6024 -0.2484  0.0151
 1689TIP3    H126482   2.578   3.643  14.095 -2.3491  1.7136 -0.6961
 1689TIP3    H226483   2.542   3.572  13.966 -0.2085 -1.0643  0.1179
 1690TIP3   OH226484   3.470   3.651  16.265  0.1590 -0.0145  0.7756
 1690TIP3    H126485   3.528   3.621  16.195  0.8199 -0.3891  1.4765
 1690TIP3    H226486   3.411   3.713  16.222  1.1655  0.4897  0.0887
 1691TIP3   OH226487   4.712   1.758   0.464 -0.1794 -0.0231 -0.3910
 1691TIP3    H126488   4.678   1.784   0.379 -2.0361 -2.7046 -0.6140
 1691TIP3    H226489   4.650   1.796   0.527  0.4216  0.8266 -0.2952
 1692TIP3   OH226490   6.351   6.096  14.919  0.0834 -0.6765  0.4751
 1692TIP3    H126491   6.315   6.074  15.005  0.2640 -2.4499  0.1439
 1692TIP3    H226492   6.274   6.099  14.862 -0.4605  3.5158  1.1300
 1693TIP3   OH226493   2.061   4.930   4.020  0.0087  0.3342  0.1254
 1693TIP3    H126494   2.009   4.917   3.941  1.1668  0.3226 -0.6714
 1693TIP3    H226495   2.062   5.025   4.033 -0.2181  0.3330  0.1570
 1694TIP3   OH226496   1.900   5.664   5.640 -0.0592  0.3479  0.1852
 1694TIP3    H126497   1.973   5.617   5.682  1.2425 -0.6311 -2.8646
 1694TIP3    H226498   1.824   5.609   5.659  0.9246 -1.4703 -0.7846
 1695TIP3   OH226499   3.381   1.623   4.551 -0.2432  0.4436  0.5666
 1695TIP3    H126500   3.340   1.538   4.535 -0.2637  0.7049 -0.9329
 1695TIP3    H226501   3.313   1.675   4.594 -0.0569 -0.4300  2.0066
 1696TIP3   OH226502   3.167   2.761  15.762 -0.4514  0.5431 -0.7631
 1696TIP3    H126503   3.084   2.715  15.775 -0.8015  1.2629 -0.3695
 1696TIP3    H226504   3.193   2.738  15.673 -0.1838 -1.0712 -0.3060
 1697TIP3   OH226505   4.150   3.180  16.547  0.4014  0.2020  0.1685
 1697TIP3    H126506   4.064   3.159  16.584 -0.0199  0.0433 -0.8514
 1697TIP3    H226507   4.150   3.137  16.461  0.6535  1.9634 -0.7566
 1698TIP3   OH226508   0.391   2.777   2.990  0.4987  0.1393  0.7004
 1698TIP3    H126509   0.315   2.742   3.038  0.7657 -1.3958  0.0609
 1698TIP3    H226510   0.365   2.772   2.898  1.5551 -0.9283  0.4368
 1699TIP3   OH226511   5.636   0.194   1.514 -0.0802  0.2378  0.0629
 1699TIP3    H126512   5.575   0.138   1.562  1.0677 -0.2492  1.0059
 1699TIP3    H226513   5.666   0.258   1.578  1.3579 -0.3163 -0.0187
 1700TIP3   OH226514   0.047   1.669  14.642 -0.0314 -0.6440  0.0798
 1700TIP3    H126515  -0.038   1.663  14.598 -0.3904  0.1012  0.6635
 1700TIP3    H226516   0.070   1.578  14.661 -1.8205 -0.7665  2.0107
 1701TIP3   OH226517   3.537   0.394   3.640 -0.6076 -0.5227  0.2409
 1701TIP3    H126518   3.575   0.467   3.590 -0.3525 -1.8632 -1.6367
 1701TIP3    H226519   3.594   0.385   3.716 -1.0672  1.6710  0.9165
 1702TIP3   OH226520   0.916   4.006  14.318 -0.1270  0.6702 -0.7727
 1702TIP3    H126521   0.834   3.958  14.325  0.1437  0.2496 -0.4176
 1702TIP3    H226522   0.962   3.965  14.245  0.3628 -0.0260 -0.0949
 1703TIP3   OH226523   6.668   2.612  16.880 -0.1586 -0.1783 -0.8456
 1703TIP3    H126524   6.618   2.691  16.899  1.3853  0.6628  0.0096
 1703TIP3    H226525   6.619   2.567  16.812 -1.9950  0.6111 -0.1086
 1704TIP3   OH226526   4.193   1.432   2.803  0.4006  0.2265 -0.3284
 1704TIP3    H126527   4.214   1.514   2.847 -0.2417  0.5671 -0.6495
 1704TIP3    H226528   4.098   1.434   2.792  0.1806 -1.2113  0.9419
 1705TIP3   OH226529   3.732   2.356   6.195  0.4199  0.3695 -0.4154
 1705TIP3    H126530   3.780   2.288   6.241  0.6664  0.4185 -0.5950
 1705TIP3    H226531   3.799   2.402   6.144  0.4435  1.4556  0.5519
 1706TIP3   OH226532   1.517   4.675  13.186  0.5425  0.2631 -0.3015
 1706TIP3    H126533   1.498   4.766  13.163 -0.2703  0.1282 -0.1770
 1706TIP3    H226534   1.562   4.640  13.109  2.0373  1.1111  0.1231
 1707TIP3   OH226535   2.167   2.080  12.894  0.0101  0.0846  0.6128
 1707TIP3    H126536   2.241   2.055  12.838 -2.0362  0.5611 -2.5283
 1707TIP3    H226537   2.143   1.998  12.939 -1.5017 -1.8683 -3.3058
 1708TIP3   OH226538   6.691   2.099  10.610  0.2005 -0.6754  0.0044
 1708TIP3    H126539   6.675   2.116  10.517 -0.0418 -0.3516  0.1022
 1708TIP3    H226540   6.783   2.072  10.614  0.7280  0.9657 -0.1262
 1709TIP3   OH226541   0.241   5.088  14.060 -0.1238  0.0068 -0.2245
 1709TIP3    H126542   0.170   5.032  14.029  0.7163 -1.2973  0.0856
 1709TIP3    H226543   0.299   5.028  14.108  0.2955  1.3424  1.0264
 1710TIP3   OH226544   4.789   6.497  16.348 -0.8253  0.2985  0.1959
 1710TIP3    H126545   4.862   6.454  16.305  0.1193  0.2200  1.8162
 1710TIP3    H226546   4.728   6.426  16.370 -1.2164  0.3160 -0.7838
 1711TIP3   OH226547   3.744   2.825  13.049 -0.1239  0.3982  0.2145
 1711TIP3    H126548   3.729   2.919  13.045 -1.1263  0.2214 -0.4967
 1711TIP3    H226549   3.657   2.787  13.061  0.2124 -0.4675 -0.0322
 1712TIP3   OH226550   4.815   4.921   0.579 -0.3415 -0.0083  0.3572
 1712TIP3    H126551   4.836   4.926   0.672 -0.6739 -1.1250  0.5087
 1712TIP3    H226552   4.741   4.981   0.568 -0.9832 -0.6634  1.0301
 1713TIP3   OH226553   2.025   2.490   6.102  0.4624  0.1893 -0.1740
 1713TIP3    H126554   2.005   2.396   6.107  0.5713  0.2078  0.6621
 1713TIP3    H226555   1.939   2.531   6.088 -0.0208  0.1729  2.2799
 1714TIP3   OH226556   2.822   5.981  12.404 -0.4014 -0.1300 -0.5679
 1714TIP3    H126557   2.749   6.029  12.366 -1.2127 -2.6141 -2.4014
 1714TIP3    H226558   2.803   5.889  12.385  1.8048 -1.1020  1.4088
 1715TIP3   OH226559   5.005   0.135  13.687  0.0454 -0.3364  0.0808
 1715TIP3    H126560   4.995   0.184  13.769 -0.8813 -1.1978  0.5052
 1715TIP3    H226561   4.983   0.045  13.710 -0.3779 -0.5668 -1.1454
 1716TIP3   OH226562   4.497   3.786   3.924  0.1019 -0.6725  0.6372
 1716TIP3    H126563   4.478   3.693   3.913 -2.4727 -0.3312  1.5700
 1716TIP3    H226564   4.478   3.804   4.016 -2.1519  1.2914 -0.1294
 1717TIP3   OH226565   4.444   3.677   2.610 -0.3355  0.3403  0.9189
 1717TIP3    H126566   4.538   3.665   2.592 -0.0802  1.8493  1.1655
 1717TIP3    H226567   4.427   3.621   2.686  0.0307 -1.0363  0.0161
 1718TIP3   OH226568   3.932   2.813   0.982  0.0472  0.9136 -0.4589
 1718TIP3    H126569   4.002   2.776   1.036 -0.8142  1.0831  0.8073
 1718TIP3    H226570   3.948   2.776   0.895  0.9916 -0.0192  0.0773
 1719TIP3   OH226571   3.554   5.474  12.380 -0.2430 -0.4106  0.3589
 1719TIP3    H126572   3.631   5.517  12.344 -1.3240  0.8748 -0.5403
 1719TIP3    H226573   3.487   5.483  12.312 -1.2330 -1.3300  1.1678
 1720TIP3   OH226574   4.288   2.302  12.605 -0.2270  0.4712  0.4488
 1720TIP3    H126575   4.255   2.212  12.609  1.0233  0.0197  1.0604
 1720TIP3    H226576   4.211   2.354  12.581 -1.7261 -0.3500  3.1122
 1721TIP3   OH226577   3.195   3.847  12.903 -0.0316 -0.1194  0.2684
 1721TIP3    H126578   3.220   3.913  12.969  0.1050 -0.4157  0.5140
 1721TIP3    H226579   3.241   3.874  12.824  0.1310  0.0054  0.4033
 1722TIP3   OH226580   2.075   4.506   2.960 -0.1233 -0.0035 -0.0571
 1722TIP3    H126581   2.082   4.589   3.007 -1.9320 -0.1782  0.6019
 1722TIP3    H226582   1.994   4.514   2.909  0.8519 -0.5222 -1.7719
 1723TIP3   OH226583   6.355   3.614  13.664  0.0137 -0.6046  0.0113
 1723TIP3    H126584   6.280   3.671  13.651  1.2314  1.0928  0.0341
 1723TIP3    H226585   6.407   3.624  13.585  2.0275  1.2049  1.4364
 1724TIP3   OH226586   5.406   4.057  14.765 -0.2100  0.3512 -0.3387
 1724TIP3    H126587   5.313   4.064  14.743  0.2656  2.4790 -2.0256
 1724TIP3    H226588   5.442   3.999  14.697 -0.3359 -0.8215  0.5643
 1725TIP3   OH226589   5.653   6.005  12.865 -0.3534 -0.5019  0.2115
 1725TIP3    H126590   5.655   5.930  12.806 -3.0533  0.2715 -1.0195
 1725TIP3    H226591   5.679   6.079  12.810  0.5637 -0.2470  0.9578
 1726TIP3   OH226592   1.066   5.164   0.675 -0.0260  0.1759  0.1864
 1726TIP3    H126593   1.004   5.094   0.652 -0.6187  1.3566 -2.0396
 1726TIP3    H226594   1.039   5.238   0.622  3.1905  0.8210 -0.7344
 1727TIP3   OH226595   5.541   6.730   3.584 -0.0610  0.1188  0.2582
 1727TIP3    H126596   5.520   6.790   3.513  1.0346 -0.4552 -0.5660
 1727TIP3    H226597   5.469   6.742   3.647 -0.2723  1.6966 -0.2425
 1728TIP3   OH226598   2.936   3.288  16.270  0.2121 -0.7040 -0.4669
 1728TIP3    H126599   3.013   3.242  16.236  2.0446  1.0708  1.0365
 1728TIP3    H226600   2.967   3.376  16.288 -1.5363 -0.5577  2.4227
 1729TIP3   OH226601   2.082   5.428  16.603  0.0645  0.1850  0.0315
 1729TIP3    H126602   2.069   5.336  16.625 -2.3140  0.4284 -0.1042
 1729TIP3    H226603   2.070   5.474  16.686  2.4184  0.3713  0.3518
 1730TIP3   OH226604   6.657   5.684   1.636 -0.1353 -0.2586  0.3395
 1730TIP3    H126605   6.691   5.773   1.643  0.4151 -0.4065 -0.3482
 1730TIP3    H226606   6.729   5.629   1.665  0.2414 -0.5728 -1.1005
 1731TIP3   OH226607   4.216   6.348   0.820  0.1842  0.3978 -0.4409
 1731TIP3    H126608   4.288   6.297   0.857 -1.0877 -1.4783 -0.3860
 1731TIP3    H226609   4.143   6.333   0.879 -1.7004 -2.0719 -3.0836
 1732TIP3   OH226610   5.772   2.391   3.828  0.7685  0.0865 -0.2343
 1732TIP3    H126611   5.712   2.419   3.898  1.1475 -1.1666  0.6270
 1732TIP3    H226612   5.859   2.408   3.863  0.9515 -0.2057 -0.5478
 1733TIP3   OH226613   2.403   0.945   3.109  0.6528  0.1441  0.2237
 1733TIP3    H126614   2.383   0.861   3.066  1.4656 -1.1741  2.2880
 1733TIP3    H226615   2.448   0.996   3.041 -0.7530 -0.6596 -1.3989
 1734TIP3   OH226616   6.344   6.513   4.748  0.0022  0.1302 -0.1633
 1734TIP3    H126617   6.439   6.516   4.757  0.3019  2.6983 -2.6641
 1734TIP3    H226618   6.328   6.457   4.672 -0.4027  0.3999 -0.2836
 1735TIP3   OH226619   2.224   3.262   1.368  0.2298 -0.1465  0.8848
 1735TIP3    H126620   2.258   3.293   1.452 -0.1667  0.4750  0.8225
 1735TIP3    H226621   2.302   3.237   1.318  0.4509 -0.7667  1.5274
 1736TIP3   OH226622   2.839   1.976  16.010  0.3278  0.1452 -0.1759
 1736TIP3    H126623   2.933   1.992  16.012  0.7789 -2.1415  1.5081
 1736TIP3    H226624   2.830   1.886  15.979 -1.1758 -0.1824  1.0680
 1737TIP3   OH226625   2.778   0.361   5.951 -0.2365 -0.5136 -0.1711
 1737TIP3    H126626   2.814   0.368   5.862 -0.4997  1.0149 -0.1864
 1737TIP3    H226627   2.854   0.350   6.007  0.0205 -0.2946 -0.4722
 1738TIP3   OH226628   0.114   1.056  14.302 -0.1482  0.0243  0.4628
 1738TIP3    H126629   0.157   1.097  14.377  0.2720  0.5571 -0.0607
 1738TIP3    H226630   0.134   0.962  14.311  0.1809  0.1282  0.8324
 1739TIP3   OH226631   5.954   1.150  16.350  0.1903  0.0674 -0.0110
 1739TIP3    H126632   5.925   1.116  16.435  0.1779  0.0537 -0.0215
 1739TIP3    H226633   5.900   1.228  16.336 -0.7669 -0.6766 -0.6318
 1740TIP3   OH226634   4.474   2.652   4.203 -0.1834  0.0610 -0.3583
 1740TIP3    H126635   4.457   2.562   4.231  0.5313 -0.1853 -0.7067
 1740TIP3    H226636   4.569   2.658   4.197 -0.1410  1.2181  0.8846
 1741TIP3   OH226637   3.905   4.649  14.965 -0.0086 -0.9345  0.0813
 1741TIP3    H126638   3.904   4.654  14.869 -0.5836 -1.1906  0.0733
 1741TIP3    H226639   3.921   4.739  14.993 -1.7653 -0.5030 -0.2261
 1742TIP3   OH226640   6.568   2.903  16.889 -0.2980 -0.1191  0.2542
 1742TIP3    H126641   6.596   2.995  16.892  0.9919 -0.4400 -0.8791
 1742TIP3    H226642   6.475   2.905  16.912 -0.0754  1.3621  1.1285
 1743TIP3   OH226643   3.110   1.452   4.906 -0.3483 -0.1584 -0.0936
 1743TIP3    H126644   3.081   1.541   4.889  1.5676  0.5922  0.3276
 1743TIP3    H226645   3.088   1.436   4.997  1.7660  0.9655  0.6828
 1744TIP3   OH226646   2.788   2.942  14.412 -0.0648 -0.1304  0.1004
 1744TIP3    H126647   2.694   2.950  14.429 -0.1805 -0.4232 -0.3935
 1744TIP3    H226648   2.829   2.955  14.498 -0.6815 -2.3749  0.8038
 1745TIP3   OH226649   1.201   2.159   3.553 -0.2691 -0.2094  0.6890
 1745TIP3    H126650   1.227   2.081   3.603  0.2621 -0.2125  0.4125
 1745TIP3    H226651   1.283   2.196   3.522 -0.5489  0.2260  0.4567
 1746TIP3   OH226652   2.396   6.303  13.940  0.2087  0.2897 -0.0448
 1746TIP3    H126653   2.364   6.220  13.905  0.8527 -0.6786  1.5315
 1746TIP3    H226654   2.424   6.352  13.863  0.3261 -1.1859 -0.9887
 1747TIP3   OH226655   3.464   3.844  12.352 -0.1139  0.7139 -0.4958
 1747TIP3    H126656   3.412   3.919  12.321  0.2101 -0.3704 -4.2230
 1747TIP3    H226657   3.406   3.769  12.339  0.6701 -0.0121  0.1300
 1748TIP3   OH226658   5.255   1.695  15.433  0.1599  0.0144 -0.1245
 1748TIP3    H126659   5.274   1.612  15.476  1.3806 -0.8742 -2.2190
 1748TIP3    H226660   5.167   1.717  15.462  0.0892 -1.6406  1.0606
 1749TIP3   OH226661   1.351   2.308  13.543  0.1186 -0.2647 -0.4577
 1749TIP3    H126662   1.270   2.292  13.591 -0.3606  1.7497 -0.4970
 1749TIP3    H226663   1.411   2.241  13.574 -1.4700 -1.6548 -0.2343
 1750TIP3   OH226664   6.704   6.246  12.835  0.2070 -0.1707  0.4278
 1750TIP3    H126665   6.738   6.277  12.919 -0.8441  1.4814  0.2930
 1750TIP3    H226666   6.705   6.324  12.779 -0.0119 -1.0196 -0.7922
 1751TIP3   OH226667   5.166   2.022   5.012  0.3182 -0.1482 -0.2617
 1751TIP3    H126668   5.255   2.013   5.044 -0.1540  0.9109  1.5083
 1751TIP3    H226669   5.118   1.949   5.051 -0.3703  1.4262  2.1067
 1752TIP3   OH226670   0.379   4.439   2.748 -0.1355  0.2201 -0.1047
 1752TIP3    H126671   0.294   4.456   2.791 -2.0083 -1.6021 -2.7638
 1752TIP3    H226672   0.431   4.394   2.814 -0.8129  2.2322  1.9319
 1753TIP3   OH226673   5.740   0.145  12.316 -0.4472  0.3000 -0.4405
 1753TIP3    H126674   5.808   0.102  12.368  0.2245  0.2491 -1.3282
 1753TIP3    H226675   5.663   0.089  12.327 -0.5721  0.7549  1.1580
 1754TIP3   OH226676   6.368   5.423   2.831  0.2595  0.3873  0.2335
 1754TIP3    H126677   6.389   5.434   2.738 -0.1500  0.6318  0.1716
 1754TIP3    H226678   6.327   5.337   2.836 -0.9630  0.9301 -0.0304
 1755TIP3   OH226679   6.715   2.581   2.467 -0.0595 -0.5013 -0.1447
 1755TIP3    H126680   6.766   2.621   2.396 -1.0548 -0.2386 -0.7437
 1755TIP3    H226681   6.714   2.487   2.446  2.8066 -1.0329  1.6008
 1756TIP3   OH226682   0.208   4.978  16.432 -0.5535 -0.0886  0.2752
 1756TIP3    H126683   0.137   4.972  16.367 -0.8584 -1.1947  0.6856
 1756TIP3    H226684   0.165   5.009  16.511 -0.6662 -1.0972  0.6247
 1757TIP3   OH226685   5.291   2.305  15.452  0.4801 -0.0677 -0.0067
 1757TIP3    H126686   5.386   2.313  15.466  0.6376 -0.7003 -0.6220
 1757TIP3    H226687   5.282   2.227  15.397 -0.3612  0.3027 -0.4064
 1758TIP3   OH226688   6.388   3.685   3.784 -0.5295  0.5251  0.3626
 1758TIP3    H126689   6.361   3.616   3.845 -3.7968  1.5892  0.2889
 1758TIP3    H226690   6.431   3.639   3.712  1.1444 -0.9711  2.1919
 1759TIP3   OH226691   4.047   4.692   2.114  0.4331  0.1934  0.4159
 1759TIP3    H126692   4.062   4.759   2.181  0.1981 -3.2386  4.2896
 1759TIP3    H226693   3.955   4.703   2.090  0.1599  0.7994  1.6314
 1760TIP3   OH226694   1.598   5.172   0.282 -0.1126 -0.0477  0.2530
 1760TIP3    H126695   1.586   5.247   0.341 -0.6668 -1.8532  2.5794
 1760TIP3    H226696   1.553   5.197   0.202 -0.0777  2.1900  0.8624
 1761TIP3   OH226697   1.995   3.484  10.664  0.3011 -0.3238  0.1737
 1761TIP3    H126698   1.974   3.391  10.664 -0.4662 -0.1653  1.0202
 1761TIP3    H226699   1.911   3.528  10.669  0.5587  0.4812 -1.7626
 1762TIP3   OH226700   3.271   2.561   5.599  0.1303 -0.2250 -0.4744
 1762TIP3    H126701   3.245   2.476   5.562  1.4973 -1.1915  0.6652
 1762TIP3    H226702   3.200   2.620   5.575 -0.0376 -1.2613 -2.8179
 1763TIP3   OH226703   6.668   0.159   3.905 -0.1926  0.3832  0.1592
 1763TIP3    H126704   6.739   0.214   3.872  0.2153 -1.0399 -1.5154
 1763TIP3    H226705   6.710   0.104   3.971  0.3423 -0.4956 -0.8677
 1764TIP3   OH226706   0.837   6.110  10.974  0.3477  0.3544 -0.0752
 1764TIP3    H126707   0.869   6.162  11.047  0.3315 -0.0627  0.2268
 1764TIP3    H226708   0.912   6.099  10.916  0.9674 -1.2504  0.9845
 1765TIP3   OH226709   1.378   2.638  15.291  0.1908 -0.1407 -0.7933
 1765TIP3    H126710   1.441   2.598  15.231  0.3056  0.9718 -1.4317
 1765TIP3    H226711   1.329   2.699  15.237  0.9649  1.6389  0.4192
 1766TIP3   OH226712   6.309   1.935   3.351  0.5136  0.6991 -0.4472
 1766TIP3    H126713   6.380   1.905   3.408  0.0328  2.1361  0.9764
 1766TIP3    H226714   6.306   1.869   3.281  2.0842 -0.3376  0.3811
 1767TIP3   OH226715   6.212   0.392  13.329  0.5926  0.5680 -0.5591
 1767TIP3    H126716   6.207   0.452  13.255  1.4856  1.0519 -0.2385
 1767TIP3    H226717   6.146   0.425  13.391 -1.6092 -0.9994 -1.9168
 1768TIP3   OH226718   5.617   4.541  15.469  0.3928  0.2122 -0.3502
 1768TIP3    H126719   5.550   4.599  15.433  1.6963  1.3211 -1.0962
 1768TIP3    H226720   5.609   4.550  15.564 -0.2772  0.6143 -0.4437
 1769TIP3   OH226721   3.970   3.495  13.201 -0.6002  0.3862 -0.2388
 1769TIP3    H126722   4.055   3.457  13.226 -0.3614  0.1861 -1.3163
 1769TIP3    H226723   3.962   3.573  13.257  0.3864  0.5154 -0.2551
 1770TIP3   OH226724   0.845   0.346  13.488  0.0955  0.1288 -0.0171
 1770TIP3    H126725   0.828   0.323  13.579 -0.0367  3.6605  0.9992
 1770TIP3    H226726   0.760   0.340  13.445 -0.0184 -0.6326  0.2951
 1771TIP3   OH226727   6.392   3.711  14.702 -0.0783 -0.1859 -0.0670
 1771TIP3    H126728   6.460   3.645  14.685  1.2955 -0.1086  3.9214
 1771TIP3    H226729   6.441   3.793  14.713 -0.8313  0.0402  2.0592
 1772TIP3   OH226730   4.290   1.328   4.055 -0.2777 -0.6381 -0.0030
 1772TIP3    H126731   4.375   1.298   4.088  0.9832  1.6730 -0.9576
 1772TIP3    H226732   4.282   1.417   4.088 -1.8929 -0.4770 -0.7773
 1773TIP3   OH226733   4.517   4.994   2.525 -0.7314 -0.1574 -0.2724
 1773TIP3    H126734   4.554   4.909   2.547 -0.0675  0.5117  1.3057
 1773TIP3    H226735   4.450   4.974   2.459  0.9385 -1.6419 -1.6351
 1774TIP3   OH226736   3.286   1.113  12.091  0.5948  0.5168 -0.4404
 1774TIP3    H126737   3.350   1.042  12.094 -0.5860 -0.5408  1.1242
 1774TIP3    H226738   3.255   1.113  12.000 -0.6507 -2.2150 -0.1202
 1775TIP3   OH226739   6.194   3.663   1.424  0.5211  0.4639  0.0835
 1775TIP3    H126740   6.127   3.720   1.460  0.4335  1.0915 -1.0467
 1775TIP3    H226741   6.273   3.685   1.473  0.1895  0.6171  0.5519
 1776TIP3   OH226742   4.778   0.221   5.329  0.1163  0.2588 -0.4389
 1776TIP3    H126743   4.810   0.306   5.358 -0.3405 -0.0173  0.9289
 1776TIP3    H226744   4.850   0.161   5.346 -0.7355 -0.2070  1.8202
 1777TIP3   OH226745   3.356   6.755  16.634 -0.4341  0.4472  0.1275
 1777TIP3    H126746   3.286   6.819  16.644 -0.1649  0.9648 -1.1490
 1777TIP3    H226747   3.421   6.798  16.578 -0.7358 -1.2692 -1.6733
 1778TIP3   OH226748   0.332   1.799  16.761 -0.4885  0.4913  0.1141
 1778TIP3    H126749   0.387   1.722  16.747 -1.4340  0.1954 -2.5751
 1778TIP3    H226750   0.243   1.765  16.762 -0.8484  1.4027  0.3350
 1779TIP3   OH226751   3.238   4.791  13.415  0.3880 -0.5446  0.1191
 1779TIP3    H126752   3.237   4.724  13.484 -2.4413  0.2647  1.0045
 1779TIP3    H226753   3.273   4.869  13.459  0.4284 -0.5288  0.0597
 1780TIP3   OH226754   2.315   1.984  12.703 -0.0325  0.0915 -0.1169
 1780TIP3    H126755   2.324   1.982  12.607 -1.2110 -1.6519 -0.2369
 1780TIP3    H226756   2.307   1.892  12.728 -2.6649  0.6223  1.3633
 1781TIP3   OH226757   2.530   0.879   0.457 -0.9300  0.4131  0.3414
 1781TIP3    H126758   2.595   0.817   0.424  1.0203  1.4792  1.9391
 1781TIP3    H226759   2.445   0.836   0.441  0.0210 -0.4859 -2.9598
 1782TIP3   OH226760   2.517   2.673  13.904  0.3119 -0.0178 -0.1660
 1782TIP3    H126761   2.593   2.647  13.851 -0.1392  0.7625 -1.2354
 1782TIP3    H226762   2.509   2.603  13.969  1.5227 -0.4699 -0.4607
 1783TIP3   OH226763   4.436   2.924  12.189  0.4855  0.0028  0.2592
 1783TIP3    H126764   4.470   2.918  12.099  1.3468 -1.0172  0.6307
 1783TIP3    H226765   4.500   2.876  12.242 -1.4569 -1.9442  1.0188
 1784TIP3   OH226766   4.691   1.497  16.570  0.4889 -0.2144 -0.1381
 1784TIP3    H126767   4.766   1.476  16.514 -0.2461 -1.4105 -0.7171
 1784TIP3    H226768   4.729   1.513  16.656  1.6582  1.7512 -0.9630
 1785TIP3   OH226769   2.790   5.434   2.102 -0.1597 -0.5660 -0.5887
 1785TIP3    H126770   2.744   5.412   2.021 -3.5928  3.6431 -0.1123
 1785TIP3    H226771   2.726   5.417   2.172  1.5183 -0.9209  0.9430
 1786TIP3   OH226772   5.575   6.755  10.752 -0.2121 -0.0220  0.0935
 1786TIP3    H126773   5.608   6.841  10.727 -0.1737  0.0034  0.2322
 1786TIP3    H226774   5.649   6.696  10.741  0.4872  0.3693  2.3436
 1787TIP3   OH226775   0.806   3.928  17.001  0.0606 -0.1400 -0.8216
 1787TIP3    H126776   0.800   3.864  17.073  1.3128 -0.0965 -0.6618
 1787TIP3    H226777   0.848   4.004  17.040 -0.2734  0.3184 -1.3369
 1788TIP3   OH226778   1.567   4.030  12.574 -0.5545 -0.4120 -0.1967
 1788TIP3    H126779   1.613   4.027  12.657 -0.4301  0.4506 -0.2219
 1788TIP3    H226780   1.522   3.946  12.568 -0.1296 -0.6942  0.4852
 1789TIP3   OH226781   6.045   1.245   5.004 -0.1487  0.0576  0.2743
 1789TIP3    H126782   6.091   1.168   5.034 -1.2388 -0.5134  0.5279
 1789TIP3    H226783   5.969   1.211   4.957 -0.0255  0.9632 -0.6281
 1790TIP3   OH226784   4.773   4.416   2.330 -0.0558  0.0434  0.1855
 1790TIP3    H126785   4.800   4.395   2.419  0.3945 -1.8967 -0.3580
 1790TIP3    H226786   4.851   4.399   2.277 -0.7344 -0.2192 -0.7430
 1791TIP3   OH226787   6.668   0.311   3.056 -0.2330 -0.0031 -0.9747
 1791TIP3    H126788   6.617   0.322   2.976  1.2803  0.0004 -1.9798
 1791TIP3    H226789   6.745   0.260   3.030 -0.8132 -2.0582  0.9722
 1792TIP3   OH226790   2.650   3.257  12.958  0.3293  0.3505  0.4461
 1792TIP3    H126791   2.689   3.237  13.043 -1.8636  0.2943  1.4952
 1792TIP3    H226792   2.657   3.175  12.909  1.4866  0.3449  0.5908
 1793TIP3   OH226793   5.844   1.474   0.745  0.0661 -0.5803  0.4330
 1793TIP3    H126794   5.911   1.422   0.701  0.5323  0.0440  0.3881
 1793TIP3    H226795   5.877   1.487   0.834  0.6691  0.8607  0.0290
 1794TIP3   OH226796   5.837   0.744   1.410 -0.5746 -0.0524 -0.3711
 1794TIP3    H126797   5.845   0.648   1.407  1.4902  0.0561 -0.1626
 1794TIP3    H226798   5.894   0.775   1.340  1.2309  1.0462  1.4592
 1795TIP3   OH226799   1.593   5.905   4.268  0.1924 -0.7569  0.2793
 1795TIP3    H126800   1.599   5.909   4.363 -0.0872 -0.0791  0.2721
 1795TIP3    H226801   1.555   5.989   4.242 -1.3121 -1.5690 -0.3114
 1796TIP3   OH226802   4.511   2.403   5.483 -0.3943  0.3277  0.0203
 1796TIP3    H126803   4.588   2.347   5.471 -0.8829 -0.8458  1.9501
 1796TIP3    H226804   4.543   2.491   5.463  0.7902 -0.4207 -1.6207
 1797TIP3   OH226805   0.851   3.559  13.986  0.3481 -0.5355  0.0642
 1797TIP3    H126806   0.801   3.531  13.910  0.1869 -0.1735  0.0340
 1797TIP3    H226807   0.916   3.621  13.951 -0.5997  0.6845  0.3935
 1798TIP3   OH226808   1.357   2.113   4.772  0.1164 -0.4874  0.6187
 1798TIP3    H126809   1.276   2.134   4.725  1.1647  0.3687 -0.9056
 1798TIP3    H226810   1.352   2.018   4.788 -1.0775 -0.4809  0.3526
 1799TIP3   OH226811   3.399   2.693   5.225  0.1049 -0.4170  0.0438
 1799TIP3    H126812   3.395   2.747   5.146 -1.8657  0.3145  0.5804
 1799TIP3    H226813   3.398   2.603   5.192  1.0961 -0.1490 -0.7874
 1800TIP3   OH226814   6.175   5.088  14.668  0.9787  0.2056 -0.4054
 1800TIP3    H126815   6.154   5.077  14.575  0.1459  0.3445 -0.2339
 1800TIP3    H226816   6.131   5.169  14.693  0.8162 -0.0784  0.2306
 1801TIP3   OH226817   5.837   3.315  11.585 -0.0111  0.0013  0.2663
 1801TIP3    H126818   5.919   3.334  11.538 -1.2485  2.0935 -1.2085
 1801TIP3    H226819   5.785   3.263  11.523 -0.4987  0.2294  0.4831
 1802TIP3   OH226820   5.213   0.497   6.815 -0.0144  0.0109  0.1577
 1802TIP3    H126821   5.137   0.531   6.863 -0.7431  2.0092 -2.1776
 1802TIP3    H226822   5.176   0.441   6.747  0.4939  1.2311 -1.1878
 1803TIP3   OH226823   0.723   3.174   3.969 -0.3887 -0.2342 -0.5177
 1803TIP3    H126824   0.768   3.110   3.914 -0.8982  0.3957 -1.7096
 1803TIP3    H226825   0.790   3.203   4.031 -0.0491 -1.6165 -0.2086
 1804TIP3   OH226826   3.758   3.766  10.919  0.4564  0.0851  0.2426
 1804TIP3    H126827   3.685   3.817  10.885  0.8064  0.5854  0.2264
 1804TIP3    H226828   3.719   3.685  10.950 -0.1662  0.5304  0.6336
 1805TIP3   OH226829   1.646   1.930  15.383  0.3233 -0.1616  0.1683
 1805TIP3    H126830   1.667   2.014  15.341 -2.4694  1.7652  2.2795
 1805TIP3    H226831   1.560   1.907  15.347  0.8711 -1.9443 -0.0642
 1806TIP3   OH226832   4.738   3.222  13.850  0.2372  0.4227  0.2978
 1806TIP3    H126833   4.722   3.145  13.795 -0.6366  0.0037  1.0950
 1806TIP3    H226834   4.802   3.192  13.915 -0.0721  0.3582  0.5827
 1807TIP3   OH226835   6.047   0.712  15.340  0.3869  0.2838 -0.5517
 1807TIP3    H126836   6.138   0.734  15.356  0.0310  0.6635  1.1310
 1807TIP3    H226837   6.034   0.629  15.386 -0.5725  1.1907  0.9008
 1808TIP3   OH226838   6.379   2.845   1.032  0.1679 -0.4555 -0.2216
 1808TIP3    H126839   6.290   2.830   1.064  0.4121  0.7250  1.1244
 1808TIP3    H226840   6.408   2.925   1.077  2.3707 -1.4978  0.3789
 1809TIP3   OH226841   4.162   5.216  12.106  0.5710  0.1002  0.3971
 1809TIP3    H126842   4.093   5.179  12.051  0.9348 -1.1809  0.7717
 1809TIP3    H226843   4.118   5.284  12.158 -0.2526 -0.2326  0.1449
 1810TIP3   OH226844   3.601   6.187  14.477  0.3024  0.2197 -0.2648
 1810TIP3    H126845   3.616   6.104  14.431  0.2449 -0.4581  0.8955
 1810TIP3    H226846   3.506   6.197  14.477  0.3243  0.4573 -0.6816
 1811TIP3   OH226847   5.469   0.763   2.006  0.4314  0.4998  0.3406
 1811TIP3    H126848   5.517   0.835   2.047 -0.2704  0.6865  0.8592
 1811TIP3    H226849   5.412   0.805   1.942 -0.6610  0.5282  1.2910
 1812TIP3   OH226850   4.177   4.743   0.796  0.1467  1.0619  0.2816
 1812TIP3    H126851   4.184   4.683   0.722 -0.6969 -1.8628  2.3520
 1812TIP3    H226852   4.084   4.761   0.804  0.3121  1.9860  0.1943
 1813TIP3   OH226853   1.838   3.942  13.459  0.0236  0.5259  0.3505
 1813TIP3    H126854   1.764   3.933  13.519 -0.3975  0.5678 -0.1560
 1813TIP3    H226855   1.809   4.007  13.395 -0.1706 -0.6727 -0.8303
 1814TIP3   OH226856   2.899   2.667  14.350 -0.4956 -0.1638  0.8095
 1814TIP3    H126857   2.936   2.596  14.403  1.5161  0.0023 -0.3018
 1814TIP3    H226858   2.932   2.747  14.390 -0.6379  0.0521  0.4996
 1815TIP3   OH226859   2.931   3.841  14.481 -0.0445  0.2111 -0.4608
 1815TIP3    H126860   2.962   3.821  14.392 -0.1868 -0.2340 -0.4110
 1815TIP3    H226861   2.951   3.763  14.532  0.9885  0.8495  0.1543
 1816TIP3   OH226862   3.230   5.732  17.021  0.2214 -0.1896 -0.5503
 1816TIP3    H126863   3.310   5.752  17.070  0.0942  2.6544 -1.3208
 1816TIP3    H226864   3.173   5.687  17.084  1.1409  0.8167  1.0619
 1817TIP3   OH226865   1.818   3.233  13.046  0.1262  0.0755  0.3193
 1817TIP3    H126866   1.745   3.183  13.083 -1.0662  0.6206 -1.1569
 1817TIP3    H226867   1.876   3.250  13.120 -1.3597 -0.2110  1.5965
 1818TIP3   OH226868   2.822   6.393  13.599  0.1497  0.1524  0.1226
 1818TIP3    H126869   2.782   6.341  13.669 -0.3112  1.5513  0.9581
 1818TIP3    H226870   2.770   6.474  13.598  2.0170  1.4229  0.2360
 1819TIP3   OH226871   0.185   1.332  12.778 -0.6142 -0.7958  0.0788
 1819TIP3    H126872   0.268   1.353  12.735  0.3912 -1.3752  1.6703
 1819TIP3    H226873   0.152   1.416  12.809 -1.2822 -0.3857 -1.6053
 1820TIP3   OH226874   1.284   3.041   4.031 -0.6829 -0.3451 -0.4903
 1820TIP3    H126875   1.328   2.980   3.972  0.1326 -0.0627 -0.1847
 1820TIP3    H226876   1.219   2.987   4.077 -1.1195 -0.6279 -1.4110
 1821TIP3   OH226877   3.433   1.748   6.104 -0.5235 -0.1165  0.0310
 1821TIP3    H126878   3.486   1.698   6.042  0.8941 -0.2491  1.2670
 1821TIP3    H226879   3.398   1.682   6.164 -0.0381  0.1961  0.6714
 1822TIP3   OH226880   3.683   3.857   1.720 -0.1860  0.1905 -0.1417
 1822TIP3    H126881   3.668   3.809   1.802 -0.2549  0.8384  0.2372
 1822TIP3    H226882   3.776   3.876   1.720  0.0077 -0.7013 -0.7290
 1823TIP3   OH226883   0.281   2.796   0.436  0.0502 -0.4768  0.2930
 1823TIP3    H126884   0.209   2.845   0.397  0.9329  1.0244  0.4723
 1823TIP3    H226885   0.287   2.829   0.526 -0.4434 -2.1960  0.9860
 1824TIP3   OH226886   4.632   5.402  17.055  0.1983  0.7003 -0.1392
 1824TIP3    H126887   4.701   5.454  17.096  0.6616 -0.4218  0.5284
 1824TIP3    H226888   4.559   5.464  17.044 -0.0720  1.0178  2.7029
 1825TIP3   OH226889   2.169   3.474   5.254  0.8961  0.1516  0.1120
 1825TIP3    H126890   2.103   3.428   5.307 -0.8780  1.9972 -0.3690
 1825TIP3    H226891   2.250   3.463   5.303 -0.3122  0.1907  2.2650
 1826TIP3   OH226892   6.220   5.185   3.384 -0.4195 -0.2222 -0.0869
 1826TIP3    H126893   6.183   5.191   3.296  0.2038 -3.3060 -0.6729
 1826TIP3    H226894   6.310   5.217   3.374 -0.4060 -0.3908 -0.5435
 1827TIP3   OH226895   0.879   6.096   1.305  1.0688 -0.1067 -0.2164
 1827TIP3    H126896   0.914   6.168   1.253  0.0122 -0.0840 -0.9354
 1827TIP3    H226897   0.815   6.054   1.247  0.5095 -0.6332  0.7547
 1828TIP3   OH226898   3.847   3.738   1.470 -0.4076 -0.4768  0.7995
 1828TIP3    H126899   3.752   3.731   1.474 -0.4047 -0.2057  1.3674
 1828TIP3    H226900   3.879   3.652   1.497 -0.4580  0.1688  3.1103
 1829TIP3   OH226901   2.891   5.775  16.741 -0.0316 -0.0129  0.2918
 1829TIP3    H126902   2.859   5.685  16.752  1.4572 -0.5370  0.4765
 1829TIP3    H226903   2.984   5.770  16.760  0.4124  1.2531 -1.3558
 1830TIP3   OH226904   2.240   4.812  16.362 -0.4841  0.2730  0.8693
 1830TIP3    H126905   2.290   4.857  16.294  1.0126 -0.8878  1.1496
 1830TIP3    H226906   2.300   4.746  16.398 -1.9162 -0.5754  1.8708
 1831TIP3   OH226907   1.957   0.261   3.066 -0.3043 -0.2257  0.1125
 1831TIP3    H126908   1.912   0.215   2.995 -0.6004 -0.3711  0.3913
 1831TIP3    H226909   1.901   0.337   3.084  0.3887  0.4746 -0.6200
 1832TIP3   OH226910   5.223   6.070   2.640  0.2533  0.1776 -0.2636
 1832TIP3    H126911   5.220   5.975   2.648 -0.9289  0.3022  1.4510
 1832TIP3    H226912   5.149   6.092   2.584  0.2220  0.1002 -0.2531
 1833TIP3   OH226913   3.753   3.273  16.437  0.5366 -0.8090  0.6800
 1833TIP3    H126914   3.692   3.275  16.511  0.3196 -2.9664  0.6403
 1833TIP3    H226915   3.721   3.201  16.383  0.2577  1.1647 -1.9541
 1834TIP3   OH226916   4.713   5.965   4.007 -0.3772 -0.5058  0.4370
 1834TIP3    H126917   4.768   5.902   4.053  0.8542  0.7587  0.7520
 1834TIP3    H226918   4.629   5.961   4.053 -0.4185 -2.0967  0.2696
 1835TIP3   OH226919   0.938   5.471   3.065  0.6795 -0.2304  0.2320
 1835TIP3    H126920   1.025   5.479   3.103  1.0511 -0.7908 -0.4735
 1835TIP3    H226921   0.912   5.561   3.044  0.2853  0.1528  2.1384
 1836TIP3   OH226922   3.936   1.740  17.233  0.3294  0.4974 -0.0268
 1836TIP3    H126923   3.859   1.757  17.287  0.1358  1.2016 -0.5084
 1836TIP3    H226924   3.901   1.725  17.145  0.7892  2.0481 -0.5157
 1837TIP3   OH226925   2.482   3.287   6.070  0.4678 -0.6171  0.3576
 1837TIP3    H126926   2.560   3.336   6.094 -0.8741  1.4849  0.6623
 1837TIP3    H226927   2.435   3.274   6.152 -0.8258  0.6283 -0.1384
 1838TIP3   OH226928   5.282   6.121  11.827  0.0660 -0.5055 -0.1720
 1838TIP3    H126929   5.276   6.070  11.746  0.3112 -0.6378 -0.1091
 1838TIP3    H226930   5.344   6.072  11.881 -0.3279 -0.5801  0.2175
 1839TIP3   OH226931   6.190   4.152   1.996 -0.1328 -0.3289 -0.2780
 1839TIP3    H126932   6.131   4.224   2.017  0.0176 -0.3265  0.1494
 1839TIP3    H226933   6.208   4.162   1.903  0.0486  0.3147 -0.1788
 1840TIP3   OH226934   4.317   6.432  14.864  0.0202  0.0962 -0.0789
 1840TIP3    H126935   4.223   6.416  14.874  0.0717 -0.7658 -0.8699
 1840TIP3    H226936   4.358   6.351  14.895  0.4210 -0.1532 -1.2208
 1841TIP3   OH226937   4.157   0.883  14.557  0.3370 -1.0765  0.8354
 1841TIP3    H126938   4.103   0.959  14.575 -0.3426 -1.1108 -0.8899
 1841TIP3    H226939   4.158   0.834  14.639  0.8485  0.7806  2.0023
 1842TIP3   OH226940   1.856   2.794   1.409 -0.3548  0.7974 -0.0293
 1842TIP3    H126941   1.812   2.728   1.354  0.3355 -0.0818  0.4450
 1842TIP3    H226942   1.786   2.849   1.442 -0.9343  0.3844 -0.5533
 1843TIP3   OH226943   5.186   1.564  16.795  0.1793  0.1948 -0.0109
 1843TIP3    H126944   5.201   1.596  16.884  0.9482 -1.0427  0.3267
 1843TIP3    H226945   5.205   1.471  16.799  0.2134  0.1097 -1.4804
 1844TIP3   OH226946   1.714   4.310   3.710 -0.1221 -0.1769 -0.2192
 1844TIP3    H126947   1.790   4.358   3.678  1.7737 -1.2165  2.3657
 1844TIP3    H226948   1.716   4.228   3.661 -1.1330  0.7783 -1.9401
 1845TIP3   OH226949   6.690   4.552   5.378  0.2852  0.1370  0.2688
 1845TIP3    H126950   6.645   4.475   5.343 -0.7997  1.1332 -0.6327
 1845TIP3    H226951   6.781   4.525   5.387 -0.0916 -1.2775  0.0871
 1846TIP3   OH226952   3.789   0.262   1.315  0.0441 -0.0959  0.1711
 1846TIP3    H126953   3.794   0.195   1.246 -0.9360  0.1706 -0.1712
 1846TIP3    H226954   3.799   0.345   1.269 -1.6052  0.1395  0.1891
 1847TIP3   OH226955   2.856   4.114   5.748  0.0041 -0.1848 -0.4514
 1847TIP3    H126956   2.802   4.167   5.807  0.0364 -0.7621  0.1063
 1847TIP3    H226957   2.897   4.049   5.805  1.2185  0.1695 -0.8798
 1848TIP3   OH226958   3.131   2.133   4.777  0.1680 -0.0339  0.0497
 1848TIP3    H126959   3.182   2.132   4.858  1.9883  1.1189 -1.0224
 1848TIP3    H226960   3.083   2.216   4.780 -0.4103 -0.3660  0.2898
 1849TIP3   OH226961   3.245   2.156   3.868  0.0646 -0.1715  0.1091
 1849TIP3    H126962   3.304   2.221   3.906 -0.1261 -0.7467  1.4703
 1849TIP3    H226963   3.183   2.207   3.816  1.4952  0.4738 -1.0359
 1850TIP3   OH226964   0.729   5.436  15.803 -0.0317  0.3841 -0.1505
 1850TIP3    H126965   0.782   5.399  15.733  1.4494  0.8696  0.6531
 1850TIP3    H226966   0.693   5.360  15.849 -0.9533  0.0653 -1.3577
 1851TIP3   OH226967   1.064   6.150  13.904 -0.0974  0.2136  0.0786
 1851TIP3    H126968   1.154   6.138  13.936 -0.4808  0.2890  1.2047
 1851TIP3    H226969   1.055   6.245  13.895 -0.5362  0.3157  1.4055
 1852TIP3   OH226970   4.409   3.657   2.934  0.3142 -0.0679  0.1132
 1852TIP3    H126971   4.327   3.616   2.961 -0.2521  0.9199 -0.0484
 1852TIP3    H226972   4.466   3.584   2.908 -0.8195 -0.7198 -0.6210
 1853TIP3   OH226973   2.580   3.895  16.353  0.3577 -0.3839 -0.3306
 1853TIP3    H126974   2.585   3.850  16.437 -0.6000  1.6262  0.8451
 1853TIP3    H226975   2.488   3.889  16.327 -0.3514  2.8026  1.0208
 1854TIP3   OH226976   4.985   3.408   4.530  0.1600 -0.8558  0.1799
 1854TIP3    H126977   5.039   3.486   4.544 -1.0157  0.0479 -0.1515
 1854TIP3    H226978   5.047   3.340   4.505  1.0489  0.4326 -1.2881
 1855TIP3   OH226979   2.097   1.102   0.013  0.4785 -0.4368  0.1983
 1855TIP3    H126980   2.010   1.065  -0.000  0.7461 -2.1736  2.6866
 1855TIP3    H226981   2.139   1.095  -0.072 -1.5336 -0.2016 -0.8890
 1856TIP3   OH226982   0.170   4.129  12.874  0.3090  0.3207 -0.1080
 1856TIP3    H126983   0.186   4.215  12.914 -0.9592  1.1225 -1.2262
 1856TIP3    H226984   0.190   4.142  12.781  2.0009 -1.1683 -0.0005
 1857TIP3   OH226985   2.989   0.030   0.132 -0.0097  0.2364  0.9495
 1857TIP3    H126986   3.056   0.092   0.160 -0.2230 -0.2025  2.5357
 1857TIP3    H226987   3.028  -0.056   0.148 -0.4422 -0.0206  0.6310
 1858TIP3   OH226988   4.062   1.632  15.387 -0.2374 -0.4458  0.0165
 1858TIP3    H126989   4.021   1.617  15.472  1.4616 -1.9028  0.6435
 1858TIP3    H226990   4.110   1.715  15.398  0.4204 -0.8980  0.6964
 1859TIP3   OH226991   5.209   1.177   0.885  0.1225 -0.0290 -0.3632
 1859TIP3    H126992   5.256   1.103   0.922 -0.6819 -0.8325 -0.9143
 1859TIP3    H226993   5.128   1.182   0.935 -0.2706 -0.1479 -0.9729
 1860TIP3   OH226994   1.740   3.116   5.339  0.1163  0.2791  0.1448
 1860TIP3    H126995   1.830   3.137   5.362  0.4010 -0.3473 -0.3668
 1860TIP3    H226996   1.706   3.068   5.415  0.6461 -0.6716 -0.2126
 1861TIP3   OH226997   5.912   0.979  12.728 -0.3569 -0.2972  0.3932
 1861TIP3    H126998   5.864   0.967  12.810 -1.5171 -0.1554 -0.2287
 1861TIP3    H226999   5.979   1.045  12.748 -1.7018  0.9972  0.8408
 1862TIP3   OH227000   3.266   0.896  15.961  0.2853  0.2503 -0.2595
 1862TIP3    H127001   3.292   0.905  15.869 -0.3545  2.2345 -0.3112
 1862TIP3    H227002   3.341   0.927  16.011  0.8403 -1.3420 -0.0507
 1863TIP3   OH227003   2.441   0.289  11.605  0.2503  0.1105  0.3222
 1863TIP3    H127004   2.497   0.354  11.648 -1.0200  1.4375  0.0271
 1863TIP3    H227005   2.370   0.274  11.667  0.3913 -0.8083  0.2709
 1864TIP3   OH227006   4.082   0.827   6.454 -0.3610 -0.0223 -0.3030
 1864TIP3    H127007   4.053   0.918   6.465  0.1748  0.2751 -1.2939
 1864TIP3    H227008   4.022   0.777   6.509 -0.0046  1.0269  1.1032
 1865TIP3   OH227009   0.939   4.250   5.330  0.6141 -0.3948 -0.2381
 1865TIP3    H127010   0.949   4.343   5.309  1.1207 -0.2251  0.6890
 1865TIP3    H227011   1.018   4.209   5.295  0.9237 -0.2898  0.3231
 1866TIP3   OH227012   3.798   6.498  10.837  0.2278  0.5255 -0.5818
 1866TIP3    H127013   3.815   6.548  10.917  1.7779  0.9552 -1.1486
 1866TIP3    H227014   3.878   6.450  10.821 -0.9584 -1.5999 -0.4886
 1867TIP3   OH227015   2.631   1.285  16.672 -0.2480  0.2269 -0.2514
 1867TIP3    H127016   2.689   1.229  16.723 -0.0459 -0.2507 -1.0023
 1867TIP3    H227017   2.686   1.359  16.647 -0.3058  0.3867  0.0831
 1868TIP3   OH227018   6.621   6.702  15.113  0.2690 -0.0532 -0.2292
 1868TIP3    H127019   6.625   6.626  15.172  1.0632  0.1557  0.0042
 1868TIP3    H227020   6.603   6.664  15.027 -2.5742 -0.2312  0.3624
 1869TIP3   OH227021   2.118   6.095   2.073 -0.4081  0.0773 -0.2395
 1869TIP3    H127022   2.036   6.143   2.083  0.0709  1.1337 -1.2083
 1869TIP3    H227023   2.179   6.137   2.133 -0.6474 -0.9229  0.7278
 1870TIP3   OH227024   3.757   2.604  12.124  0.5206 -0.0388 -0.4781
 1870TIP3    H127025   3.705   2.532  12.159 -0.0956 -0.1536 -1.5721
 1870TIP3    H227026   3.724   2.616  12.034  0.3788  1.8288 -0.2174
 1871TIP3   OH227027   2.777   3.886   1.115 -0.5281 -0.4642  0.3573
 1871TIP3    H127028   2.724   3.862   1.191 -1.4017  1.2548  0.3550
 1871TIP3    H227029   2.736   3.839   1.042 -1.7393  0.4021  0.4501
 1872TIP3   OH227030   3.821   2.928  16.414  0.0875  0.3030  0.0903
 1872TIP3    H127031   3.870   2.868  16.470 -0.2591  0.8146  0.9668
 1872TIP3    H227032   3.745   2.878  16.384  1.2216 -0.5710 -1.4602
 1873TIP3   OH227033   3.149   4.607  12.652 -0.0234  0.6441 -0.1172
 1873TIP3    H127034   3.133   4.532  12.596  0.5945  1.7724 -1.8889
 1873TIP3    H227035   3.062   4.630  12.687 -0.2860 -0.5617  0.0742
 1874TIP3   OH227036   5.153   2.140   2.615  0.3300 -0.4648  0.6640
 1874TIP3    H127037   5.087   2.074   2.636 -0.6517  0.4206  0.4541
 1874TIP3    H227038   5.103   2.213   2.578  1.5004 -0.0187 -0.0765
 1875TIP3   OH227039   3.640   3.062   5.225  0.2789  0.2236 -0.7334
 1875TIP3    H127040   3.564   3.039   5.278 -0.7188  3.3189 -0.5755
 1875TIP3    H227041   3.639   3.001   5.152 -2.3894  0.1369 -0.7134
 1876TIP3   OH227042   5.012   3.533  12.970 -0.2257 -0.1639 -0.0370
 1876TIP3    H127043   5.107   3.537  12.956 -0.3469  0.0415 -0.8631
 1876TIP3    H227044   4.979   3.613  12.929 -0.7923 -0.4024 -0.0528
 1877TIP3   OH227045   3.125   2.802   0.157  0.2334  0.4350 -0.4311
 1877TIP3    H127046   3.199   2.856   0.182  0.6257 -1.0937  2.0991
 1877TIP3    H227047   3.049   2.848   0.192  0.3656  0.3053  0.0308
 1878TIP3   OH227048   3.062   4.241  11.716 -0.5579 -0.0048  0.1875
 1878TIP3    H127049   3.079   4.211  11.627  0.8197 -2.6763  1.2484
 1878TIP3    H227050   3.148   4.246  11.756 -1.2369  0.0024  1.7035
 1879TIP3   OH227051   4.702   4.495   0.635 -0.0472 -0.5628 -0.3709
 1879TIP3    H127052   4.720   4.456   0.549 -0.7746  0.0286 -0.8005
 1879TIP3    H227053   4.610   4.520   0.631 -0.0531 -0.4112  0.5409
 1880TIP3   OH227054   3.964   4.509   3.184 -0.0309  0.3126 -0.3515
 1880TIP3    H127055   3.871   4.533   3.176 -0.2743 -1.0251 -2.0853
 1880TIP3    H227056   4.008   4.591   3.205 -1.4369  1.2375 -0.8516
 1881TIP3   OH227057   1.508   1.197   1.887  0.3878 -0.2842 -0.3726
 1881TIP3    H127058   1.425   1.171   1.848 -1.0845  3.9780 -0.6348
 1881TIP3    H227059   1.490   1.201   1.981 -0.6655  3.0165 -0.6077
 1882TIP3   OH227060   3.321   1.308  17.095  0.4933  0.1997  0.1303
 1882TIP3    H127061   3.269   1.283  17.171  3.6811 -2.4176  1.7236
 1882TIP3    H227062   3.346   1.399  17.111  1.2846 -0.3525  2.4805
 1883TIP3   OH227063   5.648   4.125  10.585  0.2317  0.0599  0.2268
 1883TIP3    H127064   5.734   4.099  10.617  0.0714 -1.4846 -0.5107
 1883TIP3    H227065   5.590   4.053  10.610 -0.5602  0.4170 -0.5256
 1884TIP3   OH227066   0.828   0.087   5.227  0.1780  0.1828 -0.3763
 1884TIP3    H127067   0.776   0.018   5.268  0.1201  1.7936  2.5200
 1884TIP3    H227068   0.919   0.066   5.250  0.3325  0.2057 -0.9292
 1885TIP3   OH227069   1.300   3.313   4.406 -0.2534  0.2219  0.2909
 1885TIP3    H127070   1.360   3.289   4.335 -2.1700 -1.3722 -0.9059
 1885TIP3    H227071   1.233   3.367   4.363 -1.9825 -1.5610  0.5665
 1886TIP3   OH227072   2.684   2.382  14.824 -0.1207  0.4759 -0.3647
 1886TIP3    H127073   2.706   2.347  14.737 -1.0620  0.2640 -0.5224
 1886TIP3    H227074   2.695   2.477  14.815 -2.0241  0.6537 -1.2848
 1887TIP3   OH227075   1.116   1.901  12.385 -0.1635  0.1627  0.3337
 1887TIP3    H127076   1.191   1.846  12.407 -0.0951  0.0550 -0.1569
 1887TIP3    H227077   1.124   1.977  12.443 -0.5837 -0.6032  1.4287
 1888TIP3   OH227078   6.732   2.567  10.810  0.1988  0.3598  0.1786
 1888TIP3    H127079   6.751   2.646  10.760  3.8828 -0.8307 -0.6481
 1888TIP3    H227080   6.681   2.512  10.750  1.6834  0.3021 -1.1075
 1889TIP3   OH227081   5.785   5.861  15.142 -0.5006  0.8560  0.0267
 1889TIP3    H127082   5.781   5.949  15.181 -1.9205  1.7815 -2.0311
 1889TIP3    H227083   5.696   5.827  15.152 -0.4456  0.4307 -0.8328
 1890TIP3   OH227084   0.469   6.290  15.761 -0.1487 -0.1418  0.4445
 1890TIP3    H127085   0.520   6.257  15.835 -0.7764  0.5057  1.1930
 1890TIP3    H227086   0.387   6.241  15.764  0.3085 -1.0112 -0.6093
 1891TIP3   OH227087   2.001   5.543  15.255  0.4984  0.5835 -0.1111
 1891TIP3    H127088   2.076   5.497  15.292  0.1904  0.8882  0.9462
 1891TIP3    H227089   2.020   5.551  15.162  1.3251 -0.1881 -0.0147
 1892TIP3   OH227090   2.765   0.620  12.348  0.4486 -0.0012 -0.1847
 1892TIP3    H127091   2.708   0.546  12.332  0.0736 -0.2184  1.8110
 1892TIP3    H227092   2.836   0.611  12.285  0.1355 -1.7634 -0.3111
 1893TIP3   OH227093   2.951   4.060  13.791 -0.2960 -0.1037 -0.6267
 1893TIP3    H127094   3.004   4.090  13.717 -0.6492 -1.1163 -1.3085
 1893TIP3    H227095   2.892   3.995  13.753 -1.9735  0.9216  0.1265
 1894TIP3   OH227096   5.953   6.352  15.519  0.5788  0.0991  0.3069
 1894TIP3    H127097   5.956   6.271  15.571  1.2220  1.2064  2.0806
 1894TIP3    H227098   6.034   6.352  15.468  0.5483 -0.3970  0.2567
 1895TIP3   OH227099   5.159   5.940  16.784 -0.1249  0.3423  0.7184
 1895TIP3    H127100   5.111   5.878  16.729 -0.4929  1.4007 -0.1836
 1895TIP3    H227101   5.097   6.010  16.801  0.3715  0.6063  1.5139
 1896TIP3   OH227102   5.874   2.144   3.804 -0.1956 -0.0392 -0.0542
 1896TIP3    H127103   5.845   2.235   3.807 -2.7776 -0.7360 -1.1348
 1896TIP3    H227104   5.906   2.125   3.892 -1.3785  1.3963  0.7240
 1897TIP3   OH227105   4.430   1.910  15.902  0.2959 -0.3617 -0.4369
 1897TIP3    H127106   4.443   1.983  15.842 -0.5691 -0.1253 -0.3445
 1897TIP3    H227107   4.378   1.847  15.853 -2.0902  0.6441  0.6356
 1898TIP3   OH227108   2.746   1.231  12.520  0.5139 -0.9214 -0.6067
 1898TIP3    H127109   2.723   1.302  12.580  0.3075 -0.8053 -0.8223
 1898TIP3    H227110   2.842   1.228  12.522  0.6407  0.5335 -1.9270
 1899TIP3   OH227111   2.920   5.531  11.296  0.1717 -0.2541  0.4853
 1899TIP3    H127112   2.967   5.604  11.255  0.4206 -0.0453  1.1212
 1899TIP3    H227113   2.900   5.471  11.224 -1.0045  0.9455 -0.2186
 1900TIP3   OH227114   5.711   4.847  16.910  0.0029 -0.0124 -0.2655
 1900TIP3    H127115   5.714   4.851  16.814  3.1857  0.6732 -0.2646
 1900TIP3    H227116   5.714   4.939  16.937 -1.1470 -0.1929  0.5200
 1901TIP3   OH227117   5.359   5.892  17.123 -0.2411 -0.4355  0.2211
 1901TIP3    H127118   5.413   5.924  17.051  2.7097 -0.2611  2.2951
 1901TIP3    H227119   5.339   5.801  17.099 -0.4685  0.0204 -1.3916
 1902TIP3   OH227120   3.714   1.556   3.668 -0.2542 -0.1911 -0.1706
 1902TIP3    H127121   3.717   1.628   3.731 -0.4080 -1.0398  0.8340
 1902TIP3    H227122   3.773   1.583   3.597  2.1337 -0.3936  1.6241
 1903TIP3   OH227123   5.781   2.709  11.844  0.1195 -0.7351 -0.1210
 1903TIP3    H127124   5.840   2.635  11.857  0.7869  0.0764  1.8712
 1903TIP3    H227125   5.832   2.785  11.869 -1.4228  0.1249  0.5600
 1904TIP3   OH227126   6.101   2.335  11.801 -0.3731 -0.2977 -0.3599
 1904TIP3    H127127   6.185   2.377  11.816 -0.0732 -0.3163 -1.8456
 1904TIP3    H227128   6.121   2.262  11.742 -1.3619 -0.5395 -0.4147
 1905TIP3   OH227129   4.011   6.347  10.778 -0.7579 -0.1992  0.0151
 1905TIP3    H127130   4.087   6.352  10.837 -0.8947  2.8264  0.0725
 1905TIP3    H227131   3.985   6.255  10.782  1.2911 -0.8067  2.0440
 1906TIP3   OH227132   5.901   3.570  16.695  0.6590 -0.2180 -0.0809
 1906TIP3    H127133   5.947   3.551  16.777  0.7037  0.2576  0.0045
 1906TIP3    H227134   5.846   3.493  16.680  0.7270 -0.3509  0.3436
 1907TIP3   OH227135   0.327   3.379   1.436 -0.1200  0.1347 -0.4001
 1907TIP3    H127136   0.394   3.411   1.496 -0.4757  0.2340 -0.0476
 1907TIP3    H227137   0.276   3.317   1.488 -0.7702  0.6327 -0.4261
 1908TIP3   OH227138   6.329   5.294  16.727  0.0415 -0.0647  0.1254
 1908TIP3    H127139   6.254   5.248  16.763  0.9701 -1.7087  0.0386
 1908TIP3    H227140   6.332   5.268  16.635  1.1370 -0.6324  0.3003
 1909TIP3   OH227141   5.254   6.260   2.841  0.1210  0.5745 -0.4709
 1909TIP3    H127142   5.176   6.284   2.892  1.1752 -0.4866  1.7824
 1909TIP3    H227143   5.219   6.217   2.763 -1.5640  1.7270 -0.4116
 1910TIP3   OH227144   6.375   3.757   2.222  0.0774 -0.7675 -0.9578
 1910TIP3    H127145   6.344   3.798   2.302  0.8337 -2.6655  0.3661
 1910TIP3    H227146   6.308   3.779   2.157 -0.6287  0.6874  0.2113
 1911TIP3   OH227147   2.308   6.308  12.959 -1.1534 -0.4259 -0.4517
 1911TIP3    H127148   2.383   6.305  12.900 -0.6224  0.9276  0.1054
 1911TIP3    H227149   2.233   6.287  12.904 -0.4416 -1.2361 -1.1466
 1912TIP3   OH227150   2.800   1.474  12.328 -0.2720  0.4376  0.3632
 1912TIP3    H127151   2.871   1.533  12.351 -0.1683  0.3701  0.2132
 1912TIP3    H227152   2.843   1.398  12.287 -0.2954 -0.2467  1.5533
 1913TIP3   OH227153   5.099   1.520   2.243 -0.1527 -0.4127  0.4731
 1913TIP3    H127154   5.013   1.486   2.220  0.0039 -0.3376 -0.2835
 1913TIP3    H227155   5.109   1.502   2.336 -0.8620 -0.6867  0.5010
 1914TIP3   OH227156   5.190   3.691   5.785 -0.3279 -0.1289 -0.4057
 1914TIP3    H127157   5.239   3.629   5.730  1.0846  0.7801 -0.2445
 1914TIP3    H227158   5.209   3.777   5.747 -1.1125  0.3315  0.2057
 1915TIP3   OH227159   2.987   4.036  15.292 -0.0188 -0.2911 -0.0536
 1915TIP3    H127160   3.021   4.055  15.204  0.0420  0.3474  0.0985
 1915TIP3    H227161   2.985   4.122  15.335 -2.3308 -0.2047 -0.2214
 1916TIP3   OH227162   3.142   1.875  12.579 -0.0180  0.0894 -0.0257
 1916TIP3    H127163   3.177   1.871  12.668  0.7931  0.7755 -0.2939
 1916TIP3    H227164   3.149   1.785  12.546 -0.9869 -0.3209  0.8268
 1917TIP3   OH227165   4.025   3.119   1.255 -0.4026 -0.3139  0.4647
 1917TIP3    H127166   3.971   3.171   1.196 -1.1234 -2.2344 -0.6573
 1917TIP3    H227167   4.098   3.089   1.201 -0.8734 -1.8039  0.6225
 1918TIP3   OH227168   5.520   4.305   3.334 -0.2505  0.0391 -0.1134
 1918TIP3    H127169   5.568   4.381   3.368 -1.8904 -0.2194  3.1479
 1918TIP3    H227170   5.586   4.255   3.285  2.3228  0.7451  2.3785
 1919TIP3   OH227171   4.838   5.716   5.631 -0.2312 -0.1610  1.0421
 1919TIP3    H127172   4.855   5.676   5.546 -2.7548 -2.9996  1.6800
 1919TIP3    H227173   4.839   5.810   5.615 -0.3544 -0.5921 -2.0511
 1920TIP3   OH227174   0.724   3.874   0.852 -0.1636 -0.1304 -0.2165
 1920TIP3    H127175   0.753   3.866   0.761 -2.5282  0.5773 -1.1354
 1920TIP3    H227176   0.647   3.816   0.857 -0.5056  0.4100  1.1130
 1921TIP3   OH227177   0.396   5.066   4.254 -0.7242 -0.0370 -0.0484
 1921TIP3    H127178   0.426   5.140   4.202  1.3480 -1.1724 -0.6038
 1921TIP3    H227179   0.412   5.091   4.345 -1.2068  0.6430 -0.1422
 1922TIP3   OH227180   2.886   0.406   5.448 -0.1403  0.3012 -0.1711
 1922TIP3    H127181   2.964   0.458   5.429 -1.0347  1.5030 -0.6989
 1922TIP3    H227182   2.894   0.329   5.392  0.2674  0.8209 -0.8388
 1923TIP3   OH227183   5.619   1.595  16.038 -0.1310  0.2768  0.2082
 1923TIP3    H127184   5.569   1.517  16.012  0.5647 -0.4895  1.1021
 1923TIP3    H227185   5.633   1.584  16.132  1.9860  0.3038 -0.0591
 1924TIP3   OH227186   1.229   0.845  13.025 -0.0963  0.1675  0.3391
 1924TIP3    H127187   1.179   0.766  13.006  1.2860 -1.2613  2.1835
 1924TIP3    H227188   1.236   0.846  13.120 -0.2637  2.6880  0.3731
 1925TIP3   OH227189   3.411   4.995  11.578 -0.2510 -0.0241 -0.0603
 1925TIP3    H127190   3.462   5.011  11.498 -0.5761 -1.2744 -0.5336
 1925TIP3    H227191   3.431   5.070  11.634  1.9465 -0.3533 -0.3136
 1926TIP3   OH227192   1.166   1.986  16.825 -0.3542  0.3123  0.3771
 1926TIP3    H127193   1.106   2.047  16.783 -0.6979 -0.3410 -0.0917
 1926TIP3    H227194   1.253   2.024  16.809 -0.5745  0.7699  0.2420
 1927TIP3   OH227195   6.575   0.658   4.011  0.6492  0.6489  0.1942
 1927TIP3    H127196   6.491   0.700   3.994  0.0823 -1.1508 -2.0476
 1927TIP3    H227197   6.620   0.658   3.926  1.9299 -0.4277  0.8232
 1928TIP3   OH227198   2.991   0.085  17.171 -0.3172  0.0122  0.2893
 1928TIP3    H127199   3.065   0.106  17.114 -0.4245  1.3692  0.6179
 1928TIP3    H227200   3.030   0.037  17.244 -0.4290 -3.6686 -1.8184
 1929TIP3   OH227201   5.509   6.000   0.267  0.0483  0.4816  0.2694
 1929TIP3    H127202   5.419   6.031   0.279  0.1419  0.4974  0.9590
 1929TIP3    H227203   5.510   5.965   0.178 -0.2273  1.8836 -0.3294
 1930TIP3   OH227204   0.951   5.537  11.502 -0.0685  0.2270  0.0607
 1930TIP3    H127205   0.898   5.593  11.445  0.1531 -2.0065 -2.5350
 1930TIP3    H227206   0.998   5.479  11.442  0.7225 -1.8477  2.5091
 1931TIP3   OH227207   6.553   5.991  11.748  0.9359 -0.5109  0.4422
 1931TIP3    H127208   6.509   5.910  11.723  0.9141 -0.6313  0.8625
 1931TIP3    H227209   6.553   6.044  11.669  1.3254 -1.0893  0.0496
 1932TIP3   OH227210   0.180   0.623  13.908  0.2071  0.2992 -0.4647
 1932TIP3    H127211   0.125   0.589  13.978  1.2213 -0.1797  0.1302
 1932TIP3    H227212   0.120   0.670  13.851 -0.6367  0.8320  0.8001
 1933TIP3   OH227213   2.697   3.239  14.794 -0.6934 -0.0566  0.2195
 1933TIP3    H127214   2.608   3.233  14.827 -0.6141  0.3600  0.5178
 1933TIP3    H227215   2.749   3.185  14.853 -0.3393  1.6729  1.5877
 1934TIP3   OH227216   4.400   6.662   0.071 -0.3142  0.2554 -0.0626
 1934TIP3    H127217   4.409   6.569   0.092 -0.6955  0.0041 -1.0051
 1934TIP3    H227218   4.428   6.707   0.152 -1.5479 -0.6774  0.9229
 1935TIP3   OH227219   6.219   3.445   4.824 -0.3815 -0.4267  0.2681
 1935TIP3    H127220   6.223   3.537   4.796 -0.1330 -0.7931 -0.9765
 1935TIP3    H227221   6.135   3.414   4.790 -0.2358 -0.7960  0.2478
 1936TIP3   OH227222   3.270   4.022   0.914 -0.5526  0.1187 -0.3234
 1936TIP3    H127223   3.354   3.981   0.934 -1.0423 -1.4497 -1.2998
 1936TIP3    H227224   3.214   3.950   0.886 -2.3409  1.0762  0.5973
 1937TIP3   OH227225   1.692   4.116   1.129  0.2078  0.1308  0.0743
 1937TIP3    H127226   1.598   4.110   1.113  0.0273  0.8708  0.8058
 1937TIP3    H227227   1.701   4.113   1.224  0.9269  0.0689  0.0136
 1938TIP3   OH227228   4.334   2.039  16.777 -0.0081 -0.0304 -0.1141
 1938TIP3    H127229   4.340   2.060  16.684  1.1865  0.5288  0.0731
 1938TIP3    H227230   4.259   2.089  16.808 -0.2833 -0.0490 -0.7299
 1939TIP3   OH227231   2.106   4.820   3.456  0.4516  0.1358  0.4315
 1939TIP3    H127232   2.172   4.846   3.520  1.1365 -0.2492 -0.0990
 1939TIP3    H227233   2.112   4.725   3.452 -1.4211 -0.0820  1.7116
 1940TIP3   OH227234   1.930   2.610   1.627 -0.4758 -0.1172  0.1593
 1940TIP3    H127235   1.962   2.660   1.552  1.1161 -0.8566  0.3002
 1940TIP3    H227236   1.997   2.621   1.694  0.0008 -2.4775  0.1512
 1941TIP3   OH227237   2.608   1.951  11.842  0.2767  0.2773 -0.5950
 1941TIP3    H127238   2.519   1.917  11.852  0.3079  0.7995  1.9371
 1941TIP3    H227239   2.595   2.042  11.816  0.1208 -0.0254 -1.6278
 1942TIP3   OH227240   6.476   0.496  13.977 -0.2239 -0.0783  0.6180
 1942TIP3    H127241   6.404   0.459  13.927  0.3143  0.6943 -0.7994
 1942TIP3    H227242   6.477   0.447  14.059  0.0997 -2.8152 -0.9256
 1943TIP3   OH227243   2.236   1.155   6.647 -0.4516  0.1044  0.1389
 1943TIP3    H127244   2.256   1.108   6.728  0.0188  0.7122  0.3804
 1943TIP3    H227245   2.285   1.109   6.579 -2.3479 -1.6246 -0.1742
 1944TIP3   OH227246   2.465   0.031   2.220 -0.0210  0.2775  0.2837
 1944TIP3    H127247   2.409   0.064   2.291  0.3829  1.5755  0.0361
 1944TIP3    H227248   2.548   0.012   2.262  0.4764  1.8226  0.0472
 1945TIP3   OH227249   5.569   5.720  15.222 -0.2839 -0.4538 -0.5389
 1945TIP3    H127250   5.582   5.649  15.285  0.7031  0.7131  0.6385
 1945TIP3    H227251   5.512   5.782  15.266 -0.3734 -0.0673 -1.1789
 1946TIP3   OH227252   3.937   0.040   2.306 -0.4654 -0.2582  1.0115
 1946TIP3    H127253   3.971  -0.002   2.385  1.0875 -1.5339 -0.2620
 1946TIP3    H227254   3.854  -0.005   2.290 -0.2499 -0.7714  1.3124
 1947TIP3   OH227255   6.169   3.338  13.057 -0.2363 -0.0114  0.0892
 1947TIP3    H127256   6.134   3.304  13.140 -2.8412  1.8852 -0.1186
 1947TIP3    H227257   6.113   3.299  12.990  1.6860 -1.3231 -0.8479
 1948TIP3   OH227258   5.823   5.644   0.251 -0.0343 -0.3282 -0.2625
 1948TIP3    H127259   5.842   5.614   0.341  2.3829  2.8182  0.4444
 1948TIP3    H227260   5.897   5.611   0.200  0.1639  0.3612 -0.4320
 1949TIP3   OH227261   0.743   5.986   5.016 -0.1819 -0.7069 -0.1812
 1949TIP3    H127262   0.718   6.064   4.966 -1.1602 -0.3558  0.8151
 1949TIP3    H227263   0.724   5.913   4.957 -2.3895 -0.3705  0.0023
 1950TIP3   OH227264   4.986   0.955   2.496 -0.6582 -0.0102 -0.0756
 1950TIP3    H127265   5.003   1.000   2.413 -3.1233 -0.0048 -0.6636
 1950TIP3    H227266   4.961   1.024   2.557 -0.4924 -0.1954  0.2074
 1951TIP3   OH227267   0.384   2.170  11.873  0.1314  0.1441  0.0078
 1951TIP3    H127268   0.362   2.196  11.783  1.4505  0.1874 -0.3270
 1951TIP3    H227269   0.404   2.077  11.867  1.0425  0.3200  0.0708
 1952TIP3   OH227270   1.529   5.011   3.564 -0.5305  0.7719 -0.7377
 1952TIP3    H127271   1.511   5.001   3.471 -0.2944 -0.3740 -0.6807
 1952TIP3    H227272   1.451   4.977   3.607  0.5247 -1.6282 -0.5218
 1953TIP3   OH227273   1.660   5.235   1.731 -0.6494 -0.7287  0.3888
 1953TIP3    H127274   1.656   5.324   1.695  2.3235 -0.9891 -0.8907
 1953TIP3    H227275   1.679   5.249   1.824  0.5281  0.0165  0.0598
 1954TIP3   OH227276   3.041   4.373   2.837  0.2604 -0.1741  0.8582
 1954TIP3    H127277   2.985   4.337   2.769 -1.8071 -0.1708  2.4691
 1954TIP3    H227278   3.115   4.313   2.842 -0.2362 -0.9276 -0.4337
 1955TIP3   OH227279   4.998   6.145   0.001  0.1241 -0.1412  0.8500
 1955TIP3    H127280   5.031   6.097  -0.075  1.0059 -0.1040  1.1899
 1955TIP3    H227281   5.018   6.237  -0.019  0.1431 -0.1086  1.0163
 1956TIP3   OH227282   0.311   4.522   4.065 -0.0649  0.0963 -0.8399
 1956TIP3    H127283   0.316   4.432   4.033 -1.2041 -0.4069  0.3194
 1956TIP3    H227284   0.354   4.574   3.997 -0.1387 -1.2208 -1.9347
 1957TIP3   OH227285   4.813   6.715  17.340 -0.4973  0.5136 -0.3609
 1957TIP3    H127286   4.837   6.758  17.423  1.0289  0.8156 -0.9350
 1957TIP3    H227287   4.740   6.767  17.307 -1.2389  0.2917  0.8638
 1958TIP3   OH227288   1.708   5.125  16.768  0.3060 -0.1277  0.0879
 1958TIP3    H127289   1.714   5.201  16.824  0.3786 -0.2497  0.2473
 1958TIP3    H227290   1.621   5.088  16.786  0.7254 -0.7539  0.8844
 1959TIP3   OH227291   0.179   0.926  12.165  0.2621 -0.4805 -0.1321
 1959TIP3    H127292   0.196   0.971  12.247 -0.9106  0.1273 -0.2039
 1959TIP3    H227293   0.197   0.991  12.097 -2.9806  0.5479 -0.1965
 1960TIP3   OH227294   2.952   5.558  14.266 -0.2749  0.4988 -0.0150
 1960TIP3    H127295   2.901   5.575  14.187 -0.5606 -0.5586 -0.0724
 1960TIP3    H227296   2.984   5.644  14.293 -1.1212  1.0245 -0.6328
 1961TIP3   OH227297   3.316   5.322  13.118  0.0334  0.5477 -0.1971
 1961TIP3    H127298   3.373   5.250  13.089 -0.0259  1.0644 -1.7216
 1961TIP3    H227299   3.360   5.358  13.195  0.9035 -0.1122 -0.3599
 1962TIP3   OH227300   3.482   3.730   2.332  0.1656  0.5402  0.3908
 1962TIP3    H127301   3.460   3.744   2.239 -1.0708  1.1534  0.7588
 1962TIP3    H227302   3.517   3.641   2.335  0.9714  0.7959 -0.7897
 1963TIP3   OH227303   4.265   5.887   0.902  0.0966  0.1767 -0.5662
 1963TIP3    H127304   4.289   5.978   0.917 -0.2928  0.5115 -1.8441
 1963TIP3    H227305   4.319   5.861   0.827 -0.6519 -0.2709 -0.9576
 1964TIP3   OH227306   1.282   4.960  17.014  0.3823  0.1283 -0.0670
 1964TIP3    H127307   1.340   5.007  17.075  0.1493  1.4219 -0.8113
 1964TIP3    H227308   1.274   5.018  16.939 -1.1311 -0.4538 -0.3919
 1965TIP3   OH227309   1.684   6.027  12.080 -0.4161 -0.2738  0.0298
 1965TIP3    H127310   1.628   5.950  12.094 -0.2998 -0.0964  1.7217
 1965TIP3    H227311   1.663   6.085  12.154  2.4680 -0.5055  1.1379
 1966TIP3   OH227312   5.076   1.964   0.151 -0.0399 -0.7195  0.2231
 1966TIP3    H127313   5.139   1.937   0.085  0.2760 -4.7178  1.8975
 1966TIP3    H227314   4.998   1.912   0.133 -1.1028  0.4727  1.1763
 1967TIP3   OH227315   4.812   4.695  16.904  0.1827 -0.0481  0.1360
 1967TIP3    H127316   4.887   4.737  16.947  0.7594 -0.6856 -0.2373
 1967TIP3    H227317   4.786   4.625  16.963 -0.4876  0.5159  0.5357
 1968TIP3   OH227318   5.309   5.471   3.872 -0.0742  0.8323  0.5242
 1968TIP3    H127319   5.397   5.486   3.839  0.5125 -0.6345  1.3238
 1968TIP3    H227320   5.321   5.453   3.965 -1.2211  0.6801  0.6574
 1969TIP3   OH227321   5.286   0.585  15.222 -0.0420  0.1662 -0.0445
 1969TIP3    H127322   5.228   0.542  15.285  1.0403 -1.5250 -0.1393
 1969TIP3    H227323   5.336   0.514  15.183  0.4489  1.3406 -1.6718
 1970TIP3   OH227324   1.397   5.819   2.626  0.6801 -0.5747  0.4642
 1970TIP3    H127325   1.465   5.832   2.559 -0.2964 -0.0898 -0.4609
 1970TIP3    H227326   1.436   5.853   2.707  1.1485  0.7518 -0.2829
 1971TIP3   OH227327   1.615   2.076  15.132  0.3438 -0.8723  0.0401
 1971TIP3    H127328   1.701   2.111  15.112  1.0916 -1.5396  1.9088
 1971TIP3    H227329   1.574   2.143  15.188  0.0224 -0.9730 -0.0736
 1972TIP3   OH227330   4.328   3.989   1.911 -0.5016  0.2335 -0.4818
 1972TIP3    H127331   4.287   3.903   1.904  1.1644 -0.5487 -1.2578
 1972TIP3    H227332   4.301   4.021   1.997  0.2405 -1.8825  0.6397
 1973TIP3   OH227333   1.084   5.246   4.444  0.0644  0.1037  0.1727
 1973TIP3    H127334   1.034   5.165   4.429 -0.0785  0.3132 -0.5400
 1973TIP3    H227335   1.040   5.287   4.519 -0.9403  0.3483 -0.5218
 1974TIP3   OH227336   1.876   6.621   6.802 -0.1427  0.1996 -0.0735
 1974TIP3    H127337   1.904   6.657   6.718 -0.1442  0.4366  0.0276
 1974TIP3    H227338   1.781   6.625   6.800 -0.4162 -3.1988 -1.5956
 1975TIP3   OH227339   5.820   6.211   4.202  0.2614  0.6239 -0.4815
 1975TIP3    H127340   5.902   6.174   4.171  0.1080 -0.3501  0.2215
 1975TIP3    H227341   5.818   6.300   4.166  1.0391  0.2367 -1.5145
 1976TIP3   OH227342   5.265   2.685  15.727  0.5488  0.1728  0.6351
 1976TIP3    H127343   5.269   2.777  15.701  2.3800  0.1448  0.7110
 1976TIP3    H227344   5.255   2.638  15.644  0.5537  0.3924  0.5072
 1977TIP3   OH227345   5.485   0.477  15.924 -0.3963 -0.6129 -0.5031
 1977TIP3    H127346   5.492   0.493  16.018 -0.2107 -0.3033 -0.5704
 1977TIP3    H227347   5.569   0.437  15.900 -0.4481 -0.7032 -0.5356
 1978TIP3   OH227348   6.166   6.707  15.304 -0.4045 -0.4645  0.5499
 1978TIP3    H127349   6.089   6.652  15.316 -0.0881 -1.1986 -0.6841
 1978TIP3    H227350   6.131   6.797  15.303 -1.2049 -0.7712  0.2444
 1979TIP3   OH227351   4.537   2.655   1.674 -0.4993 -0.5068 -0.1860
 1979TIP3    H127352   4.510   2.647   1.765 -1.1932  1.5196 -0.1551
 1979TIP3    H227353   4.454   2.664   1.625 -0.1690 -2.0647 -1.1168
 1980TIP3   OH227354   3.689   6.301   0.430  0.5489 -0.2922  0.3864
 1980TIP3    H127355   3.698   6.296   0.335 -1.7294 -0.0851  0.0939
 1980TIP3    H227356   3.755   6.241   0.465  0.4517 -1.4791 -1.3838
 1981TIP3   OH227357   1.454   5.567  15.059  0.1468  0.4191 -0.8145
 1981TIP3    H127358   1.423   5.484  15.021  1.2555  0.4197 -1.7793
 1981TIP3    H227359   1.537   5.544  15.101 -0.3329  0.7326  0.3436
 1982TIP3   OH227360   6.058   4.823   2.070  0.8168 -0.2086 -0.4017
 1982TIP3    H127361   6.102   4.742   2.095  1.5691  0.0149 -0.9855
 1982TIP3    H227362   6.128   4.882   2.043  0.4472  1.2332  1.5479
 1983TIP3   OH227363   1.240   4.818   3.874 -0.0475  0.3493  0.0583
 1983TIP3    H127364   1.199   4.891   3.921 -0.9318 -0.7233  1.0362
 1983TIP3    H227365   1.255   4.852   3.786 -1.5708  1.3266  0.1302
 1984TIP3   OH227366   3.275   4.885   1.475 -0.1639 -0.1702  0.2987
 1984TIP3    H127367   3.220   4.953   1.515  0.7640  1.0329 -0.4186
 1984TIP3    H227368   3.353   4.882   1.531  0.9882  1.2810 -1.1114
 1985TIP3   OH227369   6.434   0.445   2.562 -0.3844 -0.3115 -0.8580
 1985TIP3    H127370   6.374   0.518   2.551 -0.6407 -0.2278  0.8659
 1985TIP3    H227371   6.380   0.374   2.596  0.5425 -0.0381  1.3485
 1986TIP3   OH227372   6.740   3.508  13.770 -0.3756  0.0077  0.4927
 1986TIP3    H127373   6.789   3.428  13.753  0.6553  0.2508  2.0169
 1986TIP3    H227374   6.727   3.508  13.865 -2.1222  0.6639  0.2821
 1987TIP3   OH227375   2.667   0.145  12.111 -0.5852 -0.3395  0.2897
 1987TIP3    H127376   2.595   0.154  12.173  0.3791 -0.3730  1.4536
 1987TIP3    H227377   2.728   0.215  12.134  0.6024 -1.4177  0.5431
 1988TIP3   OH227378   5.493   2.114  11.689 -0.4392  0.6535  0.4429
 1988TIP3    H127379   5.464   2.203  11.668 -1.1639  0.3379  0.0633
 1988TIP3    H227380   5.581   2.108  11.652  0.3455  1.7774  2.0015
 1989TIP3   OH227381   4.473   6.480   3.378 -0.0218  0.2145  0.0469
 1989TIP3    H127382   4.472   6.386   3.397 -3.4849  0.1095  0.0423
 1989TIP3    H227383   4.476   6.522   3.464  0.9496  0.1234  0.0690
 1990TIP3   OH227384   0.248   4.347  13.282  0.1206  0.2707 -0.0722
 1990TIP3    H127385   0.329   4.341  13.332  1.0793  0.7698 -1.5212
 1990TIP3    H227386   0.235   4.259  13.247  0.1319  0.2460 -0.0151
 1991TIP3   OH227387   3.437   0.674   2.753  0.1359 -0.6857 -0.0590
 1991TIP3    H127388   3.436   0.584   2.718 -2.0067 -0.3678 -1.0122
 1991TIP3    H227389   3.512   0.676   2.812  0.9078 -2.7759 -0.8571
 1992TIP3   OH227390   0.158   2.489   2.141  0.0664  0.3456 -0.3021
 1992TIP3    H127391   0.158   2.569   2.193 -2.0018  0.1976  0.0424
 1992TIP3    H227392   0.091   2.504   2.074  0.7460 -0.5233 -1.2063
 1993TIP3   OH227393   3.096   3.669  13.479 -0.8891 -0.0458 -0.0654
 1993TIP3    H127394   3.016   3.626  13.448 -0.4273 -0.6512 -0.4657
 1993TIP3    H227395   3.153   3.671  13.401 -1.0386  1.6702 -0.1651
 1994TIP3   OH227396   5.958   3.895  12.622 -0.2258  0.1019  0.3001
 1994TIP3    H127397   5.967   3.809  12.662 -0.3174 -0.8330 -1.5834
 1994TIP3    H227398   5.976   3.880  12.529  0.1916  2.2001 -0.0094
 1995TIP3   OH227399   6.598   3.810  12.016  0.6626  0.7092 -0.3035
 1995TIP3    H127400   6.559   3.876  11.959  0.1825  0.1467 -0.6322
 1995TIP3    H227401   6.615   3.735  11.958 -1.1115 -0.4134  0.5247
 1996TIP3   OH227402   5.362   0.622   5.224 -0.0420  0.4439 -0.1447
 1996TIP3    H127403   5.421   0.621   5.148 -0.3387  0.7560 -0.3832
 1996TIP3    H227404   5.295   0.557   5.204  0.6056 -0.4139  0.4412
 1997TIP3   OH227405   1.861   4.906   3.823 -0.6024  0.4301 -0.1277
 1997TIP3    H127406   1.783   4.893   3.878 -0.9042  0.0723 -0.6325
 1997TIP3    H227407   1.880   4.820   3.787  0.6220  0.3050  0.7501
 1998TIP3   OH227408   2.744   1.553  12.985 -0.1010 -0.0695  0.0443
 1998TIP3    H127409   2.684   1.549  13.060 -0.6037  0.2185 -0.3340
 1998TIP3    H227410   2.787   1.638  12.994 -0.7318  0.3031 -0.4189
 1999TIP3   OH227411   3.136   6.418  16.081 -0.1136 -0.6872  0.2148
 1999TIP3    H127412   3.210   6.371  16.043 -0.8543 -1.1089 -0.7439
 1999TIP3    H227413   3.172   6.503  16.106  1.0790 -1.4817  1.3190
 2000TIP3   OH227414   1.208   5.960   1.721 -0.4313  0.1155 -0.3037
 2000TIP3    H127415   1.129   5.925   1.761  0.2206  0.6998  1.6232
 2000TIP3    H227416   1.271   5.965   1.793  1.4208 -0.4615 -1.7984
 2001TIP3   OH227417   0.649   4.977   0.702  0.4730 -0.2524 -0.1687
 2001TIP3    H127418   0.633   5.004   0.612 -0.5103 -2.2188 -0.6531
 2001TIP3    H227419   0.744   4.971   0.710  0.6387  1.4244 -0.5678
 2002TIP3   OH227420   5.393   5.757   4.257 -0.0642 -0.0064 -0.2676
 2002TIP3    H127421   5.410   5.763   4.163  0.7964  0.2960 -0.0949
 2002TIP3    H227422   5.429   5.672   4.283  0.8150  0.4388  0.0117
 2003TIP3   OH227423   5.642   3.003  17.162  0.6838  0.3559 -0.7864
 2003TIP3    H127424   5.633   3.028  17.254 -2.2046  3.8170 -1.7845
 2003TIP3    H227425   5.630   2.908  17.162 -0.4856  0.3872  2.3213
 2004TIP3   OH227426   1.237   1.839   2.645 -0.2322 -0.1946  0.2338
 2004TIP3    H127427   1.197   1.926   2.644  1.4539  0.6352 -1.4428
 2004TIP3    H227428   1.279   1.833   2.730 -0.4609  0.6011  0.4148
 2005TIP3   OH227429   0.996   3.253   2.081  0.3782  0.3456 -0.1052
 2005TIP3    H127430   1.060   3.205   2.135 -0.0710  1.0374  1.0675
 2005TIP3    H227431   1.049   3.313   2.029  0.8928 -0.9323 -1.1141
 2006TIP3   OH227432   4.771   4.966  13.484  0.2409  0.3948  0.5967
 2006TIP3    H127433   4.707   4.904  13.450  0.5285  0.5745 -0.2879
 2006TIP3    H227434   4.733   5.052  13.466  1.4555  0.5645 -1.5045
 2007TIP3   OH227435   1.735   0.102   2.968 -0.7043  0.7823 -0.2061
 2007TIP3    H127436   1.724   0.007   2.968 -0.2864  0.6601  2.2216
 2007TIP3    H227437   1.654   0.136   3.006 -0.7482  1.3937 -0.8193
 2008TIP3   OH227438   4.299   2.367  14.733  0.7769 -0.2923  0.6753
 2008TIP3    H127439   4.347   2.389  14.653 -0.9541  1.0570 -0.0564
 2008TIP3    H227440   4.289   2.272  14.730  0.4242 -0.2304 -0.9239
 2009TIP3   OH227441   4.696   6.293  15.797 -0.3186  0.2422  0.0300
 2009TIP3    H127442   4.720   6.386  15.799  0.5626  0.1549 -2.8040
 2009TIP3    H227443   4.636   6.286  15.723 -0.7480 -1.3937  0.5008
 2010TIP3   OH227444   0.349   6.295   1.608 -0.5629 -0.0422  0.0158
 2010TIP3    H127445   0.364   6.341   1.525 -1.2568  0.8280  0.3614
 2010TIP3    H227446   0.303   6.358   1.663  0.3893 -0.4109  1.2883
 2011TIP3   OH227447   2.724   2.845   0.954 -0.2863 -0.1598 -0.6725
 2011TIP3    H127448   2.716   2.921   1.012 -1.4982 -0.8029  0.0476
 2011TIP3    H227449   2.815   2.817   0.965 -0.4043 -0.0731  0.6937
 2012TIP3   OH227450   6.671   0.641  12.568  0.9283  0.2877 -0.3725
 2012TIP3    H127451   6.725   0.702  12.617  1.7336  0.9995 -2.0417
 2012TIP3    H227452   6.581   0.660  12.595  1.3426  0.6698  0.7598
 2013TIP3   OH227453   0.196   6.490   5.738 -0.1286  0.4320  0.4995
 2013TIP3    H127454   0.170   6.409   5.692  0.1029 -0.7247  2.2916
 2013TIP3    H227455   0.142   6.490   5.818 -0.7567  2.5458  0.1427
 2014TIP3   OH227456   6.413   4.144   0.152  0.8914  0.0065 -0.4146
 2014TIP3    H127457   6.332   4.166   0.105 -0.1764 -1.8947  0.4483
 2014TIP3    H227458   6.468   4.102   0.086  0.1356 -0.9880 -0.4364
 2015TIP3   OH227459   1.664   0.429   0.798  0.1259 -0.1115  0.2353
 2015TIP3    H127460   1.621   0.514   0.796  0.3763  0.0088 -1.0931
 2015TIP3    H227461   1.657   0.396   0.709  0.2743 -1.3715  0.6647
 2016TIP3   OH227462   0.866   4.319   0.527 -0.4921 -0.0795 -0.1836
 2016TIP3    H127463   0.803   4.293   0.594 -1.2298  1.1340 -0.3759
 2016TIP3    H227464   0.949   4.280   0.556 -0.8179  0.3177  1.3910
 2017TIP3   OH227465   4.109   3.142  17.132  0.0098 -0.3855 -0.1806
 2017TIP3    H127466   4.181   3.158  17.194  1.0812  1.7652 -1.8814
 2017TIP3    H227467   4.152   3.114  17.052 -1.0845  0.3583 -1.0533
 2018TIP3   OH227468   0.183   3.300  12.438 -0.7264  0.4613 -0.0164
 2018TIP3    H127469   0.199   3.250  12.358 -0.8871  0.3444  0.0242
 2018TIP3    H227470   0.096   3.273  12.467 -1.1734  1.3715 -0.4474
 2019TIP3   OH227471   2.300   4.678  11.711  0.2727 -0.1920 -0.6135
 2019TIP3    H127472   2.314   4.583  11.710 -1.4961 -0.5085  0.2879
 2019TIP3    H227473   2.369   4.711  11.770  1.5659 -0.7467 -1.7576
 2020TIP3   OH227474   5.104   1.078   5.092 -0.6010  0.1133  0.6598
 2020TIP3    H127475   5.130   0.994   5.130 -1.3327 -0.0843  0.7494
 2020TIP3    H227476   5.173   1.100   5.030 -0.2046 -0.3569  0.9309
 2021TIP3   OH227477   5.856   2.270  16.049 -0.0362  0.4460  0.3656
 2021TIP3    H127478   5.891   2.357  16.069  1.1001  0.7712 -2.5024
 2021TIP3    H227479   5.761   2.281  16.050  0.0833  1.6188  0.3625
 2022TIP3   OH227480   6.504   4.330   5.786  0.0902 -0.1353 -0.6095
 2022TIP3    H127481   6.487   4.347   5.879 -0.6290 -1.6613 -0.4181
 2022TIP3    H227482   6.483   4.411   5.742  1.6193  1.0276  0.6760
 2023TIP3   OH227483   6.660   1.102  14.129  0.7358 -0.0332  0.0008
 2023TIP3    H127484   6.743   1.085  14.173  1.3660  0.7886 -0.8153
 2023TIP3    H227485   6.677   1.180  14.075 -1.4783  2.1690  2.2390
 2024TIP3   OH227486   6.023   5.005   3.817  0.6465 -0.0121 -0.6578
 2024TIP3    H127487   6.037   5.085   3.767 -0.7098  0.7185  0.0884
 2024TIP3    H227488   5.978   5.033   3.897 -0.4741 -1.5854 -0.6806
 2025TIP3   OH227489   2.372   1.570   5.664 -0.2236  0.2566  0.9976
 2025TIP3    H127490   2.403   1.580   5.754  2.4958  0.4331  0.1089
 2025TIP3    H227491   2.382   1.476   5.645  2.1563  0.6705 -0.0555
 2026TIP3   OH227492   4.344   1.540   1.186 -0.1647 -0.3007  0.3675
 2026TIP3    H127493   4.378   1.538   1.097  2.3900 -2.0006  1.2410
 2026TIP3    H227494   4.283   1.466   1.191  1.7959 -1.9856  0.6650
 2027TIP3   OH227495   5.667   6.340  11.501 -0.1959 -0.1284 -0.1399
 2027TIP3    H127496   5.609   6.369  11.431  0.4498 -1.2863 -1.1970
 2027TIP3    H227497   5.617   6.272  11.547 -0.6566  0.6965  0.6254
 2028TIP3   OH227498   4.564   3.939  13.579 -0.2501  0.1773 -0.0591
 2028TIP3    H127499   4.536   4.007  13.639  2.8024  0.0854  1.6644
 2028TIP3    H227500   4.611   3.985  13.509  2.7844 -0.0183  1.6712
 2029TIP3   OH227501   6.576   0.372  14.464 -0.0551 -0.1616 -0.2690
 2029TIP3    H127502   6.510   0.327  14.517  0.3424 -0.3606  0.0584
 2029TIP3    H227503   6.658   0.326  14.482  0.0030 -0.5691 -1.4475
 2030TIP3   OH227504   5.630   4.810   0.255  0.7776 -0.3375 -0.2870
 2030TIP3    H127505   5.628   4.762   0.172  0.2860 -3.0787  1.2149
 2030TIP3    H227506   5.538   4.826   0.276  0.5937 -3.1127  1.5027
 2031TIP3   OH227507   0.087   2.997  14.329  0.0571 -0.3984 -0.3615
 2031TIP3    H127508  -0.005   3.007  14.303 -0.3204 -0.8667  0.7225
 2031TIP3    H227509   0.096   3.053  14.406  0.7620 -0.1250 -0.6424
 2032TIP3   OH227510   0.885   2.892   5.809  0.1972 -0.1999 -0.1863
 2032TIP3    H127511   0.968   2.941   5.807  1.6236 -2.5078 -1.0533
 2032TIP3    H227512   0.869   2.877   5.902 -2.3341  4.9121  0.5744
 2033TIP3   OH227513   4.143   0.996  16.377  0.3326  0.2096  0.1091
 2033TIP3    H127514   4.193   0.916  16.359  2.1984  0.5494  3.0447
 2033TIP3    H227515   4.155   1.011  16.471 -0.1274  3.8244 -0.2698
 2034TIP3   OH227516   0.154   4.836   2.295 -0.6476  0.0435 -0.8633
 2034TIP3    H127517   0.242   4.856   2.324 -0.6343  0.2869 -1.0726
 2034TIP3    H227518   0.144   4.742   2.312  0.1287 -0.2764 -2.0613
 2035TIP3   OH227519   6.079   4.478  11.527 -0.4087  0.1497 -0.5229
 2035TIP3    H127520   6.089   4.428  11.446  0.7747  1.2809 -1.1101
 2035TIP3    H227521   6.156   4.454  11.579  0.4743  1.7170 -1.0431
 2036TIP3   OH227522   0.714   2.214  11.277  0.3494  0.4688  0.2475
 2036TIP3    H127523   0.699   2.120  11.264  1.7562  0.2950 -0.4035
 2036TIP3    H227524   0.722   2.249  11.188 -2.4500  1.6839  0.3625
 2037TIP3   OH227525   6.283   4.948   6.106  0.0213 -1.0459 -0.1634
 2037TIP3    H127526   6.323   4.925   6.022  0.0001 -0.3663 -0.3656
 2037TIP3    H227527   6.357   4.970   6.162 -0.0733  2.2435 -1.1403
 2038TIP3   OH227528   1.029   6.449  14.824  0.3095  0.6326 -0.3322
 2038TIP3    H127529   1.054   6.461  14.732 -1.5788 -0.3234 -1.0177
 2038TIP3    H227530   0.939   6.480  14.829  0.0671 -0.1853  0.9822
 2039TIP3   OH227531   6.056   3.276  13.497  0.3856  0.8587  0.1888
 2039TIP3    H127532   6.089   3.366  13.492  3.0128 -0.0660 -0.4976
 2039TIP3    H227533   6.077   3.238  13.413  0.2422 -0.7166  0.8314
 2040TIP3   OH227534   5.918   0.436  12.968 -0.0211  0.8865 -0.1059
 2040TIP3    H127535   5.825   0.456  12.968  0.1140  2.0713  3.0158
 2040TIP3    H227536   5.957   0.500  13.027  2.0494 -2.3078  2.3595
 2041TIP3   OH227537   4.794   6.584  15.574  0.2715 -0.2448  0.2403
 2041TIP3    H127538   4.869   6.609  15.627  1.2544  0.5683 -1.4587
 2041TIP3    H227539   4.801   6.489  15.566  2.6022 -0.0084 -1.8817
 2042TIP3   OH227540   5.672   5.003   1.490 -0.0940 -0.0778 -0.2522
 2042TIP3    H127541   5.698   4.975   1.402  1.1411 -0.4932  0.2248
 2042TIP3    H227542   5.754   5.009   1.538 -0.5070  2.4582  0.2452
 2043TIP3   OH227543   4.915   4.344  13.592  0.6487 -0.1137 -0.3922
 2043TIP3    H127544   4.909   4.297  13.509 -3.1478 -0.2576 -0.1891
 2043TIP3    H227545   4.847   4.306  13.648  2.2810  0.7618  2.4339
 2044TIP3   OH227546   6.538   3.375   5.902 -0.3211 -0.3934  0.4630
 2044TIP3    H127547   6.502   3.416   5.823 -1.7351 -0.7237  0.9186
 2044TIP3    H227548   6.592   3.444   5.942 -0.4114  0.1036 -0.2497
 2045TIP3   OH227549   5.162   5.892   4.615 -0.5938 -0.8184 -0.3692
 2045TIP3    H127550   5.170   5.913   4.708 -1.4750  0.7064 -0.5925
 2045TIP3    H227551   5.228   5.948   4.573 -1.9491  0.4944 -0.8532
 2046TIP3   OH227552   1.902   3.648   3.152 -0.0671  0.2738  0.7625
 2046TIP3    H127553   1.807   3.649   3.161 -0.1591 -1.0657  0.2026
 2046TIP3    H227554   1.929   3.738   3.169 -1.6386  1.1640 -1.0482
 2047TIP3   OH227555   5.498   1.203  14.012  0.1639 -0.1843 -0.0997
 2047TIP3    H127556   5.526   1.113  13.996 -0.2340 -0.2734 -0.3157
 2047TIP3    H227557   5.550   1.256  13.952  1.0555 -0.1691  0.6712
 2048TIP3   OH227558   6.210   4.005  16.672  0.6810  0.7249 -0.8651
 2048TIP3    H127559   6.138   4.005  16.610 -0.4107 -0.6298  0.3361
 2048TIP3    H227560   6.286   4.032  16.621 -0.3109  0.3918 -2.5882
 2049TIP3   OH227561   3.264   5.183   0.452 -0.5192 -0.6402  0.3158
 2049TIP3    H127562   3.343   5.179   0.398  0.3221 -1.7804  1.5554
 2049TIP3    H227563   3.277   5.259   0.508 -1.9338  1.2673 -1.7859
 2050TIP3   OH227564   0.755   2.663  15.860 -0.4012 -0.8468  0.3797
 2050TIP3    H127565   0.785   2.725  15.927 -0.7622 -0.0994 -0.1278
 2050TIP3    H227566   0.703   2.599  15.908 -2.4013  0.8229  0.5994
 2051TIP3   OH227567   0.969   6.409  17.073  0.2378  0.5076  0.3081
 2051TIP3    H127568   0.959   6.321  17.110 -2.4969  0.1695 -0.9184
 2051TIP3    H227569   1.036   6.400  17.005  0.6864 -0.3837  0.8586
 2052TIP3   OH227570   4.851   2.818  12.649  0.3324  0.2157 -0.0083
 2052TIP3    H127571   4.781   2.859  12.598 -0.9681 -1.0468  0.6829
 2052TIP3    H227572   4.822   2.727  12.660  1.9391 -0.2558  0.5928
 2053TIP3   OH227573   4.537   2.689   0.391  0.4119  0.5486  0.6365
 2053TIP3    H127574   4.532   2.606   0.344  0.4819  1.1002 -0.3765
 2053TIP3    H227575   4.528   2.665   0.484  0.5516 -0.5884  0.3696
 2054TIP3   OH227576   1.970   5.997   5.190  0.5509  0.1799  0.3148
 2054TIP3    H127577   2.057   5.967   5.216  0.6841 -0.4936 -0.8695
 2054TIP3    H227578   1.922   5.917   5.168 -0.7007  0.4429  1.8456
 2055TIP3   OH227579   3.492   0.699  14.972 -1.1012  0.4966 -0.2362
 2055TIP3    H127580   3.472   0.626  14.912  1.5969 -0.7383  0.2156
 2055TIP3    H227581   3.569   0.669  15.021 -2.3972  1.9897  2.9782
 2056TIP3   OH227582   0.944   0.673   5.659 -0.7426 -0.2935  0.6846
 2056TIP3    H127583   0.959   0.759   5.619  1.1370  0.2484  2.4029
 2056TIP3    H227584   0.961   0.610   5.589 -1.3206  0.6870 -0.3706
 2057TIP3   OH227585   2.149   1.921  14.861 -0.2354 -0.0715  0.5135
 2057TIP3    H127586   2.125   1.888  14.774  3.5246 -1.6838 -0.1035
 2057TIP3    H227587   2.146   2.016  14.852 -1.1012 -0.2049 -0.9751
 2058TIP3   OH227588   6.104   4.104   3.931  0.1982 -0.4696  0.2243
 2058TIP3    H127589   6.087   4.013   3.908  0.8677 -0.6719  0.5083
 2058TIP3    H227590   6.083   4.153   3.852  1.4389 -1.0462 -0.4949
 2059TIP3   OH227591   0.315   3.238  17.209  0.1365 -0.0680  0.0418
 2059TIP3    H127592   0.321   3.157  17.260  0.4815 -0.0180  0.0842
 2059TIP3    H227593   0.237   3.283  17.243  2.0530  1.4843  2.7992
 2060TIP3   OH227594   4.377   5.425  16.258  0.3428 -0.1009  0.1355
 2060TIP3    H127595   4.371   5.483  16.183  1.3256 -0.9305 -0.6050
 2060TIP3    H227596   4.362   5.482  16.334  1.8383  1.2416 -0.5326
 2061TIP3   OH227597   0.275   4.147  13.694 -0.0878 -0.3611  0.0768
 2061TIP3    H127598   0.210   4.115  13.757  0.2633 -0.7991  0.2159
 2061TIP3    H227599   0.334   4.074  13.681  1.6279  0.6812  1.5675
 2062TIP3   OH227600   6.229   4.292   5.861 -0.1996 -0.5652 -0.2721
 2062TIP3    H127601   6.314   4.250   5.868  0.5084  0.7848 -0.4620
 2062TIP3    H227602   6.204   4.312   5.951  0.8221  1.1902 -0.3487
 2063TIP3   OH227603   0.163   4.724   5.102 -0.1897  0.3526  0.9268
 2063TIP3    H127604   0.189   4.776   5.177  0.7329  1.1069  0.1084
 2063TIP3    H227605   0.238   4.727   5.043 -1.3872  0.9085 -0.6291
 2064TIP3   OH227606   3.695   6.092  13.195 -0.1033  0.0410 -0.0975
 2064TIP3    H127607   3.768   6.138  13.237  1.1994 -1.0624 -1.0495
 2064TIP3    H227608   3.645   6.161  13.151  0.9657  0.7179 -0.2786
 2065TIP3   OH227609   3.521   2.105   1.786  0.6095 -0.5456  0.7226
 2065TIP3    H127610   3.447   2.050   1.811  0.3354  0.2414  1.7200
 2065TIP3    H227611   3.556   2.064   1.706 -0.6658 -1.1334  0.4396
 2066TIP3   OH227612   3.544   2.429  12.574 -0.0407 -0.1065  0.2359
 2066TIP3    H127613   3.612   2.397  12.515  0.6825  0.5645  0.6857
 2066TIP3    H227614   3.468   2.444  12.518  0.3318 -0.4109 -0.3530
 2067TIP3   OH227615   5.239   5.111   4.484  0.2863  0.1380 -0.3789
 2067TIP3    H127616   5.162   5.058   4.461 -0.7977  0.9480  1.1900
 2067TIP3    H227617   5.213   5.158   4.563  3.3337 -1.5358  1.8227
 2068TIP3   OH227618   1.651   4.244   4.171  0.3087 -0.1991 -0.0366
 2068TIP3    H127619   1.727   4.253   4.113 -0.9243  2.1580 -1.3916
 2068TIP3    H227620   1.578   4.224   4.112 -0.7288  0.9420  0.8115
 2069TIP3   OH227621   2.968   1.562  10.517 -0.2775 -0.0333 -0.4104
 2069TIP3    H127622   3.043   1.545  10.574 -0.2828  0.9609 -0.0764
 2069TIP3    H227623   2.960   1.484  10.463 -0.1544 -0.9281  0.8246
 2070TIP3   OH227624   0.119   3.344  15.798  0.0933 -0.2706 -0.1181
 2070TIP3    H127625   0.112   3.298  15.714 -1.0052  0.2403 -0.3270
 2070TIP3    H227626   0.079   3.430  15.781  0.1144 -0.0616  0.8543
 2071TIP3   OH227627   4.197   4.296  10.751  0.3940 -0.2818 -0.1701
 2071TIP3    H127628   4.112   4.338  10.736  0.9600  1.8732  2.0211
 2071TIP3    H227629   4.176   4.204  10.767 -1.7326  0.4488  1.7349
 2072TIP3   OH227630   2.220   4.563  16.184  0.2326 -0.5520 -0.1852
 2072TIP3    H127631   2.182   4.476  16.175  2.1490 -1.4707 -0.0304
 2072TIP3    H227632   2.158   4.621  16.142 -0.5154 -2.1550 -1.4135
 2073TIP3   OH227633   2.564   2.726   5.711 -0.1658  0.2105 -0.3526
 2073TIP3    H127634   2.584   2.639   5.675  2.4575  0.6222 -0.0872
 2073TIP3    H227635   2.554   2.711   5.805 -1.7851 -0.0646 -0.5363
 2074TIP3   OH227636   3.819   3.125  13.829 -0.3487 -0.4461 -0.2725
 2074TIP3    H127637   3.809   3.171  13.912 -0.2467 -1.8775  0.5626
 2074TIP3    H227638   3.766   3.046  13.839 -0.4395 -0.5766 -1.6326
 2075TIP3   OH227639   1.841   5.740   0.118  0.5068 -0.2466  0.5776
 2075TIP3    H127640   1.936   5.736   0.132  0.5553 -1.0546  0.1165
 2075TIP3    H227641   1.832   5.759   0.024  0.2187 -0.8567  0.4789
 2076TIP3   OH227642   5.908   0.951  15.462 -0.2296 -0.4360 -0.2660
 2076TIP3    H127643   5.907   0.992  15.376 -1.0229 -1.4856 -0.7854
 2076TIP3    H227644   5.947   0.865  15.447 -4.2676 -2.4757 -0.5686
 2077TIP3   OH227645   2.031   4.121   0.189  0.0559 -0.2022  0.4023
 2077TIP3    H127646   2.068   4.173   0.260  0.5284  0.3286 -0.2197
 2077TIP3    H227647   1.954   4.170   0.161  0.0712 -0.2280  0.3138
 2078TIP3   OH227648   1.752   5.345  14.484  0.3087  0.8058  0.7537
 2078TIP3    H127649   1.731   5.359  14.392  3.4170  0.8197 -0.0537
 2078TIP3    H227650   1.746   5.431  14.524 -0.5526  0.8828  0.4869
 2079TIP3   OH227651   4.114   5.614   3.136  0.1726  0.0418  0.6938
 2079TIP3    H127652   4.166   5.581   3.210  2.9116 -0.9542 -1.4753
 2079TIP3    H227653   4.108   5.708   3.151  1.7631  0.0364  1.5985
 2080TIP3   OH227654   5.405   4.655  11.930  0.3879  0.5129  0.6293
 2080TIP3    H127655   5.392   4.683  12.021 -0.4684  1.5546  0.2141
 2080TIP3    H227656   5.465   4.580  11.936  0.1729  0.4265  2.0579
 2081TIP3   OH227657   3.571   0.283   1.487  0.1762  0.0448 -0.8358
 2081TIP3    H127658   3.499   0.223   1.506 -0.0759 -0.3455 -2.8432
 2081TIP3    H227659   3.620   0.240   1.417  1.8502  0.7399 -0.1421
 2082TIP3   OH227660   1.460   3.644   0.643 -0.4514  0.0153  0.8396
 2082TIP3    H127661   1.397   3.594   0.695 -1.3985 -0.7611 -0.9489
 2082TIP3    H227662   1.422   3.646   0.555  2.1353 -0.7639 -0.4000
 2083TIP3   OH227663   1.890   4.426   0.730  0.4632 -0.0514  0.0360
 2083TIP3    H127664   1.819   4.384   0.778 -1.9053  1.7981 -1.5572
 2083TIP3    H227665   1.913   4.363   0.661  0.5125 -0.7469  0.6803
 2084TIP3   OH227666   0.181   1.198  10.662 -0.2010  0.3556  0.1302
 2084TIP3    H127667   0.209   1.186  10.571 -2.1769  0.6509 -0.5716
 2084TIP3    H227668   0.247   1.255  10.701  0.5601  0.4010 -1.1704
 2085TIP3   OH227669   1.849   2.510   3.733 -0.4304  0.7964  0.1339
 2085TIP3    H127670   1.794   2.582   3.703  0.0713  1.0461 -0.1900
 2085TIP3    H227671   1.803   2.474   3.809 -2.0073 -0.1774 -1.2224
 2086TIP3   OH227672   2.881   1.071  13.246 -0.3544 -0.0908 -0.5107
 2086TIP3    H127673   2.822   0.999  13.223  0.9524 -1.0492 -0.9945
 2086TIP3    H227674   2.904   1.055  13.337 -0.3468 -0.0751 -0.5096
 2087TIP3   OH227675   5.662   4.734   2.230  0.7004  0.4552 -0.2818
 2087TIP3    H127676   5.712   4.755   2.308  1.5605  3.3575 -1.4658
 2087TIP3    H227677   5.724   4.687   2.174  1.1734  1.3279 -0.5120
 2088TIP3   OH227678   5.718   4.297   5.371 -0.1563 -0.5806  0.3119
 2088TIP3    H127679   5.636   4.326   5.331 -0.6065 -2.3965 -0.1774
 2088TIP3    H227680   5.711   4.325   5.462 -0.7937  0.3154  0.0065
 2089TIP3   OH227681   5.667   5.958   4.970  0.2430  0.4596 -1.0850
 2089TIP3    H127682   5.656   5.889   5.035  2.1906  0.4540 -0.6984
 2089TIP3    H227683   5.718   5.917   4.900 -1.1687  0.6833 -2.2784
 2090TIP3   OH227684   4.989   4.893  11.606  0.3140 -0.1123 -0.0384
 2090TIP3    H127685   4.984   4.982  11.571 -0.9712  0.7968  2.2543
 2090TIP3    H227686   4.979   4.837  11.529  0.1240  1.7112 -1.4263
 2091TIP3   OH227687   1.113   4.430  12.412  0.3016  0.0283 -0.6865
 2091TIP3    H127688   1.018   4.442  12.410  0.0588 -1.3155  1.0581
 2091TIP3    H227689   1.128   4.352  12.359  0.5754  0.7918 -1.7778
 2092TIP3   OH227690   6.039   4.486  16.017  0.4202 -0.3098  0.5545
 2092TIP3    H127691   6.000   4.446  15.939  3.2124 -0.4685 -0.9098
 2092TIP3    H227692   6.115   4.431  16.036  1.1458  1.1009  1.9590
 2093TIP3   OH227693   5.914   3.663   0.301 -0.4590 -0.5579  0.7913
 2093TIP3    H127694   5.960   3.686   0.220 -1.6883 -0.2613  0.1508
 2093TIP3    H227695   5.981   3.668   0.369  0.5645 -0.6602 -0.1843
 2094TIP3   OH227696   3.911   5.194  16.039 -0.1748 -0.3257 -0.4573
 2094TIP3    H127697   4.002   5.222  16.048  0.1837 -1.8732  1.5073
 2094TIP3    H227698   3.909   5.143  15.958  0.7502 -0.3800 -0.4524
 2095TIP3   OH227699   0.798   5.755  12.072  0.3469  0.1430 -0.0122
 2095TIP3    H127700   0.806   5.791  12.161 -2.5866  1.1068 -0.0303
 2095TIP3    H227701   0.726   5.692  12.079 -1.1613  1.5070 -1.9729
 2096TIP3   OH227702   1.891   4.042  15.874 -0.2957 -0.8043 -1.2096
 2096TIP3    H127703   1.924   3.952  15.866 -0.0121 -0.5793 -3.0034
 2096TIP3    H227704   1.959   4.096  15.834 -0.0742  0.3302  0.5918
 2097TIP3   OH227705   2.107   1.269  10.842 -0.7251 -0.1275  0.2852
 2097TIP3    H127706   2.048   1.301  10.774  0.5212  0.9660 -0.3216
 2097TIP3    H227707   2.124   1.346  10.897  2.6188  0.4980 -1.4138
 2098TIP3   OH227708   0.623   5.806  16.784 -0.0457  0.2244 -0.0125
 2098TIP3    H127709   0.679   5.742  16.827 -1.2336 -1.3571 -0.7071
 2098TIP3    H227710   0.592   5.863  16.854  0.5893 -0.3152  0.7138
 2099TIP3   OH227711   1.339   2.529  14.370 -0.2101 -0.2269  0.0935
 2099TIP3    H127712   1.247   2.538  14.345 -0.2291  2.6041  0.7698
 2099TIP3    H227713   1.351   2.592  14.441  2.0444 -1.2124  0.6854
 2100TIP3   OH227714   4.260   4.160   5.371  0.1251  0.4502  0.2362
 2100TIP3    H127715   4.265   4.248   5.335  1.0304  0.7817  1.1339
 2100TIP3    H227716   4.351   4.131   5.377 -0.2233 -1.2181 -1.6187
 2101TIP3   OH227717   1.538   4.206  11.752  0.5243 -0.1307  0.0648
 2101TIP3    H127718   1.539   4.297  11.723 -0.7469 -0.1120  0.0290
 2101TIP3    H227719   1.449   4.191  11.784  0.0015 -2.0138 -2.0157
 2102TIP3   OH227720   3.905   4.127  13.040 -0.2865  0.1159  0.5138
 2102TIP3    H127721   3.872   4.038  13.049 -1.0935  0.4914  1.4672
 2102TIP3    H227722   3.840   4.172  12.987  0.1173  0.1497  0.0376
 2103TIP3   OH227723   4.757   1.414   1.497  0.1405  0.4413 -0.4461
 2103TIP3    H127724   4.838   1.438   1.543 -0.2748 -0.5104  0.8247
 2103TIP3    H227725   4.690   1.416   1.565 -0.3552 -1.7547 -0.8206
 2104TIP3   OH227726   2.648   3.091   2.647  0.2555 -0.6499  0.2071
 2104TIP3    H127727   2.677   3.000   2.655 -1.6745 -1.6134 -2.4234
 2104TIP3    H227728   2.565   3.086   2.599 -0.5136  2.4507  0.9705
 2105TIP3   OH227729   0.446   5.139  13.414  0.0596  0.5095 -0.1983
 2105TIP3    H127730   0.377   5.095  13.465  2.2633 -1.7306  1.0362
 2105TIP3    H227731   0.450   5.227  13.452 -0.3911 -0.1470  1.4520
 2106TIP3   OH227732   6.143   0.337   3.648  0.1736  0.5719 -0.6592
 2106TIP3    H127733   6.084   0.274   3.606 -1.2561  1.8876 -0.7245
 2106TIP3    H227734   6.111   0.422   3.619  1.4743  1.3775  0.1759
 2107TIP3   OH227735   3.529   4.758  11.635 -0.1947  0.3644 -0.1084
 2107TIP3    H127736   3.617   4.796  11.642  0.5802 -0.7932 -2.5161
 2107TIP3    H227737   3.475   4.830  11.602  0.8281  0.0662 -2.6724
 2108TIP3   OH227738   4.353   5.411  10.530  0.0450 -0.0404 -1.1072
 2108TIP3    H127739   4.284   5.358  10.490 -0.4299 -1.5427  1.4597
 2108TIP3    H227740   4.308   5.487  10.566  0.2285  0.4859 -1.9517
 2109TIP3   OH227741   0.922   6.101  11.713  0.0491  0.1379 -0.4178
 2109TIP3    H127742   0.918   6.099  11.809  1.1455  1.9333 -0.2844
 2109TIP3    H227743   0.894   6.013  11.686 -4.2221  0.6618  1.3493
 2110TIP3   OH227744   1.222   1.090  14.775 -0.2581 -0.3649  0.0866
 2110TIP3    H127745   1.222   1.186  14.769  0.7353 -0.3941 -0.6303
 2110TIP3    H227746   1.183   1.072  14.861 -0.5306  0.6748  0.2009
 2111TIP3   OH227747   0.979   5.016   4.641  0.7201 -0.4659  0.4291
 2111TIP3    H127748   1.045   4.974   4.586 -1.8694 -2.5750 -1.3725
 2111TIP3    H227749   0.942   4.944   4.693 -2.1313 -0.0404 -0.8382
 2112TIP3   OH227750   0.218   1.568  11.854  0.6165 -0.3783 -0.4879
 2112TIP3    H127751   0.291   1.558  11.915  0.7424 -0.8956 -0.7096
 2112TIP3    H227752   0.252   1.534  11.771  1.0655  2.0104 -1.3513
 2113TIP3   OH227753   0.976   2.283  13.128 -0.9524 -0.1928 -0.0691
 2113TIP3    H127754   0.974   2.193  13.159 -1.9961 -0.2537 -0.2774
 2113TIP3    H227755   1.050   2.323  13.174  1.0487 -1.7627 -1.7505
 2114TIP3   OH227756   2.273   0.224   6.551 -0.3121  0.0451  0.2193
 2114TIP3    H127757   2.337   0.155   6.535  0.8583  0.7376  1.7643
 2114TIP3    H227758   2.197   0.179   6.588  0.5687 -0.3918  1.5254
 2115TIP3   OH227759   5.059   5.763   4.938  0.5374 -0.0747  0.0786
 2115TIP3    H127760   5.055   5.668   4.940  1.7507 -0.1460 -0.3321
 2115TIP3    H227761   5.143   5.784   4.977  0.9675  0.7649 -1.2512
 2116TIP3   OH227762   3.029   4.579  14.492  0.2100  0.2577 -0.4547
 2116TIP3    H127763   3.010   4.500  14.542 -4.6451  2.2745  1.5665
 2116TIP3    H227764   3.013   4.554  14.401 -0.5921 -1.2847  0.0718
 2117TIP3   OH227765   1.566   4.823  11.913  0.2213  0.0226 -0.2957
 2117TIP3    H127766   1.658   4.818  11.886  0.2114 -1.0642 -0.1518
 2117TIP3    H227767   1.528   4.889  11.855  0.6889 -0.7902 -1.5599
 2118TIP3   OH227768   1.278   3.587  13.242  0.5511 -0.3545  0.4744
 2118TIP3    H127769   1.267   3.493  13.257 -0.1680 -0.5755 -1.1985
 2118TIP3    H227770   1.370   3.597  13.218  0.1655 -0.9995 -1.4541
 2119TIP3   OH227771   5.737   4.689  14.000  0.3343  0.4724 -0.0566
 2119TIP3    H127772   5.821   4.705  13.956 -0.5708  1.5014 -1.4981
 2119TIP3    H227773   5.676   4.749  13.956 -0.8352  0.8528  1.9912
 2120TIP3   OH227774   1.390   6.112   3.925  0.0832 -0.6983 -0.1249
 2120TIP3    H127775   1.464   6.109   3.864  1.2041 -0.2705  1.1508
 2120TIP3    H227776   1.334   6.182   3.891  1.4092  0.5136  0.0664
 2121TIP3   OH227777   4.974   1.389   0.873 -0.0102 -0.3469  0.2738
 2121TIP3    H127778   5.044   1.451   0.852  0.4190 -1.3142 -1.3107
 2121TIP3    H227779   4.895   1.430   0.838  0.3986 -1.0207 -1.5400
 2122TIP3   OH227780   0.425   5.566  13.216  0.3636 -0.0549  0.1848
 2122TIP3    H127781   0.335   5.537  13.234  0.4466 -0.2263  0.3335
 2122TIP3    H227782   0.420   5.661  13.216 -0.2888 -0.0240 -2.1632
 2123TIP3   OH227783   3.012   5.629  13.502  0.3448  0.1364 -0.0963
 2123TIP3    H127784   3.012   5.724  13.493 -2.2670  0.1353 -0.8361
 2123TIP3    H227785   3.003   5.596  13.413 -4.7304 -0.4947  0.3274
 2124TIP3   OH227786   5.716   3.206   5.077 -0.3996 -0.0012  0.6113
 2124TIP3    H127787   5.712   3.157   5.160  2.8239 -2.7144 -0.6158
 2124TIP3    H227788   5.734   3.296   5.103 -3.1898  0.0797  2.8653
 2125TIP3   OH227789   1.257   5.296   0.281 -0.5334  0.3181 -0.3565
 2125TIP3    H127790   1.213   5.356   0.220 -1.8162  1.2468  1.4053
 2125TIP3    H227791   1.270   5.348   0.360  0.1409 -1.1699  0.5431
 2126TIP3   OH227792   1.917   3.288  14.651 -0.4529  0.2840  0.2387
 2126TIP3    H127793   1.946   3.327  14.734  1.5683  1.9875 -1.1352
 2126TIP3    H227794   1.945   3.197  14.656  1.1239  0.7598  0.8404
 2127TIP3   OH227795   5.739   6.437   5.752  0.0509 -0.0650  0.5307
 2127TIP3    H127796   5.680   6.476   5.687  0.8295 -1.1158 -0.8770
 2127TIP3    H227797   5.808   6.502   5.764  0.3298 -0.1911 -0.3322
 2128TIP3   OH227798   5.337   6.308  10.605 -0.0858 -0.2298  0.0073
 2128TIP3    H127799   5.273   6.352  10.550 -0.4726  0.0044  0.6320
 2128TIP3    H227800   5.304   6.218  10.614  0.5065 -0.5537 -0.9589
 2129TIP3   OH227801   6.497   0.507   0.128 -0.6535 -0.0553  0.5570
 2129TIP3    H127802   6.512   0.443   0.197 -1.4017  1.6893  2.4394
 2129TIP3    H227803   6.582   0.551   0.117 -0.6653  0.0314  0.7918
 2130TIP3   OH227804   0.880   4.848  17.242  0.4321  0.4627  0.7811
 2130TIP3    H127805   0.965   4.838  17.201  0.1081 -1.6721  0.5248
 2130TIP3    H227806   0.898   4.850  17.336  0.8032  0.6175  0.7053
 2131TIP3   OH227807   6.068   4.819   4.625  0.3619  0.6844 -0.1842
 2131TIP3    H127808   6.119   4.804   4.545 -1.1963  3.7216 -1.9380
 2131TIP3    H227809   6.005   4.747   4.626  0.6604  0.3673 -1.5384
 2132TIP3   OH227810   0.217   3.607  12.428 -0.2300  0.3109 -0.2758
 2132TIP3    H127811   0.240   3.519  12.458  2.6440  0.6430 -1.1827
 2132TIP3    H227812   0.208   3.658  12.508  2.4044  0.0981  0.2531
 2133TIP3   OH227813   4.880   4.378  16.318  0.7466 -0.0192  0.0013
 2133TIP3    H127814   4.963   4.413  16.351  1.2278 -1.5510  0.5343
 2133TIP3    H227815   4.892   4.283  16.321 -0.1458 -0.2632 -2.2436
 2134TIP3   OH227816   0.854   3.099   1.613  0.0527 -0.1077  0.0897
 2134TIP3    H127817   0.880   3.190   1.626 -0.7173  0.0125  0.9035
 2134TIP3    H227818   0.908   3.049   1.675 -0.0432 -0.1219  0.1617
 2135TIP3   OH227819   3.681   3.884  15.460  0.4339 -0.2022 -0.2099
 2135TIP3    H127820   3.708   3.857  15.548  0.7148  0.5406 -0.0625
 2135TIP3    H227821   3.615   3.819  15.434  0.8039 -0.7918  0.2892
 2136TIP3   OH227822   0.199   5.822   3.822 -0.3749  0.2808 -0.2639
 2136TIP3    H127823   0.226   5.740   3.779 -1.5604 -1.7013  2.4861
 2136TIP3    H227824   0.107   5.831   3.799 -0.3794  0.5661 -0.1263
 2137TIP3   OH227825   0.013   5.397  15.198  0.0635 -0.1545 -0.5396
 2137TIP3    H127826   0.092   5.343  15.200 -0.1688 -0.4905  0.5645
 2137TIP3    H227827  -0.057   5.337  15.172 -0.3631 -0.6737  1.6218
 2138TIP3   OH227828   4.980   4.606   5.484 -0.2437 -0.8643  0.4516
 2138TIP3    H127829   4.912   4.656   5.438  1.4871 -0.5654 -1.9783
 2138TIP3    H227830   5.035   4.673   5.525  0.3310 -0.8876 -0.2455
 2139TIP3   OH227831   3.155   6.345  15.686 -0.0811  0.1269  0.2590
 2139TIP3    H127832   3.197   6.415  15.736 -0.1486  1.8644 -1.9807
 2139TIP3    H227833   3.222   6.316  15.624 -0.9339  0.2075 -0.7285
 2140TIP3   OH227834   6.042   4.346   1.531  0.0276  0.2240 -0.3165
 2140TIP3    H127835   6.119   4.395   1.558 -0.0388  1.2495 -1.8574
 2140TIP3    H227836   5.968   4.404   1.552 -0.1914  0.0290 -0.5363
 2141TIP3   OH227837   0.803   4.129  15.190  0.0845  0.4406  0.2601
 2141TIP3    H127838   0.780   4.221  15.175  2.5843  1.2512  0.9020
 2141TIP3    H227839   0.777   4.112  15.281 -0.2867  0.5302  0.1734
 2142TIP3   OH227840   3.699   1.824  16.076 -0.3725 -0.1739  0.3928
 2142TIP3    H127841   3.699   1.732  16.102 -1.6646  0.1751  1.8309
 2142TIP3    H227842   3.622   1.861  16.120  0.6699  1.8174  0.6852
 2143TIP3   OH227843   5.500   2.335   2.180 -0.3357  0.6666 -0.2535
 2143TIP3    H127844   5.591   2.318   2.204  0.0700  1.3571 -1.2442
 2143TIP3    H227845   5.449   2.298   2.252  0.7237  0.2388  0.2969
 2144TIP3   OH227846   3.703   4.915  12.840  0.1460 -0.6414  0.1793
 2144TIP3    H127847   3.767   4.850  12.811 -0.5836 -1.3693  0.1735
 2144TIP3    H227848   3.666   4.951  12.760  1.0502  0.3111  0.1673
 2145TIP3   OH227849   1.650   4.602   5.978  0.5534  0.3687 -0.1625
 2145TIP3    H127850   1.729   4.655   5.987  1.2307 -0.8301  1.6784
 2145TIP3    H227851   1.679   4.513   5.998 -1.4209  0.0315  1.5711
 2146TIP3   OH227852   5.374   4.945  16.669 -0.4016 -0.8044  0.1236
 2146TIP3    H127853   5.348   4.945  16.576 -0.0020  0.1379  0.0028
 2146TIP3    H227854   5.357   5.035  16.698  2.2215 -0.2548  0.1744
 2147TIP3   OH227855   2.817   0.153   1.189  0.1551 -0.1958 -0.5189
 2147TIP3    H127856   2.906   0.183   1.207  0.5058 -0.9781 -0.8850
 2147TIP3    H227857   2.812   0.066   1.229 -0.6493  0.0983  0.0381
 2148TIP3   OH227858   0.865   1.550   0.455  0.2975  0.8728  0.1890
 2148TIP3    H127859   0.881   1.528   0.364  0.0596  0.0065  0.3542
 2148TIP3    H227860   0.949   1.535   0.498  0.2779  0.8105  0.2051
 2149TIP3   OH227861   6.113   6.386   4.159 -0.8766  0.6549  0.0753
 2149TIP3    H127862   6.094   6.302   4.201 -0.7697  0.0760 -1.0027
 2149TIP3    H227863   6.116   6.366   4.066 -3.0140  2.2674 -0.4006
 2150TIP3   OH227864   0.684   2.467  13.418  0.3461  0.1509  0.2474
 2150TIP3    H127865   0.777   2.488  13.424  0.2138  1.1928 -0.7728
 2150TIP3    H227866   0.650   2.479  13.506  0.9509  0.9978  0.3759
 2151TIP3   OH227867   3.550   3.105  16.277  0.3713 -0.0468  0.5610
 2151TIP3    H127868   3.460   3.099  16.310 -0.0788  0.9929 -0.3962
 2151TIP3    H227869   3.596   3.032  16.318 -0.4641  0.4265  2.4717
 2152TIP3   OH227870   0.833   3.821  15.622 -0.0262 -0.7452 -0.1116
 2152TIP3    H127871   0.759   3.761  15.632 -0.9423  0.4369  0.3297
 2152TIP3    H227872   0.796   3.908  15.633  2.0134 -0.1858  4.2054
 2153TIP3   OH227873   4.311   1.825   3.868  0.4887 -0.2305 -0.1556
 2153TIP3    H127874   4.303   1.855   3.778  0.3454 -0.6947 -0.3003
 2153TIP3    H227875   4.338   1.733   3.861  1.6061  0.0490  0.2854
 2154TIP3   OH227876   4.379   6.701   3.210  0.2723 -0.0671 -0.4966
 2154TIP3    H127877   4.285   6.713   3.199  0.2764  0.2196 -0.2161
 2154TIP3    H227878   4.388   6.616   3.253  0.1070  0.2328  0.1321
 2155TIP3   OH227879   4.127   2.917   4.927 -0.3646  0.2862 -0.5087
 2155TIP3    H127880   4.072   2.841   4.947  0.0461  0.2258  0.4191
 2155TIP3    H227881   4.093   2.987   4.982  0.7523  0.1257  0.4138
 2156TIP3   OH227882   3.857   3.471   2.081 -0.0302  0.0829 -0.5519
 2156TIP3    H127883   3.817   3.553   2.108  1.0590  0.0521  1.2586
 2156TIP3    H227884   3.846   3.412   2.156  2.1505 -0.3554 -0.5091
 2157TIP3   OH227885   4.779   3.368  13.353  0.2570  0.3293  0.0874
 2157TIP3    H127886   4.701   3.399  13.398  0.6275  1.4340  0.0005
 2157TIP3    H227887   4.798   3.436  13.288  0.5120 -0.5828 -0.8216
 2158TIP3   OH227888   4.323   4.166  17.204 -0.1428  0.5296  0.1806
 2158TIP3    H127889   4.399   4.107  17.202  0.6608  1.5708 -0.4946
 2158TIP3    H227890   4.249   4.107  17.218  0.9691 -0.3285  3.7685
 2159TIP3   OH227891   1.174   1.153   2.781 -0.2399  0.3053 -0.0083
 2159TIP3    H127892   1.187   1.071   2.732  0.6043 -0.2880  1.1549
 2159TIP3    H227893   1.144   1.124   2.868  1.1117  1.1563  0.7690
 2160TIP3   OH227894   4.319   5.485   0.615  0.4356 -0.4968 -0.2295
 2160TIP3    H127895   4.280   5.508   0.699 -0.0388 -0.4424 -0.4618
 2160TIP3    H227896   4.262   5.416   0.580  0.3912 -0.2379 -0.6870
 2161TIP3   OH227897   1.432   2.124  15.410 -0.3455  0.5850  0.2147
 2161TIP3    H127898   1.367   2.191  15.388 -1.2987  0.3102  2.0109
 2161TIP3    H227899   1.383   2.057  15.457  0.1340 -2.4816 -3.1884
 2162TIP3   OH227900   5.505   1.352  17.089 -0.3859  0.0138 -0.8904
 2162TIP3    H127901   5.504   1.299  17.009 -1.2328 -0.7709 -0.3659
 2162TIP3    H227902   5.495   1.290  17.160  0.1196  0.7344 -0.1659
 2163TIP3   OH227903   5.619   6.129   1.641 -0.1573 -0.2060  0.4166
 2163TIP3    H127904   5.693   6.080   1.675  0.2819 -0.8177 -1.3320
 2163TIP3    H227905   5.636   6.220   1.667  2.1554 -0.0201 -1.4092
 2164TIP3   OH227906   5.318   5.089  15.577  0.0521 -0.2550 -0.5553
 2164TIP3    H127907   5.272   5.137  15.646 -0.2670 -0.3977 -0.6708
 2164TIP3    H227908   5.369   5.023  15.623  0.4886  0.1810 -0.3932
 2165TIP3   OH227909   5.149   1.360  14.332 -0.3884 -0.1680 -0.4595
 2165TIP3    H127910   5.149   1.320  14.245  0.2851  1.2717 -1.1516
 2165TIP3    H227911   5.186   1.448  14.318  0.7203 -0.2833  1.4457
 2166TIP3   OH227912   2.396   2.794   1.799  0.0420  0.0987 -0.1308
 2166TIP3    H127913   2.466   2.767   1.739 -2.1420  0.0036 -2.8536
 2166TIP3    H227914   2.391   2.889   1.788 -0.6911  0.0226 -0.5237
 2167TIP3   OH227915   4.756   3.180   1.904 -0.4615 -0.0007  0.5537
 2167TIP3    H127916   4.735   3.093   1.872 -1.4666 -0.5081  2.4610
 2167TIP3    H227917   4.844   3.198   1.871 -1.1786 -0.6960 -1.8879
 2168TIP3   OH227918   2.308   3.418  15.565  0.0961 -0.3149  0.1283
 2168TIP3    H127919   2.312   3.514  15.562  2.1076 -0.3216  0.7071
 2168TIP3    H227920   2.283   3.392  15.477 -0.3545  0.7508 -0.0706
 2169TIP3   OH227921   0.765   4.990   3.192  0.1968  0.8615 -0.1393
 2169TIP3    H127922   0.733   4.909   3.232 -0.6346  1.1371 -0.2248
 2169TIP3    H227923   0.849   4.966   3.153  0.1238  0.1254  0.1396
 2170TIP3   OH227924   2.630   5.792  16.242  0.1500  0.5394 -0.0467
 2170TIP3    H127925   2.677   5.869  16.211 -0.6868  0.4409 -1.6346
 2170TIP3    H227926   2.540   5.804  16.212  0.3521 -1.8290 -1.9223
 2171TIP3   OH227927   0.279   5.829   5.744  0.3412 -0.9420 -0.4233
 2171TIP3    H127928   0.268   5.743   5.783  1.2982 -0.0883  1.9365
 2171TIP3    H227929   0.371   5.850   5.757 -0.6084  2.1362  3.2028
 2172TIP3   OH227930   2.871   0.210   3.012 -0.0893 -0.2871  0.1426
 2172TIP3    H127931   2.797   0.195   3.070 -0.4690  0.8160 -0.0186
 2172TIP3    H227932   2.858   0.148   2.940 -0.5484 -0.4875  0.3932
 2173TIP3   OH227933   6.389   4.112   6.156 -0.2431  0.2398 -0.7611
 2173TIP3    H127934   6.379   4.183   6.092 -0.1324  0.9036 -0.0618
 2173TIP3    H227935   6.333   4.138   6.229  0.8699  0.3208  0.0924
 2174TIP3   OH227936   0.426   1.344   6.353  0.2381  0.2509  0.5729
 2174TIP3    H127937   0.421   1.259   6.309  3.5351 -0.7075  1.8004
 2174TIP3    H227938   0.362   1.338   6.424  1.9921 -2.2211  2.0884
 2175TIP3   OH227939   1.130   6.697  11.748  0.4977 -0.0863 -0.3646
 2175TIP3    H127940   1.199   6.673  11.686 -0.1208 -0.8792 -0.7735
 2175TIP3    H227941   1.176   6.718  11.829  1.2850  0.4316 -0.9364
 2176TIP3   OH227942   2.467   6.002   1.645 -0.1063 -0.0119 -0.4841
 2176TIP3    H127943   2.548   6.049   1.627 -0.5005  1.1082  0.5353
 2176TIP3    H227944   2.448   5.954   1.564  1.0926  0.4151 -1.0292
 2177TIP3   OH227945   1.511   5.627  16.705 -0.0672 -0.0859  0.0207
 2177TIP3    H127946   1.549   5.707  16.739  1.1024 -0.9521  0.8369
 2177TIP3    H227947   1.431   5.655  16.661  0.8995  1.6601 -0.7234
 2178TIP3   OH227948   6.308   5.962   3.238  0.1794 -0.5460  0.5912
 2178TIP3    H127949   6.344   5.906   3.307  1.2703 -1.3245 -0.5558
 2178TIP3    H227950   6.367   6.036   3.233  1.9564 -1.9672 -1.4920
 2179TIP3   OH227951   1.092   5.800  15.679 -0.5542  0.3370  0.2918
 2179TIP3    H127952   1.047   5.875  15.640 -1.5680  0.1518  1.0534
 2179TIP3    H227953   1.183   5.810  15.652 -0.4530  2.4317  1.2501
 2180TIP3   OH227954   5.330   1.207  16.482 -0.8194  0.4292 -0.4657
 2180TIP3    H127955   5.245   1.249  16.496 -1.2595  0.2450 -2.3202
 2180TIP3    H227956   5.309   1.115  16.466 -0.0514 -0.0895  1.3057
 2181TIP3   OH227957   3.692   5.928  13.790  0.0127  0.2824  0.2270
 2181TIP3    H127958   3.615   5.888  13.749  1.6342 -2.7557 -0.1335
 2181TIP3    H227959   3.722   5.993  13.726 -1.8815  1.1636  0.1590
 2182TIP3   OH227960   3.157   5.647   1.734  0.2644  0.2218  0.0657
 2182TIP3    H127961   3.108   5.611   1.808 -0.3507 -1.0765 -0.9512
 2182TIP3    H227962   3.092   5.697   1.685  0.6876  1.1347  0.4026
 2183TIP3   OH227963   0.988   4.536  11.582  0.1056 -0.0628  0.3190
 2183TIP3    H127964   1.083   4.551  11.583  0.5782 -2.5124  1.8403
 2183TIP3    H227965   0.970   4.508  11.492  0.7154  0.8693 -0.1146
 2184TIP3   OH227966   5.852   3.582   4.295 -0.4056 -0.1776  0.3319
 2184TIP3    H127967   5.860   3.491   4.322  1.1704 -0.2740 -0.3633
 2184TIP3    H227968   5.857   3.632   4.377 -2.8124 -0.7227  0.8914
 2185TIP3   OH227969   3.561   1.457   1.909  0.0609 -0.5032  0.8434
 2185TIP3    H127970   3.543   1.550   1.924 -0.5357 -0.1872 -1.4405
 2185TIP3    H227971   3.516   1.412   1.980 -3.3676  0.7576 -0.2956
 2186TIP3   OH227972   4.712   4.073   0.564 -0.5415 -0.2451 -0.0420
 2186TIP3    H127973   4.797   4.114   0.550 -1.4239  2.1078  0.8822
 2186TIP3    H227974   4.724   4.020   0.643  0.0989  0.0118  0.0416
 2187TIP3   OH227975   1.739   4.374  13.787  0.2570 -0.3215  0.4260
 2187TIP3    H127976   1.785   4.383  13.703  0.9865 -1.6944  0.6498
 2187TIP3    H227977   1.668   4.312  13.769 -0.1263  0.0585  0.6220
 2188TIP3   OH227978   0.516   6.488  12.139  0.2811  0.0883 -0.6828
 2188TIP3    H127979   0.440   6.485  12.080  0.2665 -0.2384 -0.6488
 2188TIP3    H227980   0.522   6.399  12.174 -1.1507  0.8237  1.6150
 2189TIP3   OH227981   3.256   2.476   5.131  0.5626 -0.4437  0.3997
 2189TIP3    H127982   3.239   2.512   5.044 -1.1952  0.5190  1.0856
 2189TIP3    H227983   3.169   2.466   5.171  1.3034 -1.0223  1.9796
 2190TIP3   OH227984   1.220   5.118   5.165  0.3677  0.3172 -0.6972
 2190TIP3    H127985   1.234   5.025   5.154  1.8509  0.6406 -1.8316
 2190TIP3    H227986   1.231   5.155   5.078 -0.1911  1.5569 -0.2672
 2191TIP3   OH227987   6.486   1.493   3.535 -0.2562 -0.5263 -0.3389
 2191TIP3    H127988   6.430   1.545   3.592 -0.4265 -0.8558 -0.1977
 2191TIP3    H227989   6.433   1.415   3.515  1.0044 -1.9878  1.7179
 2192TIP3   OH227990   4.338   5.255  14.217  0.3584  0.3700  0.4594
 2192TIP3    H127991   4.304   5.344  14.213  1.3954  0.9046  2.3676
 2192TIP3    H227992   4.411   5.253  14.154 -1.7805 -0.2148 -2.1707
 2193TIP3   OH227993   2.352   4.594   3.479  0.2055  0.4365 -0.5592
 2193TIP3    H127994   2.268   4.551   3.460 -0.5680  1.6617 -0.0589
 2193TIP3    H227995   2.386   4.617   3.392  0.6229 -1.1175 -0.8317
 2194TIP3   OH227996   0.912   0.838  14.118 -0.1242  0.1450  0.7253
 2194TIP3    H127997   0.946   0.886  14.042  0.2436 -3.2518 -1.4705
 2194TIP3    H227998   0.818   0.833  14.103  0.0106 -0.9503  0.2029
 2195TIP3   OH227999   6.516   1.087  12.780  0.0063 -0.1034  0.3018
 2195TIP3    H128000   6.603   1.094  12.819  0.3112  3.2935 -0.6742
 2195TIP3    H228001   6.500   1.172  12.739 -3.1233 -1.1348 -1.0131
 2196TIP3   OH228002   5.989   6.147   2.710  0.0948 -0.1800  0.4522
 2196TIP3    H128003   5.998   6.119   2.619  2.4158 -3.3596  1.4885
 2196TIP3    H228004   5.906   6.195   2.712  0.6399  1.3121 -3.5607
 2197TIP3   OH228005   0.821   3.219   0.136 -0.3661  0.6071 -0.0526
 2197TIP3    H128006   0.792   3.277   0.206 -1.9480  1.3268 -1.2400
 2197TIP3    H228007   0.894   3.266   0.095 -0.4876  0.9283  0.0992
 2198TIP3   OH228008   5.098   5.376   6.374 -0.2397  0.4475  0.3143
 2198TIP3    H128009   5.099   5.432   6.296  2.0280  0.3335  0.1914
 2198TIP3    H228010   5.080   5.436   6.447  3.4728  1.7846  0.3667
 2199TIP3   OH228011   5.162   6.748  17.023 -0.9977 -0.5981 -0.3512
 2199TIP3    H128012   5.093   6.761  16.959 -0.9651 -0.4556 -0.3574
 2199TIP3    H228013   5.186   6.836  17.051  0.7708 -0.4812 -2.0292
 2200TIP3   OH228014   4.540   5.737   5.393 -0.4348  0.0331  0.0261
 2200TIP3    H128015   4.478   5.808   5.405 -0.9174 -0.1582 -1.2047
 2200TIP3    H228016   4.569   5.745   5.302  0.9399 -0.2066  0.4282
 2201TIP3   OH228017   5.421   1.838  12.284 -0.5410 -0.5809  0.3570
 2201TIP3    H128018   5.499   1.859  12.232 -0.8933  0.3154  0.1812
 2201TIP3    H228019   5.456   1.788  12.359 -0.1124 -2.5064 -1.0529
 2202TIP3   OH228020   0.734   1.477   5.273 -0.3828 -0.1885  0.3396
 2202TIP3    H128021   0.794   1.491   5.346 -1.0838 -0.4100  0.9739
 2202TIP3    H228022   0.752   1.387   5.244  0.0169 -0.0397  0.1221
 2203TIP3   OH228023   3.174   1.126  16.413  0.1393  0.6065  0.9079
 2203TIP3    H128024   3.093   1.116  16.464  0.7919  0.6326  1.9926
 2203TIP3    H228025   3.153   1.090  16.327 -0.7269 -0.3086  1.4748
 2204TIP3   OH228026   6.646   4.066   1.684 -0.0668 -0.1630 -0.2327
 2204TIP3    H128027   6.691   3.985   1.708 -0.0615  0.2989  1.4893
 2204TIP3    H228028   6.579   4.078   1.751 -1.6973  0.0360 -1.8214
 2205TIP3   OH228029   4.689   1.384   4.284 -0.0101  0.3254 -0.6499
 2205TIP3    H128030   4.777   1.402   4.253  0.5646  2.0773  1.7498
 2205TIP3    H228031   4.645   1.469   4.282 -1.2059 -0.2638 -0.4310
 2206TIP3   OH228032   6.613   4.616   5.771  0.6284 -0.0041 -0.1543
 2206TIP3    H128033   6.571   4.653   5.849  0.9328  1.9647 -0.8718
 2206TIP3    H228034   6.706   4.634   5.782  1.0049 -1.8654  0.1079
 2207TIP3   OH228035   6.015   2.464   3.951 -0.6327 -0.3525  0.2336
 2207TIP3    H128036   6.064   2.389   3.917 -1.9520 -0.6981 -0.9849
 2207TIP3    H228037   6.075   2.538   3.942 -0.0970 -0.8745 -0.6158
 2208TIP3   OH228038   2.066   4.942   2.531 -0.6519 -0.0781  0.2232
 2208TIP3    H128039   2.123   4.869   2.554 -0.7895 -0.5763 -0.9482
 2208TIP3    H228040   1.982   4.901   2.511 -0.5925  0.3479 -0.9189
 2209TIP3   OH228041   2.436   6.388  12.415 -0.0623 -0.3027 -0.1751
 2209TIP3    H128042   2.387   6.341  12.348 -1.5408 -0.8863  1.2404
 2209TIP3    H228043   2.399   6.477  12.413  0.6501 -0.0127 -0.8416
 2210TIP3   OH228044   6.595   4.969  14.130  0.5661  0.1043 -0.5411
 2210TIP3    H128045   6.614   4.965  14.224 -0.0127  3.9713 -0.0802
 2210TIP3    H228046   6.505   4.937  14.122 -0.4530  2.4027  0.7866
 2211TIP3   OH228047   6.545   1.277   5.701 -0.4116 -0.0506  0.3383
 2211TIP3    H128048   6.555   1.335   5.625  0.0643  1.0403  1.2229
 2211TIP3    H228049   6.461   1.302   5.740  0.4384  1.0544  1.5369
 2212TIP3   OH228050   5.467   0.161   1.253 -0.7755 -0.1096  0.4680
 2212TIP3    H128051   5.519   0.184   1.330 -1.6656  0.5683  0.8894
 2212TIP3    H228052   5.491   0.071   1.233  0.4283  0.1314  0.7479
 2213TIP3   OH228053   3.698   3.129   0.971  0.2380 -0.7770 -0.0512
 2213TIP3    H128054   3.794   3.136   0.964  0.2603 -2.1370 -2.0426
 2213TIP3    H228055   3.669   3.110   0.882 -1.9217 -0.3462  0.5015
 2214TIP3   OH228056   3.155   6.184   5.670  0.3204  0.1553 -0.0759
 2214TIP3    H128057   3.064   6.173   5.699  0.0942  0.4638 -0.6495
 2214TIP3    H228058   3.148   6.194   5.575  0.9726 -0.0076 -0.1430
 2215TIP3   OH228059   4.300   5.481  13.752 -1.0123  0.1255 -0.4619
 2215TIP3    H128060   4.230   5.536  13.717 -0.0892  0.4797 -1.8762
 2215TIP3    H228061   4.336   5.437  13.675 -0.7096 -1.2644  0.4515
 2216TIP3   OH228062   2.423   5.621  13.490 -0.2902 -0.2704  0.7893
 2216TIP3    H128063   2.329   5.627  13.508 -0.1409 -1.0828  2.0292
 2216TIP3    H228064   2.429   5.568  13.410 -0.8928 -0.1531  0.6599
 2217TIP3   OH228065   3.841   3.507   4.881  0.1340  0.2938  0.3913
 2217TIP3    H128066   3.842   3.432   4.821 -0.0126  0.8419 -0.3038
 2217TIP3    H228067   3.933   3.525   4.898  0.2031  0.8173 -0.5295
 2218TIP3   OH228068   4.906   0.011  16.900  0.3888 -0.4198  0.1718
 2218TIP3    H128069   4.886   0.018  16.806 -0.1232 -1.0877  0.2235
 2218TIP3    H228070   4.831  -0.036  16.937  0.4747  0.0488  0.9597
 2219TIP3   OH228071   4.097   3.319  11.947 -0.0018 -0.5468 -0.0071
 2219TIP3    H128072   4.131   3.282  12.029  1.5630 -1.5400 -1.0463
 2219TIP3    H228073   4.123   3.256  11.880  0.6243  1.2768 -1.5549
 2220TIP3   OH228074   5.850   0.072   5.500  0.0494  0.2904  0.3316
 2220TIP3    H128075   5.893   0.155   5.479 -1.1940  1.1245  1.0004
 2220TIP3    H228076   5.772   0.071   5.444  0.6426 -0.9968 -0.5374
 2221TIP3   OH228077   0.346   6.392   5.136 -0.3088 -0.3946 -0.5206
 2221TIP3    H128078   0.318   6.429   5.220  0.0729  1.8513 -1.3208
 2221TIP3    H228079   0.335   6.297   5.147 -0.4382 -0.1651  1.9911
 2222TIP3   OH228080   0.736   1.397   6.153 -0.1129  0.6150 -0.7473
 2222TIP3    H128081   0.825   1.389   6.186 -0.2728  2.3270  0.1827
 2222TIP3    H228082   0.744   1.448   6.073  0.0774 -2.1441 -2.6474
 2223TIP3   OH228083   5.764   6.016   3.215  0.3104  0.6241 -0.1830
 2223TIP3    H128084   5.831   6.061   3.164  1.3298 -1.0863 -0.4253
 2223TIP3    H228085   5.766   6.060   3.301 -0.1839  2.3382 -0.9984
 2224TIP3   OH228086   3.304   1.203  15.005  0.0607 -0.0245 -0.2718
 2224TIP3    H128087   3.258   1.138  14.952 -0.9520  0.1870  0.3188
 2224TIP3    H228088   3.271   1.189  15.094  0.1005  1.0619 -0.0696
 2225TIP3   OH228089   3.772   4.050  11.006  0.1225  0.3515 -0.2655
 2225TIP3    H128090   3.696   4.088  10.962 -0.2872  2.4854  2.0183
 2225TIP3    H228091   3.755   3.956  11.008 -2.2652  0.7276 -0.2386
 2226TIP3   OH228092   5.137   0.933   1.214 -0.4318 -0.0948  0.6057
 2226TIP3    H128093   5.209   0.881   1.248 -0.0198  0.2467  0.2720
 2226TIP3    H228094   5.077   0.869   1.175  0.6238 -0.2697 -0.8306
 2227TIP3   OH228095   3.254   0.728   2.955 -0.2971 -0.8788  0.4226
 2227TIP3    H128096   3.316   0.716   2.883  0.7738 -1.9662  1.4950
 2227TIP3    H228097   3.175   0.761   2.912  0.0390 -2.2438 -1.3889
 2228TIP3   OH228098   3.399   1.311   5.083 -0.1972  0.6709 -0.3892
 2228TIP3    H128099   3.319   1.308   5.030 -0.0486 -0.0707 -0.5737
 2228TIP3    H228100   3.373   1.360   5.162 -1.0771 -0.2984 -0.0493
 2229TIP3   OH228101   2.913   5.513   5.042 -0.1851 -1.0380  0.2647
 2229TIP3    H128102   2.889   5.421   5.028 -2.1499 -0.8843  2.1207
 2229TIP3    H228103   2.831   5.561   5.036  0.7543  0.5676 -0.2735
 2230TIP3   OH228104   3.018   3.115  12.613 -0.4089  0.5654 -0.6024
 2230TIP3    H128105   3.027   3.118  12.517 -3.3073 -0.5294 -1.0204
 2230TIP3    H228106   2.947   3.176  12.632  0.6928  1.4347  1.0321
 2231TIP3   OH228107   0.047   5.697   0.874 -0.4753  0.1715  0.7212
 2231TIP3    H128108  -0.016   5.647   0.823 -0.4853  0.9717 -0.0760
 2231TIP3    H228109   0.060   5.778   0.824  1.3153 -0.0394  0.7735
 2232TIP3   OH228110   6.653   0.123  14.183 -0.0822  0.1408 -0.1189
 2232TIP3    H128111   6.749   0.128  14.185 -0.0130 -0.9846 -0.3079
 2232TIP3    H228112   6.634   0.030  14.178 -1.2043  0.3304  0.3786
 2233TIP3   OH228113   4.295   0.497  11.935 -0.2399 -0.5977  0.2294
 2233TIP3    H128114   4.369   0.453  11.976 -1.3487 -0.6026  2.3367
 2233TIP3    H228115   4.319   0.589  11.935 -0.1264 -0.6242  0.6804
 2234TIP3   OH228116   6.256   1.543   5.180 -0.4030  0.2429 -0.2696
 2234TIP3    H128117   6.193   1.482   5.219 -1.9357  0.9504 -1.5584
 2234TIP3    H228118   6.287   1.499   5.101 -0.0896  0.3580 -0.2133
 2235TIP3   OH228119   0.941   6.578   0.289  0.2556 -0.0899 -0.3280
 2235TIP3    H128120   0.884   6.635   0.340 -1.1489 -2.0916  0.5071
 2235TIP3    H228121   0.887   6.550   0.215  1.6864  1.3860 -2.0248
 2236TIP3   OH228122   2.554   5.977   3.381  0.2248 -0.3405  0.0688
 2236TIP3    H128123   2.470   5.981   3.335  0.8163 -0.2959 -1.0268
 2236TIP3    H228124   2.555   5.890   3.421  0.2976 -0.9456 -1.1936
 2237TIP3   OH228125   2.575   0.071  15.049 -0.0689 -0.3884 -0.5010
 2237TIP3    H128126   2.555   0.050  15.141 -0.5167  1.1896 -0.2179
 2237TIP3    H228127   2.495   0.050  15.001 -1.3995  2.6937  0.1318
 2238TIP3   OH228128   2.002   5.249  12.245  0.1190  0.0242 -0.8168
 2238TIP3    H128129   2.038   5.334  12.269  0.8061 -0.0570 -1.5009
 2238TIP3    H228130   1.944   5.267  12.172 -2.3553  0.3399  1.1017
 2239TIP3   OH228131   6.410   0.293  11.957 -0.4208  1.0750 -0.0526
 2239TIP3    H128132   6.350   0.367  11.947  1.6252  2.7372 -0.7860
 2239TIP3    H228133   6.482   0.312  11.897  0.8756 -0.7973  0.8081
 2240TIP3   OH228134   3.978   5.030  13.629  0.5309  0.5173 -0.4783
 2240TIP3    H128135   4.014   4.995  13.710 -0.2696  2.8970  1.0394
 2240TIP3    H228136   3.900   4.977  13.613 -1.3253  2.0762  2.3883
 2241TIP3   OH228137   2.776   2.458   3.342  0.5211  0.0909  0.6663
 2241TIP3    H128138   2.710   2.513   3.383 -0.4956  0.7978 -1.7301
 2241TIP3    H228139   2.777   2.378   3.394 -1.6312  0.4076  1.2888
 2242TIP3   OH228140   3.017   1.521  17.150  0.3433 -0.0320  0.5870
 2242TIP3    H128141   2.950   1.479  17.204  1.2216 -1.3998  0.6868
 2242TIP3    H228142   3.030   1.607  17.190 -0.8104 -0.0324  1.0056
 2243TIP3   OH228143   4.694   1.848  13.252 -0.1770 -0.1042  0.3366
 2243TIP3    H128144   4.690   1.797  13.172  0.8373 -1.4198  1.0868
 2243TIP3    H228145   4.604   1.850  13.284 -0.4293 -0.3380 -0.3463
 2244TIP3   OH228146   4.424   3.804   5.502 -0.4729  0.0302 -0.1742
 2244TIP3    H128147   4.492   3.871   5.507 -2.5843  2.2543  0.9768
 2244TIP3    H228148   4.457   3.742   5.437  2.0401  1.6715 -0.6287
 2245TIP3   OH228149   1.176   1.117  10.690 -0.4854 -0.3524 -1.1411
 2245TIP3    H128150   1.254   1.099  10.744 -0.8494  2.6196  0.5882
 2245TIP3    H228151   1.185   1.058  10.615  2.2373 -1.7319  0.1140
 2246TIP3   OH228152   1.461   6.040  12.681 -0.7453 -0.3739  0.5889
 2246TIP3    H128153   1.421   5.977  12.740 -1.3827 -0.0055  0.5517
 2246TIP3    H228154   1.533   5.992  12.640 -0.3501 -0.6642  1.5866
 2247TIP3   OH228155   0.669   3.393  16.298  0.2150  0.8599  0.3242
 2247TIP3    H128156   0.652   3.475  16.252 -2.0141  0.4149  0.2786
 2247TIP3    H228157   0.715   3.339  16.234 -2.8694  0.2280 -1.5064
 2248TIP3   OH228158   2.133   0.627  12.793 -0.1364  0.4453 -0.5678
 2248TIP3    H128159   2.216   0.581  12.807 -0.4080  0.2780  0.5252
 2248TIP3    H228160   2.093   0.633  12.879 -0.5899  1.8487 -0.8540
 2249TIP3   OH228161   2.879   2.785  13.937 -0.0608 -0.0360 -0.7966
 2249TIP3    H128162   2.925   2.868  13.933 -1.1287  0.5702 -0.8905
 2249TIP3    H228163   2.892   2.745  13.851  1.6006 -0.6167 -0.3002
 2250TIP3   OH228164   1.580   2.414  14.340  0.5127 -0.1637 -0.4356
 2250TIP3    H128165   1.570   2.343  14.277 -1.9719 -1.3897  1.1475
 2250TIP3    H228166   1.493   2.453  14.347  1.8362  3.4308 -1.5114
 2251TIP3   OH228167   0.488   5.362   3.070 -0.2446  0.0318  0.0591
 2251TIP3    H128168   0.565   5.410   3.038  0.4903 -1.8946 -1.2521
 2251TIP3    H228169   0.520   5.273   3.084 -1.5286 -0.1156  2.5461
 2252TIP3   OH228170   3.059   2.339  14.108  0.1840  0.3467  0.6660
 2252TIP3    H128171   3.060   2.435  14.103 -0.8530  0.5335  2.7387
 2252TIP3    H228172   2.974   2.318  14.148  0.2474 -1.4692 -0.0525
 2253TIP3   OH228173   6.711   2.188   1.401 -0.1036 -0.4050  0.2276
 2253TIP3    H128174   6.803   2.212   1.415  0.9703 -1.7704 -3.3256
 2253TIP3    H228175   6.662   2.267   1.422  2.0160  0.7816  0.9780
 2254TIP3   OH228176   0.262   5.291   4.077  0.3298  0.6349 -0.5586
 2254TIP3    H128177   0.206   5.312   4.002 -0.6735 -1.1571 -0.3820
 2254TIP3    H228178   0.325   5.228   4.043  0.8481  0.9806 -0.2427
 2255TIP3   OH228179   0.710   2.753  16.839 -0.0919 -0.3529 -0.3239
 2255TIP3    H128180   0.805   2.742  16.837  0.1070  1.1620  0.2224
 2255TIP3    H228181   0.679   2.683  16.897  0.8291  0.0318  0.6583
 2256TIP3   OH228182   1.579   0.620   2.388 -0.4343  0.4735  0.5688
 2256TIP3    H128183   1.631   0.629   2.308 -0.1247 -0.0517  0.7036
 2256TIP3    H228184   1.575   0.526   2.403 -2.0952  0.4354  0.1339
 2257TIP3   OH228185   0.266   3.061  13.527  0.0333 -0.7664  0.4069
 2257TIP3    H128186   0.316   3.138  13.555 -1.1983  0.2940 -0.2122
 2257TIP3    H228187   0.261   3.069  13.432  0.7411 -2.1625  0.2408
 2258TIP3   OH228188   6.750   5.840  13.199  0.2924  0.2844  0.1688
 2258TIP3    H128189   6.794   5.861  13.281 -0.9481  2.1995  0.4175
 2258TIP3    H228190   6.803   5.883  13.131  3.2616 -4.0379 -0.6127
 2259TIP3   OH228191   5.148   1.084   6.098 -0.1176  0.4469  0.9781
 2259TIP3    H128192   5.057   1.057   6.113 -0.4335  0.5166 -0.6446
 2259TIP3    H228193   5.147   1.179   6.109 -0.6228  0.6575 -0.6326
 2260TIP3   OH228194   2.398   4.706  12.474  0.3716 -0.1808  0.2420
 2260TIP3    H128195   2.393   4.801  12.488  2.3525 -0.0173  0.2010
 2260TIP3    H228196   2.310   4.681  12.447 -1.2186  1.0173  3.8073
 2261TIP3   OH228197   0.529   0.278   3.736 -0.6470 -0.2195 -0.1044
 2261TIP3    H128198   0.544   0.243   3.824  1.3525  1.6543  0.3749
 2261TIP3    H228199   0.571   0.214   3.678  0.2607 -0.2232  0.5263
 2262TIP3   OH228200   0.852   0.697   0.226 -0.7021  0.6646 -0.2108
 2262TIP3    H128201   0.946   0.688   0.209 -0.7675 -0.4379 -0.0393
 2262TIP3    H228202   0.841   0.662   0.314 -1.2507  0.9787 -0.1542
 2263TIP3   OH228203   5.200   0.330  15.521 -0.4554  0.3904  0.5238
 2263TIP3    H128204   5.119   0.355  15.565 -0.9585  0.4357 -0.4157
 2263TIP3    H228205   5.251   0.411  15.517 -0.1909  0.2836  1.4455
 2264TIP3   OH228206   5.647   4.394   4.386 -0.0809 -1.0440 -0.2342
 2264TIP3    H128207   5.668   4.473   4.435 -2.1541 -0.1142 -0.7199
 2264TIP3    H228208   5.715   4.331   4.410  0.7209  0.3752  1.3731
 2265TIP3   OH228209   0.650   6.530   6.031  0.3444  0.3393  0.3168
 2265TIP3    H128210   0.558   6.537   6.055  0.3487  1.1514  0.1010
 2265TIP3    H228211   0.649   6.510   5.937  0.3910  0.1922  0.3467
 2266TIP3   OH228212   0.361   0.620  11.574 -0.0935 -0.3053  0.2743
 2266TIP3    H128213   0.455   0.634  11.575  0.3134 -2.2225 -1.8677
 2266TIP3    H228214   0.350   0.525  11.580 -2.0510 -0.0189  2.8731
 2267TIP3   OH228215   4.750   1.866  11.232 -0.0104  0.1806  0.5740
 2267TIP3    H128216   4.797   1.877  11.149 -1.7991  1.3181 -0.3426
 2267TIP3    H228217   4.759   1.950  11.277  0.8231 -0.3821  1.4966
 2268TIP3   OH228218   2.807   3.286   1.986  0.2632  0.0232 -0.1150
 2268TIP3    H128219   2.755   3.366   1.994  0.1024 -0.1629  0.7799
 2268TIP3    H228220   2.884   3.312   1.935 -0.7494  0.2805 -1.5705
 2269TIP3   OH228221   3.121   1.957   0.423 -0.0322  0.2796  0.2023
 2269TIP3    H128222   3.208   1.996   0.430  0.8244 -1.2341 -1.0704
 2269TIP3    H228223   3.085   1.962   0.511  0.6988  2.3176  0.4410
 2270TIP3   OH228224   3.837   6.716   5.998  0.9153 -0.2539  0.3581
 2270TIP3    H128225   3.907   6.653   5.977 -0.9807 -2.1782 -0.5208
 2270TIP3    H228226   3.756   6.669   5.981 -0.6436  2.1131  0.7580
 2271TIP3   OH228227   3.996   3.540   5.823  0.0322 -0.1717 -0.5643
 2271TIP3    H128228   3.955   3.470   5.874  0.0569 -1.3236 -2.0523
 2271TIP3    H228229   3.975   3.620   5.871  0.5932 -1.2224  1.5775
 2272TIP3   OH228230   0.045   0.176  12.707  0.7003 -0.1527  0.1890
 2272TIP3    H128231   0.095   0.135  12.637  0.4636  0.3771 -0.3003
 2272TIP3    H228232  -0.023   0.112  12.728  0.2331  0.0287 -0.6848
 2273TIP3   OH228233   1.724   3.081  16.431  0.0417  0.2164 -0.1500
 2273TIP3    H128234   1.675   3.154  16.469 -0.6132 -0.0882 -0.3957
 2273TIP3    H228235   1.715   3.092  16.337  2.1094  1.2742 -0.2742
 2274TIP3   OH228236   0.687   4.098  15.637  0.4109 -0.5486 -0.4120
 2274TIP3    H128237   0.616   4.156  15.608  0.0615 -1.2546 -1.0207
 2274TIP3    H228238   0.651   4.052  15.713  0.1644 -0.9932 -0.7932
 2275TIP3   OH228239   2.142   4.688   2.645 -0.7334  0.8545 -0.3712
 2275TIP3    H128240   2.060   4.681   2.695 -1.3978  1.5270 -1.3409
 2275TIP3    H228241   2.152   4.602   2.604 -0.3573  0.4061  0.6176
 2276TIP3   OH228242   0.288   6.624  13.254 -0.1799  0.4320  0.1809
 2276TIP3    H128243   0.315   6.715  13.241  0.5503  0.2318  0.3006
 2276TIP3    H228244   0.267   6.592  13.167 -0.3807  0.6950  0.1315
 2277TIP3   OH228245   2.128   3.738   5.714  0.4449 -0.1484  0.2628
 2277TIP3    H128246   2.167   3.691   5.640  0.9717  0.6992 -0.0094
 2277TIP3    H228247   2.194   3.804   5.737 -1.4018  2.3630 -1.1962
 2278TIP3   OH228248   1.653   3.005  16.930  0.6123  0.0059 -0.2538
 2278TIP3    H128249   1.618   2.924  16.893  2.7215 -1.3903  0.6029
 2278TIP3    H228250   1.748   2.992  16.932  1.0205  2.4948 -0.0151
 2279TIP3   OH228251   0.589   4.547   4.300  0.3770 -0.0044  0.0897
 2279TIP3    H128252   0.626   4.529   4.213  2.6670 -0.9895  1.1866
 2279TIP3    H228253   0.504   4.588   4.282  0.9557  0.1877 -2.5981
 2280TIP3   OH228254   3.863   4.062   1.795  0.0931  0.3428  0.2552
 2280TIP3    H128255   3.833   4.153   1.790  0.5177  0.4551 -0.4115
 2280TIP3    H228256   3.951   4.064   1.759  0.1847 -0.3014  0.4381
 2281TIP3   OH228257   2.437   4.462  12.211  0.1834  0.2200  0.1247
 2281TIP3    H128258   2.385   4.537  12.182 -1.2997 -0.2315  1.4709
 2281TIP3    H228259   2.483   4.493  12.289 -2.4537 -0.8956  2.2709
 2282TIP3   OH228260   1.005   6.041   4.012 -0.0338  0.6545  0.0241
 2282TIP3    H128261   0.959   5.977   4.067  1.1472 -0.4437 -0.2150
 2282TIP3    H228262   0.999   6.123   4.061 -2.0659  0.5385  0.0782
 2283TIP3   OH228263   3.812   5.095  15.428  0.0355  0.1682  0.1637
 2283TIP3    H128264   3.887   5.144  15.394  0.1328  0.9445  1.4272
 2283TIP3    H228265   3.775   5.152  15.496 -1.3438 -0.4588 -0.0241
 2284TIP3   OH228266   6.737   0.588   3.117 -0.4601  0.1118 -0.3578
 2284TIP3    H128267   6.725   0.493   3.121  0.6527 -0.0094  1.0134
 2284TIP3    H228268   6.699   0.620   3.199 -1.6229  0.9785 -1.2080
 2285TIP3   OH228269   3.896   5.878  13.241  0.3918  0.1076 -0.0630
 2285TIP3    H128270   3.913   5.840  13.154 -4.0354 -0.6456 -0.8618
 2285TIP3    H228271   3.856   5.963  13.222 -0.5906 -0.0513  1.1931
 2286TIP3   OH228272   5.321   4.846  13.532 -0.4547  0.1794  0.3059
 2286TIP3    H128273   5.230   4.872  13.512 -0.4734  0.5563  0.8584
 2286TIP3    H228274   5.312   4.781  13.601 -0.3315 -0.2382 -0.0706
 2287TIP3   OH228275   1.560   1.941   4.216  0.3015 -0.2720 -0.3914
 2287TIP3    H128276   1.470   1.921   4.240  0.2104 -0.6386 -1.0193
 2287TIP3    H228277   1.609   1.861   4.236  0.8852  0.5491  1.8240
 2288TIP3   OH228278   5.365   1.088   1.170 -0.4197 -0.0766 -0.2914
 2288TIP3    H128279   5.283   1.048   1.201 -1.0242  0.8081 -0.7096
 2288TIP3    H228280   5.431   1.058   1.233 -1.0247 -0.9333 -0.0333
 2289TIP3   OH228281   6.489   0.325   3.300 -0.2494 -0.1319 -0.0097
 2289TIP3    H128282   6.560   0.305   3.239  1.0925 -1.2977  1.8384
 2289TIP3    H228283   6.441   0.242   3.309 -0.5903  0.0998  0.3430
 2290TIP3   OH228284   1.357   5.262   2.619  0.2086 -0.1535  0.1031
 2290TIP3    H128285   1.442   5.301   2.601  0.9544 -1.8896 -0.3532
 2290TIP3    H228286   1.297   5.306   2.559  0.0229  3.4252  2.5860
 2291TIP3   OH228287   3.138   4.609  14.887  0.1927  0.3363 -0.0818
 2291TIP3    H128288   3.096   4.552  14.823 -1.1858 -1.9819  2.6494
 2291TIP3    H228289   3.066   4.654  14.931  1.0053  0.9518  0.6606
 2292TIP3   OH228290   2.170   5.496  11.403  0.1849  0.4787  0.4830
 2292TIP3    H128291   2.246   5.555  11.402 -0.9442  2.0060  0.8760
 2292TIP3    H228292   2.115   5.530  11.474  0.3358 -2.2191  2.0286
 2293TIP3   OH228293   4.466   5.665   2.353  0.1911 -0.0988  0.4179
 2293TIP3    H128294   4.492   5.612   2.278 -0.1875  0.2429  0.0388
 2293TIP3    H228295   4.376   5.637   2.372 -0.2514  0.8611 -0.2034
 2294TIP3   OH228296   6.053   0.318   4.404  0.8621 -0.1886 -0.4192
 2294TIP3    H128297   6.085   0.248   4.348  1.7778 -0.0315 -0.1104
 2294TIP3    H228298   5.963   0.294   4.425  0.7391 -0.5907 -1.3951
 2295TIP3   OH228299   4.882   1.169   3.764 -0.2950  0.2491  0.1587
 2295TIP3    H128300   4.801   1.147   3.810  0.9700 -1.5791  1.7024
 2295TIP3    H228301   4.938   1.093   3.777  1.3719  1.0746 -1.6366
 2296TIP3   OH228302   3.711   6.181   1.944  0.0740 -0.4121 -0.1171
 2296TIP3    H128303   3.772   6.245   1.981  1.0830 -1.4534  0.0864
 2296TIP3    H228304   3.634   6.186   2.000  0.0968  0.6703 -0.1535
 2297TIP3   OH228305   2.464   4.734  13.092 -0.1939 -0.2597  0.3416
 2297TIP3    H128306   2.438   4.790  13.165 -0.7102  1.0078 -0.7795
 2297TIP3    H228307   2.533   4.678  13.128  0.7685  1.5064  1.3594
 2298TIP3   OH228308   0.239   3.373   3.723 -0.3772  0.9943 -0.0273
 2298TIP3    H128309   0.253   3.430   3.648 -0.3098  0.4408 -0.4467
 2298TIP3    H228310   0.317   3.318   3.726 -0.3036  1.1266  0.5545
 2299TIP3   OH228311   5.457   2.673  11.466  0.4771 -0.0171  0.2227
 2299TIP3    H128312   5.445   2.763  11.434  1.2393 -0.7882 -2.5913
 2299TIP3    H228313   5.372   2.648  11.501  0.0245  1.5204  0.2954
 2300TIP3   OH228314   4.831   1.540  16.794  0.5134  0.4038  0.1084
 2300TIP3    H128315   4.807   1.559  16.885 -0.1149  0.9935 -0.1745
 2300TIP3    H228316   4.883   1.615  16.767 -0.5517  0.9465 -0.4801
 2301TIP3   OH228317   5.198   1.120  13.292  0.2338 -0.3709  0.0941
 2301TIP3    H128318   5.189   1.134  13.198  0.2187 -0.0820  0.1373
 2301TIP3    H228319   5.292   1.122  13.308  0.4092 -2.6750 -0.2498
 2302TIP3   OH228320   0.553   5.866   3.693  0.5861  0.1954 -0.6427
 2302TIP3    H128321   0.523   5.776   3.683  1.1376  0.0979 -1.5542
 2302TIP3    H228322   0.474   5.915   3.719  0.5702 -0.7626  1.3084
 2303TIP3   OH228323   4.032   1.340   3.079  0.4766 -0.0723  0.2756
 2303TIP3    H128324   3.957   1.355   3.021  0.0910  2.0569  1.2247
 2303TIP3    H228325   4.011   1.259   3.125 -0.4163 -0.4227 -0.7093
 2304TIP3   OH228326   5.003   2.305   5.666  0.0798 -0.1467  0.5160
 2304TIP3    H128327   5.025   2.255   5.744 -0.1518 -0.1566  0.5749
 2304TIP3    H228328   4.952   2.379   5.699  0.7446  0.3421  0.4741
 2305TIP3   OH228329   1.468   2.859   5.987 -0.5203 -0.6705  0.7093
 2305TIP3    H128330   1.500   2.850   6.076 -0.2396 -1.3547  0.5425
 2305TIP3    H228331   1.403   2.929   5.992  1.2298  1.0239  0.9850
 2306TIP3   OH228332   3.773   0.110  14.536 -0.2348  0.2118  0.0996
 2306TIP3    H128333   3.696   0.056  14.555  0.3920  0.1000  2.7648
 2306TIP3    H228334   3.838   0.049  14.503 -0.0068 -0.4672  1.7233
 2307TIP3   OH228335   5.796   3.881  16.644 -0.0208  0.5629  0.3098
 2307TIP3    H128336   5.754   3.801  16.612 -2.8281  2.1811 -0.4625
 2307TIP3    H228337   5.871   3.893  16.587  0.6812 -1.6433  0.6658
 2308TIP3   OH228338   2.246   0.081  15.444 -0.4743  0.3459 -0.2841
 2308TIP3    H128339   2.312   0.111  15.507 -0.5067  1.5141 -0.7761
 2308TIP3    H228340   2.221   0.160  15.396 -3.1557  0.2023  0.7036
 2309TIP3   OH228341   4.077   2.269  11.318 -0.1870  0.0044  0.0235
 2309TIP3    H128342   4.073   2.202  11.385 -0.6876 -0.4763 -0.4677
 2309TIP3    H228343   4.062   2.222  11.236  0.8341  0.5114 -0.4720
 2310TIP3   OH228344   5.299   1.474  15.598  0.0369  0.4503  0.1938
 2310TIP3    H128345   5.321   1.385  15.572 -0.7739  0.1511  0.4907
 2310TIP3    H228346   5.219   1.465  15.650 -0.4258  1.4143 -0.3166
 2311TIP3   OH228347   3.496   1.255   3.047  0.2562 -0.0015 -0.1126
 2311TIP3    H128348   3.416   1.268   3.097  0.9919  0.3613  1.0066
 2311TIP3    H228349   3.475   1.286   2.959 -0.3329  1.6789  0.5867
 2312TIP3   OH228350   1.958   3.936   3.271 -0.6850 -0.1124 -0.0561
 2312TIP3    H128351   2.025   4.003   3.258 -1.1103  0.0122 -1.9680
 2312TIP3    H228352   1.983   3.891   3.352  0.1560  1.7054  0.7428
 2313TIP3   OH228353   0.015   4.609  15.792 -0.3012 -0.2243  0.3589
 2313TIP3    H128354  -0.035   4.681  15.831  0.4284  0.0492  0.7985
 2313TIP3    H228355   0.106   4.627  15.815 -0.1767 -1.7101  1.1813
 2314TIP3   OH228356   0.621   3.454   6.144 -0.5967  0.1496 -0.0040
 2314TIP3    H128357   0.637   3.533   6.093  2.0787 -1.1915 -1.5066
 2314TIP3    H228358   0.627   3.482   6.235  2.5941  1.4375 -0.4503
 2315TIP3   OH228359   2.897   3.721   4.032  0.2680 -0.2941 -0.0644
 2315TIP3    H128360   2.919   3.747   3.942  1.2459  2.4788  0.8903
 2315TIP3    H228361   2.965   3.761   4.086 -0.5052 -1.5842  1.9800
 2316TIP3   OH228362   4.309   1.594   4.137 -0.2968 -0.4058 -0.7084
 2316TIP3    H128363   4.255   1.586   4.216  0.7901  1.9717  0.4028
 2316TIP3    H228364   4.288   1.681   4.102  0.0110 -1.0038 -2.4736
 2317TIP3   OH228365   1.921   4.665   2.799  0.1986 -0.2326  0.7507
 2317TIP3    H128366   1.847   4.629   2.750  0.5965 -0.1007  0.0400
 2317TIP3    H228367   1.894   4.753   2.824  0.8491  0.5633 -1.2136
 2318TIP3   OH228368   4.001   5.345   5.580  0.5624  0.4016  0.0854
 2318TIP3    H128369   4.057   5.421   5.593 -1.0704  1.2416  3.0358
 2318TIP3    H228370   3.913   5.381   5.569 -0.2301 -0.9933  1.4089
 2319TIP3   OH228371   2.237   2.205   3.607 -0.0735  0.2272  0.5213
 2319TIP3    H128372   2.151   2.179   3.641 -1.1152  0.7557 -1.5453
 2319TIP3    H228373   2.263   2.132   3.550 -0.3585  1.1233 -0.8108
 2320TIP3   OH228374   0.237   4.400   2.492  0.4567 -0.1881  0.0343
 2320TIP3    H128375   0.267   4.432   2.576 -2.7129 -0.0928  1.2544
 2320TIP3    H228376   0.217   4.308   2.507 -1.8994  0.2697 -0.0311
 2321TIP3   OH228377   1.426   4.424   5.026  0.5653 -0.1262  0.2543
 2321TIP3    H128378   1.397   4.482   4.955  1.1954  0.1581  0.2275
 2321TIP3    H228379   1.348   4.371   5.047  0.4212 -0.3496 -0.7798
 2322TIP3   OH228380   3.435   2.013  12.210  0.1839 -0.2265  0.3562
 2322TIP3    H128381   3.452   2.067  12.286  0.4127  0.0825  0.0920
 2322TIP3    H228382   3.342   1.991  12.214  0.2025 -0.2274  0.7306
 2323TIP3   OH228383   5.857   2.868  16.722 -0.5754 -0.1841  0.0162
 2323TIP3    H128384   5.785   2.929  16.742  0.2335  1.0963 -0.8026
 2323TIP3    H228385   5.868   2.874  16.627  1.0767  0.2436  0.1947
 2324TIP3   OH228386   2.346   4.783   3.095 -0.1851 -0.2180 -0.1155
 2324TIP3    H128387   2.363   4.863   3.144  2.3599 -1.4352  1.2234
 2324TIP3    H228388   2.255   4.761   3.115  0.2713  0.1956  2.9171
 2325TIP3   OH228389   3.555   2.882   0.386 -0.6941  0.4849 -0.2085
 2325TIP3    H128390   3.628   2.850   0.439  0.7471  0.8319 -1.8694
 2325TIP3    H228391   3.477   2.847   0.427  0.6299 -3.6116 -0.7877
 2326TIP3   OH228392   1.018   4.765  10.958  0.2308 -0.5822  0.3361
 2326TIP3    H128393   1.096   4.821  10.966 -0.9168  1.3465 -0.9762
 2326TIP3    H228394   1.022   4.732  10.868 -2.1772  2.5416 -1.1438
 2327TIP3   OH228395   0.954   3.832   2.787 -0.2508  0.2834  0.1954
 2327TIP3    H128396   1.008   3.909   2.766 -0.3781  0.0749 -0.9566
 2327TIP3    H228397   0.966   3.820   2.881  0.5500  1.1233  0.2214
 2328TIP3   OH228398   3.606   0.545   5.320 -0.5866  0.1001 -0.0402
 2328TIP3    H128399   3.513   0.529   5.305 -1.3893  0.8408  3.4126
 2328TIP3    H228400   3.641   0.461   5.348 -0.2518 -0.0837 -0.9632
 2329TIP3   OH228401   4.885   4.735   3.941  0.2931  0.0535  0.3168
 2329TIP3    H128402   4.925   4.822   3.942 -0.2746  0.5062 -3.2768
 2329TIP3    H228403   4.795   4.750   3.911  0.1275 -1.7528 -0.2033
 2330TIP3   OH228404   1.814   1.068   3.162 -0.0454  0.8644  0.3450
 2330TIP3    H128405   1.820   1.149   3.110 -1.8552  1.8316  1.5172
 2330TIP3    H228406   1.895   1.066   3.212  0.9325  0.8530 -1.2030
 2331TIP3   OH228407   1.451   4.534  12.705 -0.1313  0.8688 -0.3165
 2331TIP3    H128408   1.431   4.596  12.634  0.1258  2.1891  0.7183
 2331TIP3    H228409   1.367   4.496  12.728 -0.5754  2.0688  0.1203
 2332TIP3   OH228410   6.232   5.005   1.951 -0.0562 -0.0166  0.1259
 2332TIP3    H128411   6.282   5.046   1.880  3.1584 -0.0920  2.1252
 2332TIP3    H228412   6.217   5.076   2.014 -0.3407 -0.5120  0.6296
 2333TIP3   OH228413   5.659   0.512  12.193  0.4876  0.2424 -0.1960
 2333TIP3    H128414   5.750   0.494  12.168  1.1917  0.9246  1.6797
 2333TIP3    H228415   5.619   0.546  12.113  2.2408  1.1159 -0.7717
 2334TIP3   OH228416   4.827   2.991  15.986  0.3664 -0.0947  0.6101
 2334TIP3    H128417   4.899   3.046  15.956  0.5315 -0.1755  0.8490
 2334TIP3    H228418   4.834   2.994  16.082 -0.6116  0.7673  0.6660
 2335TIP3   OH228419   6.002   6.724   1.168 -0.2047  0.6077  0.6826
 2335TIP3    H128420   5.963   6.770   1.242 -1.0733 -1.3235  1.5086
 2335TIP3    H228421   5.930   6.715   1.105  1.0948  4.4098 -1.6728
 2336TIP3   OH228422   5.431   5.213  16.373  0.0232  0.4217  0.1419
 2336TIP3    H128423   5.402   5.156  16.445 -0.6302 -1.0687 -1.2467
 2336TIP3    H228424   5.491   5.275  16.415  1.1273 -1.5602  1.6446
 2337TIP3   OH228425   6.535   4.834  15.043 -0.2068  0.6867  0.2094
 2337TIP3    H128426   6.516   4.774  14.972  0.9873  0.0052  0.4331
 2337TIP3    H228427   6.625   4.864  15.026 -0.9809  2.8909 -0.2214
 2338TIP3   OH228428   1.558   1.087   3.991  0.2242  0.3117  0.1868
 2338TIP3    H128429   1.615   1.144   3.941  1.3116  0.3285  1.3739
 2338TIP3    H228430   1.616   1.018   4.024 -0.8014 -0.7153 -0.0962
 2339TIP3   OH228431   2.638   3.551   4.126  0.5418 -0.6005 -0.3202
 2339TIP3    H128432   2.669   3.471   4.168  0.1713 -0.4521  0.2520
 2339TIP3    H228433   2.710   3.613   4.134  0.5291 -0.6210 -0.0226
 2340TIP3   OH228434   3.005   3.203  13.486  0.1535  0.1407 -0.0136
 2340TIP3    H128435   3.010   3.199  13.581 -0.2179  0.8306  0.0351
 2340TIP3    H228436   3.011   3.296  13.465  0.4326 -0.0178 -0.6795
 2341TIP3   OH228437   1.857   3.426  13.550 -0.3519  0.7250 -0.1755
 2341TIP3    H128438   1.851   3.478  13.630  0.1515 -2.6907  2.3451
 2341TIP3    H228439   1.948   3.433  13.522  0.0767  0.1405  1.0011
 2342TIP3   OH228440   2.985   3.949   1.578  0.1594 -0.1937 -0.7501
 2342TIP3    H128441   2.999   4.030   1.529  0.0350 -1.2857 -2.7216
 2342TIP3    H228442   2.892   3.930   1.567  0.0740 -0.3463  0.1481
 2343TIP3   OH228443   3.524   0.859   5.130  0.1803  0.0660  0.0533
 2343TIP3    H128444   3.481   0.894   5.052 -0.8435 -2.6013 -0.6601
 2343TIP3    H228445   3.456   0.860   5.197  0.5913  0.8172  0.4703
 2344TIP3   OH228446   1.277   1.669  10.350 -0.1482  0.5318  0.0090
 2344TIP3    H128447   1.296   1.585  10.391  0.8901  1.2215  0.9984
 2344TIP3    H228448   1.198   1.653  10.298 -1.2626 -0.5011  1.9088
 2345TIP3   OH228449   4.443   2.437  14.459  0.3718  0.1305 -0.6361
 2345TIP3    H128450   4.530   2.432  14.498  0.0613 -1.8111 -0.0900
 2345TIP3    H228451   4.459   2.464  14.368  1.5550 -0.2564 -0.5583
 2346TIP3   OH228452   3.492   0.490  14.780  0.5483  0.1960 -0.0644
 2346TIP3    H128453   3.438   0.422  14.821 -1.8377 -0.1934 -3.4134
 2346TIP3    H228454   3.545   0.443  14.716  1.0097  1.1697 -0.4189
 2347TIP3   OH228455   5.442   1.232  11.332  0.0668 -0.3837 -0.5124
 2347TIP3    H128456   5.357   1.190  11.344 -0.5317  0.5566 -1.3132
 2347TIP3    H228457   5.448   1.247  11.238  0.3631  1.1106 -0.2786
 2348TIP3   OH228458   5.792   1.324  12.755  0.5325  0.2460  0.6465
 2348TIP3    H128459   5.860   1.302  12.691  0.0340 -1.6126  0.7209
 2348TIP3    H228460   5.837   1.318  12.840  0.5108 -0.0415  0.6383
 2349TIP3   OH228461   6.190   4.571  14.922  0.0716  0.3704  0.1664
 2349TIP3    H128462   6.137   4.561  14.843  1.0519 -2.1899 -0.2620
 2349TIP3    H228463   6.141   4.632  14.976 -0.8963  1.7997 -2.1776
 2350TIP3   OH228464   1.143   1.997  13.708  0.2549 -0.5485  0.0149
 2350TIP3    H128465   1.223   1.989  13.759 -0.7976 -1.6356  1.5984
 2350TIP3    H228466   1.085   2.051  13.763 -0.5129 -0.7853 -0.5522
 2351TIP3   OH228467   5.839   1.992  15.439  1.0352 -0.2859 -0.0680
 2351TIP3    H128468   5.834   2.000  15.535  0.8132  1.0777 -0.1717
 2351TIP3    H228469   5.756   1.950  15.415  0.9120 -0.2726  0.3139
 2352TIP3   OH228470   6.751   0.387  13.933  0.0862  0.2101 -0.0297
 2352TIP3    H128471   6.750   0.292  13.926 -0.5701  0.3216 -1.9425
 2352TIP3    H228472   6.660   0.410  13.954  0.1733  0.4414  0.0987
 2353TIP3   OH228473   3.923   3.148   1.930 -0.0310 -0.2859 -0.2924
 2353TIP3    H128474   3.969   3.072   1.893  0.1874  0.0711 -0.7602
 2353TIP3    H228475   3.976   3.173   2.005  0.8613  0.4632 -1.1487
 2354TIP3   OH228476   6.456   1.094  13.371 -0.0951  0.0192 -0.2349
 2354TIP3    H128477   6.514   1.138  13.434  0.4960  2.6140 -2.4285
 2354TIP3    H228478   6.515   1.066  13.300 -1.2431  1.1861 -1.7064
 2355TIP3   OH228479   2.170   6.015   4.054 -0.0855  0.0725  0.3732
 2355TIP3    H128480   2.210   5.991   4.138 -0.4550 -0.7612  0.3212
 2355TIP3    H228481   2.119   6.093   4.073  0.4569  0.3455  0.7480
 2356TIP3   OH228482   0.793   0.872  16.200 -0.4071  0.0924 -0.2578
 2356TIP3    H128483   0.885   0.884  16.176  0.0297  1.9268  1.9952
 2356TIP3    H228484   0.753   0.958  16.189 -1.9792 -0.7058 -1.3822
 2357TIP3   OH228485   4.101   5.939  17.038 -0.0042  0.2959 -0.4492
 2357TIP3    H128486   4.159   5.933  17.113 -2.0234 -0.4050  1.1613
 2357TIP3    H228487   4.093   6.033  17.022  1.7867  0.3949 -0.9405
 2358TIP3   OH228488   5.984   4.590   5.709 -0.1697 -0.1347 -0.4342
 2358TIP3    H128489   6.057   4.581   5.771 -0.1162 -2.6130 -0.7525
 2358TIP3    H228490   6.017   4.650   5.642  1.4212 -0.7935 -0.2930
 2359TIP3   OH228491   1.389   1.479  17.133  0.0416 -0.0543  0.6148
 2359TIP3    H128492   1.433   1.541  17.193 -0.0318  0.1104  0.4981
 2359TIP3    H228493   1.320   1.440  17.186  0.6593 -0.7035  0.9589
 2360TIP3   OH228494   2.393   0.721   5.595  0.1002 -0.3623 -0.0868
 2360TIP3    H128495   2.307   0.681   5.581  0.8419 -1.6656 -1.1387
 2360TIP3    H228496   2.382   0.811   5.564 -1.3877  0.0947  1.6150
 2361TIP3   OH228497   6.257   1.640   3.624 -0.1237 -0.4648 -0.2307
 2361TIP3    H128498   6.186   1.665   3.565  0.6678  0.0924 -0.9706
 2361TIP3    H228499   6.322   1.710   3.614  0.5490 -0.9850  0.4042
 2362TIP3   OH228500   0.233   6.259   6.112 -0.0532  0.4977  0.3568
 2362TIP3    H128501   0.187   6.303   6.041  0.0685 -1.7195 -1.2038
 2362TIP3    H228502   0.185   6.285   6.191 -3.1477 -0.5256 -1.0340
 2363TIP3   OH228503   4.459   0.279  12.554  0.5856 -0.0228  0.3609
 2363TIP3    H128504   4.389   0.242  12.608 -0.3482  0.3205 -0.5595
 2363TIP3    H228505   4.514   0.328  12.615 -0.0748 -0.1632  1.0840
 2364TIP3   OH228506   0.796   1.664  16.844  0.0565  0.5055  0.1408
 2364TIP3    H128507   0.868   1.714  16.884 -0.0960  1.4086 -0.6809
 2364TIP3    H228508   0.786   1.702  16.757  0.4493 -1.4811 -0.8326
 2365TIP3   OH228509   4.472   4.936   1.819  0.4543  0.5556 -0.1707
 2365TIP3    H128510   4.376   4.936   1.823  0.3788  0.7354 -1.6376
 2365TIP3    H228511   4.496   4.844   1.828  0.1223  0.4611 -0.2235
 2366TIP3   OH228512   3.649   0.892   2.094  0.3498  0.3106 -0.2326
 2366TIP3    H128513   3.677   0.864   2.181  0.6701 -0.1675 -0.4835
 2366TIP3    H228514   3.658   0.814   2.039 -0.6344  0.3828 -0.5186
 2367TIP3   OH228515   1.659   3.287   1.831 -0.1959  0.3500 -0.1167
 2367TIP3    H128516   1.698   3.268   1.746 -1.1011 -0.7901 -0.3038
 2367TIP3    H228517   1.721   3.254   1.895 -0.7955 -1.4512 -0.4112
 2368TIP3   OH228518   6.320   5.820   4.633 -0.0851  0.6743 -0.6142
 2368TIP3    H128519   6.282   5.744   4.675 -0.1410  0.4913 -0.9893
 2368TIP3    H228520   6.379   5.857   4.699 -0.8550  0.9296 -0.0509
 2369TIP3   OH228521   2.042   6.576  16.137  0.0508  0.3529 -0.4456
 2369TIP3    H128522   2.053   6.552  16.229  0.8689  0.9786 -0.3672
 2369TIP3    H228523   2.131   6.595  16.107 -0.1862 -0.0665 -1.4278
 2370TIP3   OH228524   6.341   2.239  11.040 -0.1867 -0.2573 -0.8764
 2370TIP3    H128525   6.417   2.194  11.001  2.0090  0.5340  2.1555
 2370TIP3    H228526   6.361   2.332  11.031  1.2371  0.0242  3.1448
 2371TIP3   OH228527   3.030   5.329  14.781 -0.0309 -0.2947 -0.5908
 2371TIP3    H128528   3.087   5.276  14.837  0.3369  0.7057  0.0122
 2371TIP3    H228529   3.068   5.322  14.694 -0.4424 -1.6369 -0.6778
 2372TIP3   OH228530   3.275   4.548   4.627  0.3739 -0.4969 -0.6755
 2372TIP3    H128531   3.250   4.492   4.700 -1.6602 -0.5632 -1.3554
 2372TIP3    H228532   3.287   4.635   4.666 -1.8451 -0.2727 -0.3669
 2373TIP3   OH228533   6.606   3.667   4.167  0.0550  0.7521  0.2596
 2373TIP3    H128534   6.643   3.583   4.192  0.5577  1.0454  0.5053
 2373TIP3    H228535   6.511   3.652   4.167  0.1649  0.0181 -0.3215
 2374TIP3   OH228536   4.873   1.112  12.522 -0.1030 -0.2161 -0.0398
 2374TIP3    H128537   4.794   1.068  12.554 -0.1034 -0.3238 -0.1895
 2374TIP3    H228538   4.870   1.102  12.427 -2.2441  3.6204 -0.5858
 2375TIP3   OH228539   2.106   4.283   5.780  0.0524 -0.1358  0.0920
 2375TIP3    H128540   2.056   4.261   5.859 -0.4815  3.1354  0.7984
 2375TIP3    H228541   2.195   4.296   5.811 -0.2044  1.3849  0.2288
 2376TIP3   OH228542   4.662   4.494  16.407 -0.4244 -0.7786  0.7501
 2376TIP3    H128543   4.713   4.553  16.463  0.0387 -0.7107  0.2678
 2376TIP3    H228544   4.727   4.434  16.371 -0.6506 -0.5584 -0.0369
 2377TIP3   OH228545   5.667   0.265  15.348 -0.1772  0.1125 -0.2184
 2377TIP3    H128546   5.588   0.264  15.402  0.1675  1.3266  0.3485
 2377TIP3    H228547   5.711   0.347  15.370  2.3502 -1.4497  1.0731
 2378TIP3   OH228548   2.186   2.839  11.775  0.4126 -0.3902  0.2020
 2378TIP3    H128549   2.183   2.876  11.687  0.0272 -0.3627  0.2269
 2378TIP3    H228550   2.095   2.820  11.797  0.3352  0.9790  1.1720
 2379TIP3   OH228551   5.992   0.392   4.150 -0.1734 -0.2194  0.2939
 2379TIP3    H128552   6.045   0.382   4.071 -1.1805  2.2818 -0.8254
 2379TIP3    H228553   6.052   0.431   4.214  0.2199 -0.6662  0.2032
 2380TIP3   OH228554   5.886   1.550   0.276 -0.0757  0.1394  0.0993
 2380TIP3    H128555   5.949   1.546   0.348 -0.3708 -0.4989  0.3310
 2380TIP3    H228556   5.869   1.459   0.255 -1.6317  0.2714  0.6695
 2381TIP3   OH228557   2.022   1.428  11.375 -0.3950  0.6353 -0.0263
 2381TIP3    H128558   1.945   1.396  11.423 -1.3634 -1.6057 -2.8433
 2381TIP3    H228559   2.077   1.351  11.363  0.3614  1.3644 -1.4831
 2382TIP3   OH228560   1.495   1.308  14.538 -0.4333 -0.5034  0.1490
 2382TIP3    H128561   1.461   1.370  14.474  0.2796  0.5133  0.7186
 2382TIP3    H228562   1.431   1.237  14.540 -0.7772 -0.2442 -1.2093
 2383TIP3   OH228563   2.509   1.018  14.155 -0.0764 -0.0814 -0.0088
 2383TIP3    H128564   2.461   0.961  14.216  2.8182 -0.7555  1.8347
 2383TIP3    H228565   2.573   0.961  14.114 -0.8148  0.7641 -2.4706
 2384TIP3   OH228566   5.419   6.713   6.626  0.1828  0.2837  0.2247
 2384TIP3    H128567   5.351   6.694   6.561 -0.0024 -0.0663  0.5141
 2384TIP3    H228568   5.459   6.628   6.644  0.7125  0.4882  0.0473
 2385TIP3   OH228569   1.327   6.015   1.251 -0.2429  0.0469  0.7502
 2385TIP3    H128570   1.322   6.100   1.208  2.3092  0.1149  0.4557
 2385TIP3    H228571   1.357   6.034   1.340  0.8142 -0.5518  0.5366
 2386TIP3   OH228572   0.239   0.405  13.749 -1.2996 -0.6438  0.3384
 2386TIP3    H128573   0.224   0.470  13.817 -1.0783 -1.6580  1.3958
 2386TIP3    H228574   0.159   0.406  13.696 -1.2654  0.5139  0.2947
 2387TIP3   OH228575   0.254   2.555  13.221  0.6057 -0.1354 -0.2330
 2387TIP3    H128576   0.335   2.504  13.214  2.1062  1.9972  0.6381
 2387TIP3    H228577   0.273   2.636  13.174 -1.2352  0.2347 -0.4223
 2388TIP3   OH228578   2.949   0.150   4.411 -0.0537  0.1890 -0.6115
 2388TIP3    H128579   3.021   0.088   4.426 -0.0903  0.1889 -0.4395
 2388TIP3    H228580   2.926   0.182   4.498 -1.2305 -0.9056 -0.4842
 2389TIP3   OH228581   3.606   3.978   4.845 -0.0529 -0.0370  0.2129
 2389TIP3    H128582   3.644   3.890   4.847  1.2497  0.5294  1.2937
 2389TIP3    H228583   3.657   4.025   4.778  0.1203  0.2765  0.5650
 2390TIP3   OH228584   5.778   5.684   6.131 -0.7200  0.0552  0.0530
 2390TIP3    H128585   5.863   5.707   6.092 -1.7398  1.6431 -1.3851
 2390TIP3    H228586   5.796   5.607   6.185  1.5793  0.2076 -0.4019
 2391TIP3   OH228587   6.078   3.150   3.573  0.2653 -0.4407  0.2276
 2391TIP3    H128588   6.119   3.204   3.641  1.0571  2.9359 -2.6429
 2391TIP3    H228589   5.988   3.183   3.568  0.7451  0.7072 -1.5423
 2392TIP3   OH228590   5.683   0.048   3.818  0.0518  0.2351  0.3236
 2392TIP3    H128591   5.728   0.107   3.757  0.6703 -1.6519 -1.1598
 2392TIP3    H228592   5.605   0.020   3.771 -0.4395  0.1500  1.1709
 2393TIP3   OH228593   0.758   3.239  15.576  0.1121  0.1429  0.0041
 2393TIP3    H128594   0.699   3.178  15.530 -0.1965  1.0071 -0.7878
 2393TIP3    H228595   0.726   3.239  15.666 -0.8047  0.2143 -0.3046
 2394TIP3   OH228596   3.095   3.091  12.321  0.0750 -0.1301 -0.0810
 2394TIP3    H128597   3.064   3.093  12.231 -0.1475 -0.7368 -0.0265
 2394TIP3    H228598   3.142   3.174  12.333  0.5679 -0.2757 -0.9143
 2395TIP3   OH228599   3.850   4.612  15.661  0.1273 -0.1792  0.0697
 2395TIP3    H128600   3.825   4.524  15.687 -1.0875  0.0130 -0.4014
 2395TIP3    H228601   3.821   4.669  15.732  1.8342 -0.2355  0.8659
 2396TIP3   OH228602   1.008   1.688  12.599  0.8641 -0.4585 -0.2487
 2396TIP3    H128603   0.954   1.716  12.673  1.2907  0.5940 -0.3212
 2396TIP3    H228604   1.019   1.593  12.612 -0.2729 -0.5393  0.2255
 2397TIP3   OH228605   0.357   4.939   2.916 -0.0903  0.0783  0.7327
 2397TIP3    H128606   0.411   4.970   2.989  1.2804 -2.1312  0.7583
 2397TIP3    H228607   0.325   4.854   2.945 -0.9374 -0.0795 -0.5909
 2398TIP3   OH228608   1.402   1.507   3.454 -0.1652  0.5012  0.3845
 2398TIP3    H128609   1.477   1.498   3.397 -0.9889  0.7757 -0.7717
 2398TIP3    H228610   1.439   1.507   3.543  1.2217  1.0417 -0.1711
 2399TIP3   OH228611   0.432   1.798  13.033 -0.5338  0.1356  0.5248
 2399TIP3    H128612   0.389   1.790  12.948  1.2969 -0.9665 -0.3629
 2399TIP3    H228613   0.362   1.787  13.097 -1.4131 -3.0299 -0.8205
 2400TIP3   OH228614   2.051   6.580  16.953  0.6286  0.2071 -0.3345
 2400TIP3    H128615   2.056   6.668  16.915  0.9023  0.3685  0.0712
 2400TIP3    H228616   1.958   6.558  16.949  0.2716  1.2607  1.2058
 2401TIP3   OH228617   0.843   2.329   6.042 -0.3944  0.3128 -0.3616
 2401TIP3    H128618   0.840   2.405   5.984 -0.3413  0.7104  0.1485
 2401TIP3    H228619   0.758   2.329   6.086  0.2514  1.1390  0.9569
 2402TIP3   OH228620   5.925   6.701   0.008  0.3665  0.1530  0.3920
 2402TIP3    H128621   5.948   6.681   0.098 -0.7499  1.6922  1.0638
 2402TIP3    H228622   5.863   6.773   0.014  0.2775  0.3174 -1.6149
 2403TIP3   OH228623   3.715   0.702   4.163 -0.1398 -0.1665  0.0601
 2403TIP3    H128624   3.669   0.618   4.154  0.4815 -0.7390  1.7907
 2403TIP3    H228625   3.794   0.693   4.110 -0.2727 -0.5195 -0.0781
 2404TIP3   OH228626   0.954   0.350  16.346 -0.2822 -0.1251 -0.1367
 2404TIP3    H128627   1.003   0.275  16.313 -0.6962 -0.9787  1.0994
 2404TIP3    H228628   1.020   0.418  16.359 -0.2144  0.5987 -3.4650
 2405TIP3   OH228629   0.521   6.740   5.539  0.0786  0.3200  0.3689
 2405TIP3    H128630   0.602   6.751   5.589 -0.1446  0.3673  0.7224
 2405TIP3    H228631   0.550   6.709   5.453  0.4286 -0.3469  0.7156
 2406TIP3   OH228632   2.910   5.438  16.788 -0.3030  0.1318 -0.0103
 2406TIP3    H128633   2.877   5.420  16.875  0.0036  1.0454  0.3165
 2406TIP3    H228634   2.842   5.492  16.747  0.2107  1.0030  0.2363
 2407TIP3   OH228635   5.779   2.607   1.129  0.6547  0.1354  0.2091
 2407TIP3    H128636   5.816   2.638   1.046 -0.8573 -0.5761 -0.7819
 2407TIP3    H228637   5.777   2.684   1.185 -0.1522  1.1167 -1.1209
 2408TIP3   OH228638   6.413   2.583  16.396  0.4490  0.4891  0.1966
 2408TIP3    H128639   6.472   2.543  16.331 -0.1484  0.2157 -0.1897
 2408TIP3    H228640   6.462   2.657  16.431 -0.0970  2.1787 -2.3355
 2409TIP3   OH228641   5.493   5.240  11.257  0.4593 -0.3903  0.1515
 2409TIP3    H128642   5.533   5.156  11.237  1.2693 -0.3313  1.4045
 2409TIP3    H228643   5.423   5.219  11.320 -0.4022 -0.2925 -0.7442
 2410TIP3   OH228644   4.345   5.522   1.142  0.4843  0.2183 -0.0866
 2410TIP3    H128645   4.288   5.460   1.097  0.4225  1.5961 -2.0663
 2410TIP3    H228646   4.306   5.608   1.125  1.1534  0.9130  1.6316
 2411TIP3   OH228647   6.136   3.153   4.898 -0.2018  0.5262  0.0967
 2411TIP3    H128648   6.177   3.073   4.864  0.5672 -0.1503  2.3826
 2411TIP3    H228649   6.090   3.191   4.823 -1.0107 -2.3210 -0.9775
 2412TIP3   OH228650   4.549   1.230  11.725  0.3779 -0.0889 -0.2675
 2412TIP3    H128651   4.524   1.231  11.632  0.2988  0.3118 -0.2410
 2412TIP3    H228652   4.644   1.240  11.723  0.5480 -1.4852 -0.3633
 2413TIP3   OH228653   2.067   1.258   0.431  0.4664  0.7114 -0.3857
 2413TIP3    H128654   2.019   1.262   0.513 -0.4824  1.4534 -0.9478
 2413TIP3    H228655   2.157   1.282   0.454  0.3457  0.3150  0.5188
 2414TIP3   OH228656   3.179   0.921  14.426 -0.3934  0.2513  0.1386
 2414TIP3    H128657   3.166   1.003  14.475 -0.2815  0.0282  0.5416
 2414TIP3    H228658   3.210   0.950  14.340  2.3885  0.5399  1.1561
 2415TIP3   OH228659   0.681   0.499  12.124  0.8601 -0.2533 -0.2315
 2415TIP3    H128660   0.617   0.567  12.101  1.5129 -0.0539 -1.5323
 2415TIP3    H228661   0.646   0.419  12.085  1.6040 -0.0583 -1.3339
 2416TIP3   OH228662   6.058   3.394   5.054  0.2375 -0.0387 -0.7096
 2416TIP3    H128663   6.135   3.433   5.013  1.1222 -0.1874  0.7580
 2416TIP3    H228664   6.061   3.302   5.027  1.8181 -0.5560  1.0455
 2417TIP3   OH228665   0.232   1.998   2.407 -0.2361  0.3335  0.0329
 2417TIP3    H128666   0.309   2.011   2.462 -0.0889  0.1148 -0.1216
 2417TIP3    H228667   0.169   2.062   2.439 -0.3361 -0.1338  0.8009
 2418TIP3   OH228668   3.947   0.518   1.901  0.3754  0.6178  0.4058
 2418TIP3    H128669   3.986   0.560   1.978  0.8440 -0.7043  0.9248
 2418TIP3    H228670   3.853   0.527   1.913  0.3183 -1.6426  2.4246
 2419TIP3   OH228671   5.860   0.030  17.024  0.2877 -0.1795 -0.8422
 2419TIP3    H128672   5.789  -0.020  17.063  0.7013  0.1556  0.4030
 2419TIP3    H228673   5.922  -0.036  16.993  1.5067 -0.5404  2.0398
 2420TIP3   OH228674   0.813   4.612  14.446  0.4414 -0.0006 -0.6606
 2420TIP3    H128675   0.855   4.698  14.437  0.7116 -0.0084  0.3554
 2420TIP3    H228676   0.881   4.549  14.419  0.3172  0.0850 -1.1898
 2421TIP3   OH228677   5.232   4.802   3.698 -0.3158 -0.2691  0.0366
 2421TIP3    H128678   5.148   4.832   3.663 -0.6022  1.7916  2.2554
 2421TIP3    H228679   5.209   4.752   3.776  0.4828 -0.1119  0.3810
 2422TIP3   OH228680   1.478   0.010  13.132  0.1611  0.2341  0.2904
 2422TIP3    H128681   1.528  -0.070  13.145 -0.6139 -0.6805 -1.8341
 2422TIP3    H228682   1.485   0.027  13.038 -1.1810  1.6459  0.3996
 2423TIP3   OH228683   1.342   2.909  14.102 -0.2782 -0.0634 -0.5362
 2423TIP3    H128684   1.385   2.825  14.089 -0.2794  0.0807 -1.5760
 2423TIP3    H228685   1.254   2.897  14.066 -0.2892  0.3735 -0.6619
 2424TIP3   OH228686   6.573   6.143  11.216  0.5793 -0.5119  0.3199
 2424TIP3    H128687   6.556   6.055  11.185 -1.7273 -0.0167  0.0452
 2424TIP3    H228688   6.525   6.200  11.156 -1.3580  0.6506  2.7861
 2425TIP3   OH228689   1.844   3.826  11.998 -0.2485 -0.4862 -0.0046
 2425TIP3    H128690   1.802   3.911  11.984  0.2987 -0.0853  0.7444
 2425TIP3    H228691   1.885   3.805  11.914  2.2570  1.4680  0.6147
 2426TIP3   OH228692   0.517   6.151  14.075  0.0012  0.8431  0.3969
 2426TIP3    H128693   0.573   6.081  14.107  0.6137  1.1593  0.0402
 2426TIP3    H228694   0.477   6.188  14.154  1.5962  1.7035  0.8408
 2427TIP3   OH228695   0.457   3.843  11.585 -0.7862  0.5370  0.1396
 2427TIP3    H128696   0.413   3.760  11.570  0.2569  0.3191 -1.9382
 2427TIP3    H228697   0.534   3.820  11.636 -0.8339  0.3299  0.1203
 2428TIP3   OH228698   5.438   6.569   2.911  0.2406  0.5658 -0.4961
 2428TIP3    H128699   5.349   6.563   2.877  0.5608  0.7161 -1.3906
 2428TIP3    H228700   5.430   6.616   2.994 -0.6702 -0.5695  0.0790
 2429TIP3   OH228701   3.412   6.736   2.769  0.4473  0.1564 -0.0253
 2429TIP3    H128702   3.498   6.741   2.727  0.6980 -0.1126  0.4422
 2429TIP3    H228703   3.353   6.703   2.701  0.5358  1.1193 -0.5969
 2430TIP3   OH228704   2.617   2.214  13.373 -0.0303  0.4585 -0.2034
 2430TIP3    H128705   2.694   2.196  13.318  2.3320  0.4417  2.8278
 2430TIP3    H228706   2.575   2.290  13.332  2.3203  1.2502 -1.3178
 2431TIP3   OH228707   4.414   0.327   5.681 -0.5476  0.3714 -0.0223
 2431TIP3    H128708   4.355   0.317   5.756 -0.9258 -2.5984 -0.5975
 2431TIP3    H228709   4.362   0.298   5.606  1.3137 -1.5136 -0.6685
 2432TIP3   OH228710   2.776   6.327   5.869 -0.6123  0.7257  0.2605
 2432TIP3    H128711   2.710   6.259   5.861 -1.3748  1.4774  0.0803
 2432TIP3    H228712   2.848   6.297   5.813 -0.5367 -0.3833  0.9244
 2433TIP3   OH228713   3.269   4.504  16.233 -0.1770 -0.3519  0.1259
 2433TIP3    H128714   3.238   4.560  16.162 -1.6145 -0.9246  0.2532
 2433TIP3    H228715   3.223   4.536  16.311 -0.5316 -1.2856  0.3145
 2434TIP3   OH228716   1.572   2.342  16.785  0.5463  0.2636 -0.2867
 2434TIP3    H128717   1.590   2.430  16.752  0.8814  0.0127 -0.7862
 2434TIP3    H228718   1.658   2.305  16.803  0.3826  0.2325  0.4413
 2435TIP3   OH228719   1.858   5.652  12.643  0.6496  0.3806 -0.0964
 2435TIP3    H128720   1.773   5.619  12.673  0.6931 -0.5861 -0.9930
 2435TIP3    H228721   1.837   5.705  12.567  0.9109 -0.6028 -0.8738
 2436TIP3   OH228722   0.693   2.180   5.025 -0.9108  0.2492 -0.1416
 2436TIP3    H128723   0.699   2.138   5.110 -2.2371  0.8897  0.3003
 2436TIP3    H228724   0.601   2.208   5.018 -0.2772  2.3927 -0.7145
 2437TIP3   OH228725   4.906   5.818   3.876  0.0291 -0.6677  0.3525
 2437TIP3    H128726   4.995   5.818   3.913  1.1784  1.5418 -2.0736
 2437TIP3    H228727   4.863   5.893   3.918  0.2867 -0.0583 -0.4447
 2438TIP3   OH228728   4.609   3.781  15.261 -0.0785  0.2691  0.1704
 2438TIP3    H128729   4.621   3.826  15.177 -1.7206  0.2019 -0.1440
 2438TIP3    H228730   4.589   3.851  15.323  2.0542  0.4257  0.7697
 2439TIP3   OH228731   1.320   1.189   5.786 -0.6373  0.5154 -0.1683
 2439TIP3    H128732   1.250   1.157   5.730 -0.3551 -0.5876  0.0887
 2439TIP3    H228733   1.276   1.243   5.852 -1.2895 -0.4743  0.2194
 2440TIP3   OH228734   4.052   2.402   4.340  0.1430 -0.0431 -0.8986
 2440TIP3    H128735   4.134   2.381   4.385 -0.9462 -2.0950  0.2939
 2440TIP3    H228736   3.995   2.436   4.408 -0.2485  0.6582 -1.5616
 2441TIP3   OH228737   6.434   5.691   4.410 -0.3858 -0.0519 -0.0035
 2441TIP3    H128738   6.400   5.720   4.495  2.2588  0.8199  0.8257
 2441TIP3    H228739   6.397   5.753   4.347  0.1362  1.2379  0.9324
 2442TIP3   OH228740   2.614   3.178   1.790  0.2595  0.0711 -0.1274
 2442TIP3    H128741   2.664   3.198   1.869  0.1967 -0.5625  0.0796
 2442TIP3    H228742   2.652   3.096   1.758 -1.0085 -0.7410  0.3585
 2443TIP3   OH228743   1.731   5.484  16.660 -0.0968  0.0704 -0.3967
 2443TIP3    H128744   1.639   5.487  16.685  0.3147 -1.0731  1.4627
 2443TIP3    H228745   1.731   5.447  16.572 -1.4389  0.7208 -0.6923
 2444TIP3   OH228746   0.883   0.543  16.699 -0.8062  0.0014  0.4465
 2444TIP3    H128747   0.969   0.583  16.690 -0.1578 -0.9141  2.0002
 2444TIP3    H228748   0.898   0.450  16.682 -1.6222 -0.0798  0.1030
 2445TIP3   OH228749   3.862   6.343   0.142 -0.5450  0.1591  0.3640
 2445TIP3    H128750   3.879   6.350   0.236  2.9347 -0.4174 -0.0856
 2445TIP3    H228751   3.910   6.265   0.115  1.6320  2.2422 -2.4203
 2446TIP3   OH228752   4.488   6.047   0.700  0.3353  0.1439 -0.7075
 2446TIP3    H128753   4.520   6.112   0.762 -0.6506 -0.6835  0.7338
 2446TIP3    H228754   4.455   6.098   0.626  0.5786  1.2148 -0.0961
 2447TIP3   OH228755   2.441   4.588   3.769  0.6553  0.7368  0.2153
 2447TIP3    H128756   2.522   4.637   3.778  0.6539  0.7524  0.1470
 2447TIP3    H228757   2.406   4.615   3.684  0.7871  0.4202  0.0586
 2448TIP3   OH228758   3.026   0.251  14.566 -0.1491  0.1163 -0.0515
 2448TIP3    H128759   3.033   0.283  14.476 -0.7472  1.0549  0.2181
 2448TIP3    H228760   3.088   0.305  14.615  0.2318 -0.4468  0.0936
 2449TIP3   OH228761   0.986   2.961   3.198  0.2130  0.3417 -0.0948
 2449TIP3    H128762   1.048   3.004   3.257  0.8140  0.0866 -0.5332
 2449TIP3    H228763   0.995   3.008   3.115 -0.8800  0.9239  0.0975
 2450TIP3   OH228764   1.331   5.679   3.690  0.1481 -0.5357  0.1248
 2450TIP3    H128765   1.317   5.734   3.613 -0.6580 -0.3154  0.4194
 2450TIP3    H228766   1.274   5.716   3.757 -3.0873 -3.6962 -0.6033
 2451TIP3   OH228767   3.579   5.439  13.250  0.3384 -0.0080 -0.0574
 2451TIP3    H128768   3.629   5.362  13.224 -0.4875 -0.4813 -0.2952
 2451TIP3    H228769   3.550   5.478  13.167 -0.5980 -0.3704  0.0817
 2452TIP3   OH228770   5.711   3.639   2.636  0.8038 -0.1808 -0.0096
 2452TIP3    H128771   5.801   3.612   2.657  0.9241  0.8515  0.9045
 2452TIP3    H228772   5.693   3.711   2.696 -0.4719 -0.0442 -0.5204
 2453TIP3   OH228773   6.482   5.761   3.345  0.0563 -0.1663 -0.5377
 2453TIP3    H128774   6.534   5.695   3.299 -0.5273 -1.7572  0.9650
 2453TIP3    H228775   6.424   5.710   3.402 -0.0110  1.6567  1.1302
 2454TIP3   OH228776   1.422   4.829   5.571  0.1477  0.0237  0.5504
 2454TIP3    H128777   1.503   4.864   5.533  0.1269 -1.4233 -0.9457
 2454TIP3    H228778   1.444   4.810   5.662  1.1597  0.6409  0.4498
 2455TIP3   OH228779   6.753   6.477   5.439 -0.1275 -0.2233  0.2974
 2455TIP3    H128780   6.683   6.503   5.499  0.4544 -1.7945  1.7203
 2455TIP3    H228781   6.708   6.455   5.357 -1.0555  0.7977  0.5138
 2456TIP3   OH228782   3.596   5.974   3.222  0.1164  0.4589 -0.4955
 2456TIP3    H128783   3.611   5.918   3.145  0.7549 -0.7188  0.4440
 2456TIP3    H228784   3.549   5.918   3.283  2.3762  0.2664  1.2109
 2457TIP3   OH228785   1.119   6.144   4.401 -0.4418 -0.1997 -0.3048
 2457TIP3    H128786   1.197   6.097   4.372 -0.6443 -1.1313  0.6056
 2457TIP3    H228787   1.121   6.137   4.496 -2.2345 -1.2568 -0.2953
 2458TIP3   OH228788   0.940   1.247   2.105 -0.0879 -0.4917 -0.4796
 2458TIP3    H128789   0.914   1.229   2.196  0.8744  1.9284  0.3744
 2458TIP3    H228790   0.938   1.162   2.062 -1.7774 -1.5390  1.4820
 2459TIP3   OH228791   1.747   0.328  17.053 -0.3710  0.0237  0.5017
 2459TIP3    H128792   1.697   0.380  17.115  0.0197 -0.1236  0.9453
 2459TIP3    H228793   1.836   0.324  17.090  0.0046  0.3869 -0.3367
 2460TIP3   OH228794   2.195   3.634  13.383  0.3529  0.3516  0.2931
 2460TIP3    H128795   2.184   3.721  13.420 -1.1450  0.0368  0.6723
 2460TIP3    H228796   2.218   3.579  13.458  1.0805  0.3806  0.0922
 2461TIP3   OH228797   4.214   4.415   5.584  0.3450 -0.5592 -0.0099
 2461TIP3    H128798   4.123   4.446   5.580  0.2164 -0.5487  1.8336
 2461TIP3    H228799   4.265   4.483   5.541 -0.3885  0.1633  0.2400
 2462TIP3   OH228800   2.138   0.323  16.288  0.2769 -0.5202 -0.5066
 2462TIP3    H128801   2.110   0.284  16.371 -3.4029  1.8701 -0.3510
 2462TIP3    H228802   2.099   0.268  16.221  0.4596 -0.6276 -0.5229
 2463TIP3   OH228803   6.252   0.846  11.386  0.7905  0.2032  0.2838
 2463TIP3    H128804   6.287   0.928  11.421 -1.5408  1.4008 -0.0588
 2463TIP3    H228805   6.201   0.871  11.309  0.6843 -1.6708 -0.3125
 2464TIP3   OH228806   2.090   1.843  15.967  0.4084  0.4430 -0.3062
 2464TIP3    H128807   2.156   1.777  15.986 -0.4694 -0.5316 -0.5472
 2464TIP3    H228808   2.066   1.878  16.052  0.6070  0.1753 -0.1380
 2465TIP3   OH228809   4.035   1.585  14.605 -0.3862  0.1413  0.3587
 2465TIP3    H128810   4.069   1.503  14.641  0.3300 -0.3410 -1.3143
 2465TIP3    H228811   4.036   1.646  14.678 -0.8775 -1.3179  1.6259
 2466TIP3   OH228812   1.359   1.879  14.166  0.2780 -0.4656  0.1034
 2466TIP3    H128813   1.400   1.964  14.185  1.4381 -0.5486 -1.7710
 2466TIP3    H228814   1.267   1.901  14.147  0.3964  0.2714  0.3289
 2467TIP3   OH228815   5.904   6.474  13.453 -0.0257 -0.5253  0.0185
 2467TIP3    H128816   5.945   6.559  13.433 -2.0663  0.6098  0.4064
 2467TIP3    H228817   5.923   6.459  13.545 -0.8797  0.2417  0.3271
 2468TIP3   OH228818   1.747   5.552   3.902  0.8145  0.0573  0.1543
 2468TIP3    H128819   1.706   5.628   3.861 -0.3146 -1.2080 -1.1998
 2468TIP3    H228820   1.754   5.576   3.995  0.4471  1.7742 -0.2246
 2469TIP3   OH228821   6.178   0.009  16.710  0.2570  0.4588  0.5373
 2469TIP3    H128822   6.100  -0.043  16.689 -0.3485  1.2511  0.7495
 2469TIP3    H228823   6.198   0.056  16.629  0.8265 -0.1173  0.3335
 2470TIP3   OH228824   5.754   1.815   3.453  0.3250 -0.4528  0.6114
 2470TIP3    H128825   5.674   1.820   3.400  0.7177 -0.2560  0.0279
 2470TIP3    H228826   5.766   1.905   3.485  2.4867  0.5972 -2.5949
 2471TIP3   OH228827   4.134   5.202   4.797  0.2425 -0.0309 -0.0510
 2471TIP3    H128828   4.084   5.250   4.731  0.4344 -0.6745 -0.6743
 2471TIP3    H228829   4.076   5.199   4.873  0.5231  1.8641  0.2982
 2472TIP3   OH228830   6.729   2.362  15.922  0.1011 -0.2587 -0.3017
 2472TIP3    H128831   6.746   2.399  15.836  0.7890  1.4367  0.5044
 2472TIP3    H228832   6.801   2.395  15.976 -0.0315 -1.7014  0.8078
 2473TIP3   OH228833   4.357   3.511   1.587 -0.9009 -0.0843  0.6888
 2473TIP3    H128834   4.414   3.542   1.517  0.3219 -1.2106  1.1392
 2473TIP3    H228835   4.269   3.538   1.561 -0.5119 -0.6956 -1.4242
 2474TIP3   OH228836   1.068   3.308   2.993  1.1829  0.3495 -0.0096
 2474TIP3    H128837   1.078   3.377   3.059  0.9553  2.2431 -1.8494
 2474TIP3    H228838   1.140   3.323   2.931 -0.3830  0.6536 -1.8553
 2475TIP3   OH228839   0.802   4.328   1.992 -0.1254 -0.5624  0.3908
 2475TIP3    H128840   0.812   4.363   2.081  1.5015 -0.9158  0.3727
 2475TIP3    H228841   0.821   4.235   2.000  0.2768 -0.5549 -0.3761
 2476TIP3   OH228842   5.447   5.612  12.225 -0.1946  0.6074 -0.0410
 2476TIP3    H128843   5.436   5.563  12.144 -1.0890  1.2038 -0.2973
 2476TIP3    H228844   5.359   5.642  12.247  0.0052  0.3465  1.2253
 2477TIP3   OH228845   6.004   1.417   2.867  0.1384  0.0524 -0.8387
 2477TIP3    H128846   6.026   1.402   2.960  1.2607 -0.7661 -1.2082
 2477TIP3    H228847   6.077   1.469   2.833 -0.2807  0.3703 -1.2684
 2478TIP3   OH228848   4.645   2.104  15.073  0.1314 -0.9208  0.1083
 2478TIP3    H128849   4.714   2.054  15.119  0.3095  0.2863  1.2035
 2478TIP3    H228850   4.585   2.037  15.041  0.5720 -1.8802  1.1992
 2479TIP3   OH228851   1.573   6.188   6.117  0.0946  0.0007 -0.4070
 2479TIP3    H128852   1.612   6.271   6.143 -1.1904  0.3432  0.5684
 2479TIP3    H228853   1.508   6.211   6.051  0.9785 -0.4709 -1.4771
 2480TIP3   OH228854   4.870   4.066   1.779  0.4078  0.2153 -0.1249
 2480TIP3    H128855   4.849   3.987   1.829  2.5588  0.1796  0.8466
 2480TIP3    H228856   4.857   4.137   1.842  1.3577  0.3374 -0.0561
 2481TIP3   OH228857   4.086   0.414  12.100  0.6468 -0.2958 -0.1348
 2481TIP3    H128858   4.122   0.371  12.178  1.8832 -0.4753 -0.7745
 2481TIP3    H228859   4.163   0.435  12.048 -0.2080 -0.8617 -1.6703
 2482TIP3   OH228860   3.083   1.373   4.619 -0.4947 -0.3307  0.3509
 2482TIP3    H128861   2.996   1.412   4.608  0.5196  1.7176 -1.2822
 2482TIP3    H228862   3.116   1.410   4.701 -0.8500 -0.5119  0.5794
 2483TIP3   OH228863   4.641   6.464   3.161  0.1542 -0.9049 -0.4189
 2483TIP3    H128864   4.558   6.440   3.202  0.0710 -0.2754 -0.2059
 2483TIP3    H228865   4.616   6.503   3.077  0.2580 -1.0982 -0.5400
 2484TIP3   OH228866   6.394   0.142   0.837  0.2952  0.3350 -0.4960
 2484TIP3    H128867   6.326   0.199   0.802  0.8437  1.0052 -0.4756
 2484TIP3    H228868   6.449   0.199   0.889  1.1763 -0.1029 -0.9280
 2485TIP3   OH228869   5.826   5.620  12.965 -0.0190 -0.4473 -0.6338
 2485TIP3    H128870   5.840   5.565  12.888  0.0066  0.0565 -0.9877
 2485TIP3    H228871   5.883   5.696  12.952  1.0668 -1.0112  0.5520
 2486TIP3   OH228872   0.299   2.033  12.784 -0.5949 -0.0357  0.1994
 2486TIP3    H128873   0.335   2.064  12.701 -0.7599  0.7613  0.4179
 2486TIP3    H228874   0.263   2.111  12.826 -2.1432 -0.7241  0.2116
 2487TIP3   OH228875   2.410   1.245  12.827  0.5480  0.2082 -0.5856
 2487TIP3    H128876   2.419   1.171  12.766  0.0837 -0.6275  0.3220
 2487TIP3    H228877   2.320   1.238  12.859  0.3772  1.4063 -0.7594
 2488TIP3   OH228878   6.395   0.545   5.800  0.6655  0.9792  0.1916
 2488TIP3    H128879   6.486   0.520   5.817  0.5738  0.6255  0.1741
 2488TIP3    H228880   6.354   0.546   5.887  0.2703 -0.5407  0.0507
 2489TIP3   OH228881   3.397   6.488  13.009 -0.0837 -0.3940 -0.0542
 2489TIP3    H128882   3.427   6.465  13.097  1.5565  2.1695  0.1560
 2489TIP3    H228883   3.412   6.410  12.957  0.4855 -1.4228  1.5851
 2490TIP3   OH228884   3.958   1.806   2.508  0.0537  0.3965 -0.2437
 2490TIP3    H128885   3.966   1.866   2.433 -0.2831  0.5903 -0.1269
 2490TIP3    H228886   3.906   1.855   2.572 -0.6393 -0.2001 -0.3432
 2491TIP3   OH228887   6.451   3.929  13.067 -0.2378 -0.2329 -0.0366
 2491TIP3    H128888   6.503   3.977  13.132  1.7994 -0.2962 -1.5110
 2491TIP3    H228889   6.503   3.935  12.986 -1.6468 -1.9354 -1.1358
 2492TIP3   OH228890   1.947   6.105   3.398 -0.2083 -0.6531  0.2150
 2492TIP3    H128891   2.030   6.128   3.439 -0.5567  2.4395 -0.5558
 2492TIP3    H228892   1.971   6.047   3.326  1.0738 -1.1386  1.0094
 2493TIP3   OH228893   2.908   1.972  16.835 -0.0506 -0.2805 -0.3011
 2493TIP3    H128894   2.881   1.928  16.916  1.9225 -0.2393  0.4567
 2493TIP3    H228895   2.965   1.909  16.792 -1.6150 -0.5671 -2.0697
 2494TIP3   OH228896   2.125   1.897   1.430 -0.3770  0.0247 -0.7504
 2494TIP3    H128897   2.066   1.968   1.455 -0.1783  0.7117 -2.1520
 2494TIP3    H228898   2.097   1.871   1.343  0.9749 -0.0674 -1.1885
 2495TIP3   OH228899   0.298   0.202  12.162  0.0449 -0.5135 -0.0584
 2495TIP3    H128900   0.288   0.123  12.109  1.2934 -1.7845  1.4961
 2495TIP3    H228901   0.282   0.173  12.251  2.8002  0.4076  0.8538
 2496TIP3   OH228902   0.860   1.818  17.137 -0.4360  0.4122 -0.3224
 2496TIP3    H128903   0.907   1.764  17.074  0.0902 -0.2655  0.6180
 2496TIP3    H228904   0.910   1.900  17.141 -0.5452  0.5042 -0.8713
 2497TIP3   OH228905   2.410   4.417   1.712 -0.1893  0.0490  0.2350
 2497TIP3    H128906   2.369   4.334   1.691  2.3169 -1.3800  0.5383
 2497TIP3    H228907   2.420   4.461   1.628  0.1544 -0.8212 -0.1951
 2498TIP3   OH228908   6.354   4.074   2.494  0.4690 -0.6815 -0.1007
 2498TIP3    H128909   6.426   4.011   2.494  0.5241 -0.7344  2.8319
 2498TIP3    H228910   6.397   4.160   2.497  0.3660 -0.5645 -1.2612
 2499TIP3   OH228911   1.242   3.542   2.217 -0.1117 -0.4032  0.4583
 2499TIP3    H128912   1.331   3.512   2.195  0.0438  0.7080 -0.5327
 2499TIP3    H228913   1.209   3.476   2.277  1.0831 -1.2846  0.1910
 2500TIP3   OH228914   1.840   5.708  13.584 -0.3810  0.2934  0.2968
 2500TIP3    H128915   1.864   5.685  13.494  2.2065  1.2511  0.6366
 2500TIP3    H228916   1.894   5.649  13.638  1.0779  2.3001  1.1503
 2501TIP3   OH228917   3.472   5.521  12.008 -0.3006  0.3583  0.5849
 2501TIP3    H128918   3.430   5.598  11.970 -1.0568  0.1909  1.0706
 2501TIP3    H228919   3.411   5.490  12.075  0.6655  0.2065  1.4293
 2502TIP3   OH228920   3.749   2.264  11.980 -1.2065  0.0799  0.6872
 2502TIP3    H128921   3.697   2.211  11.919 -1.0203 -0.8909  1.3543
 2502TIP3    H228922   3.840   2.248  11.954 -1.1189 -0.4871  1.3354
 2503TIP3   OH228923   3.282   2.044  16.646 -0.7039  0.0595 -0.3392
 2503TIP3    H128924   3.208   2.036  16.706 -1.0066  0.9185 -0.5839
 2503TIP3    H228925   3.303   2.138  16.645 -2.5680  0.6062 -3.7101
 2504TIP3   OH228926   0.927   4.486  11.067  0.7097 -0.5759 -0.3487
 2504TIP3    H128927   0.936   4.492  11.162  0.8632 -0.1712 -0.3841
 2504TIP3    H228928   0.936   4.577  11.037  0.2907 -0.6522 -0.7156
 2505TIP3   OH228929   2.725   1.626  12.094  0.4987  0.6648 -0.1670
 2505TIP3    H128930   2.662   1.696  12.111 -1.7350 -1.4971  1.2761
 2505TIP3    H228931   2.728   1.576  12.176  1.9264 -0.9629 -1.1400
 2506TIP3   OH228932   4.206   2.140  15.170 -0.7462  0.4155 -0.4815
 2506TIP3    H128933   4.259   2.148  15.249 -0.4542 -0.6906 -0.5430
 2506TIP3    H228934   4.227   2.217  15.118  0.1973  0.3949 -0.1414
 2507TIP3   OH228935   1.617   5.661   2.304 -0.0966 -0.2802 -0.0951
 2507TIP3    H128936   1.523   5.640   2.307  0.0900 -1.0652  0.6156
 2507TIP3    H228937   1.659   5.576   2.290  0.5398  0.0005  0.1105
 2508TIP3   OH228938   0.344   0.452  16.785  0.0326  0.0680 -0.0319
 2508TIP3    H128939   0.336   0.527  16.843 -0.1090 -0.6438  0.9011
 2508TIP3    H228940   0.428   0.463  16.742  0.7840 -0.0880  1.3533
 2509TIP3   OH228941   3.152   1.736   0.014 -0.7488 -0.4978 -0.3687
 2509TIP3    H128942   3.129   1.821  -0.023 -0.5287  0.4371  1.4993
 2509TIP3    H228943   3.110   1.736   0.100  0.1460 -1.8191  0.0917
 2510TIP3   OH228944   6.661   4.416  13.669  0.6042 -0.3606  0.4606
 2510TIP3    H128945   6.636   4.324  13.682 -1.4995 -0.0851 -1.1866
 2510TIP3    H228946   6.756   4.413  13.655  0.1823 -2.7566 -2.9324
 2511TIP3   OH228947   1.982   6.004   0.909 -0.0035 -0.0385  0.1625
 2511TIP3    H128948   2.038   6.024   0.834  1.5547  1.9988  1.7311
 2511TIP3    H228949   1.893   6.026   0.879  0.6137  1.0401 -1.0000
 2512TIP3   OH228950   2.296   2.463   5.387  0.0947 -0.7041  0.8212
 2512TIP3    H128951   2.348   2.529   5.341 -0.6362 -0.3784  0.4442
 2512TIP3    H228952   2.329   2.464   5.476  0.2064  0.0564  0.7746
 2513TIP3   OH228953   2.078   1.870   3.600 -0.6685  0.0234  0.1607
 2513TIP3    H128954   2.004   1.918   3.564  0.7644  2.2532 -0.0783
 2513TIP3    H228955   2.154   1.903   3.551  0.3978 -3.0948 -0.5010
 2514TIP3   OH228956   4.701   4.193  14.735  0.0198  0.0243 -0.3353
 2514TIP3    H128957   4.775   4.146  14.774  0.1004  0.8967  0.6114
 2514TIP3    H228958   4.717   4.189  14.641 -1.0070 -3.5550 -0.5375
 2515TIP3   OH228959   3.843   0.749   0.467 -0.5265 -0.6149 -0.1247
 2515TIP3    H128960   3.926   0.703   0.473 -0.9512 -1.3855  0.0461
 2515TIP3    H228961   3.794   0.720   0.545 -0.2368  1.2983  0.8181
 2516TIP3   OH228962   5.170   3.618  15.847  0.2792  0.6202 -0.2018
 2516TIP3    H128963   5.176   3.618  15.751 -2.4801  0.8949 -0.4629
 2516TIP3    H228964   5.188   3.708  15.872  0.1737  0.7365 -0.5341
 2517TIP3   OH228965   5.727   1.415   3.758  0.0849  0.2022  0.0313
 2517TIP3    H128966   5.759   1.413   3.668  0.8682  2.1119  0.2190
 2517TIP3    H228967   5.767   1.339   3.800  0.1999 -0.3580 -1.0613
 2518TIP3   OH228968   6.266   3.498   6.478 -0.2889  0.5929 -0.8661
 2518TIP3    H128969   6.316   3.570   6.517  0.8016 -0.0020 -1.1142
 2518TIP3    H228970   6.332   3.444   6.434 -1.0822 -0.5432 -0.7163
 2519TIP3   OH228971   1.062   5.056  11.191  0.0764  0.1334 -0.3324
 2519TIP3    H128972   1.127   5.122  11.216  1.8637 -2.3772  2.4392
 2519TIP3    H228973   1.113   4.977  11.173 -2.0748 -1.3071 -0.5558
 2520TIP3   OH228974   6.525   1.807   3.217  0.5337 -0.1902  0.6217
 2520TIP3    H128975   6.518   1.832   3.125  1.8993  0.6034  0.7182
 2520TIP3    H228976   6.495   1.716   3.219 -1.4590  0.3916 -0.2515
 2521TIP3   OH228977   4.119   5.230   3.402  0.1867  0.4767 -0.0469
 2521TIP3    H128978   4.190   5.231   3.338 -0.4636 -2.3173 -0.9496
 2521TIP3    H228979   4.042   5.257   3.353 -0.4669 -2.4121 -0.8089
 2522TIP3   OH228980   0.455   3.103   4.039  0.7534  0.0686 -1.0793
 2522TIP3    H128981   0.545   3.133   4.047  0.6763  0.3010 -1.0892
 2522TIP3    H228982   0.402   3.181   4.052  0.5051 -0.2798  0.2118
 2523TIP3   OH228983   2.674   4.451   0.943 -0.6251  0.1509 -0.5101
 2523TIP3    H128984   2.682   4.547   0.949 -0.6767  0.1050  0.2865
 2523TIP3    H228985   2.730   4.418   1.012 -1.3207 -0.3725 -0.1884
 2524TIP3   OH228986   0.900   6.243  15.503 -0.2960  0.0779  0.2724
 2524TIP3    H128987   0.988   6.206  15.497 -0.7387 -0.9167 -0.4770
 2524TIP3    H228988   0.866   6.237  15.414 -1.5611 -0.6769  0.7815
 2525TIP3   OH228989   4.157   5.748  11.639 -0.2097  0.0426  0.0999
 2525TIP3    H128990   4.093   5.692  11.595 -0.7550 -1.3258  2.5038
 2525TIP3    H228991   4.104   5.809  11.691  0.4113 -0.3995  1.2736
 2526TIP3   OH228992   3.286   0.429  15.152 -0.0028 -0.2500  0.4426
 2526TIP3    H128993   3.375   0.463  15.158  0.8933 -1.8775 -2.0509
 2526TIP3    H228994   3.243   0.486  15.087  0.0949 -1.0291 -0.3312
 2527TIP3   OH228995   4.556   3.952  16.370  0.2032  0.1052 -0.1081
 2527TIP3    H128996   4.641   3.914  16.389 -0.5764 -1.9100 -0.3842
 2527TIP3    H228997   4.505   3.939  16.450 -0.2844 -0.0355 -0.4383
 2528TIP3   OH228998   0.514   0.878   3.422  0.0865  0.7020 -0.0882
 2528TIP3    H128999   0.488   0.866   3.514 -0.0195  0.5930 -0.1315
 2528TIP3    H229000   0.540   0.969   3.416 -0.5025  0.8769 -0.0952
 2529TIP3   OH229001   5.185   3.869  13.852 -0.2924 -0.4193 -0.4548
 2529TIP3    H129002   5.149   3.889  13.938  0.4319 -0.7860 -0.0581
 2529TIP3    H229003   5.108   3.847  13.798 -0.9817  1.9241 -0.5266
 2530TIP3   OH229004   0.979   6.011  14.146 -0.7318 -0.4090 -0.2406
 2530TIP3    H129005   1.012   6.048  14.228 -0.1742  0.4565 -0.8487
 2530TIP3    H229006   1.027   6.056  14.077 -2.6535  0.4065 -1.1351
 2531TIP3   OH229007   4.872   0.951   3.552 -0.5764  0.3923 -0.2073
 2531TIP3    H129008   4.873   1.046   3.565  1.1063  0.3968 -0.0930
 2531TIP3    H229009   4.955   0.921   3.589  0.0085 -0.8219 -2.3018
 2532TIP3   OH229010   5.935   1.844   0.780  0.1136 -0.3173 -0.2574
 2532TIP3    H129011   6.003   1.777   0.773  0.6229  0.0944  0.5922
 2532TIP3    H229012   5.918   1.851   0.874 -0.0810  0.5971 -0.3520
 2533TIP3   OH229013   4.399   1.571  14.629 -0.1118  0.2361 -0.1517
 2533TIP3    H129014   4.362   1.530  14.551  0.1619  0.2390 -0.2830
 2533TIP3    H229015   4.399   1.665  14.609 -1.9203  0.4535  0.6356
 2534TIP3   OH229016   1.319   5.831  13.869  0.1436 -0.6130  0.6119
 2534TIP3    H129017   1.269   5.772  13.813 -1.0682  2.1332 -1.3936
 2534TIP3    H229018   1.391   5.861  13.813  0.9992 -0.4983  1.7458
 2535TIP3   OH229019   5.967   3.777   0.006  0.3773  0.2502  0.0338
 2535TIP3    H129020   5.935   3.829  -0.068  1.7960  2.3523  0.7889
 2535TIP3    H229021   5.964   3.687  -0.025  1.3112  1.0744 -2.7910
 2536TIP3   OH229022   3.063   4.879  14.746  0.0520  0.5341 -0.4587
 2536TIP3    H129023   3.010   4.823  14.691  0.7671  0.9694 -1.6222
 2536TIP3    H229024   3.000   4.937  14.789 -0.4849  0.5056 -1.1895
 2537TIP3   OH229025   2.280   5.867   1.790 -0.0148 -0.3580 -0.2904
 2537TIP3    H129026   2.275   5.774   1.769 -0.3008 -0.7345  1.3407
 2537TIP3    H229027   2.356   5.898   1.741  1.7189 -2.0537  1.1768
 2538TIP3   OH229028   5.457   1.596   6.161 -0.3290  0.0727 -0.5680
 2538TIP3    H129029   5.363   1.613   6.164 -0.4840 -0.5875  3.2929
 2538TIP3    H229030   5.475   1.541   6.237  3.4658  1.8114  0.0689
 2539TIP3   OH229031   2.111   5.072  10.609 -0.3320  0.5045 -0.1621
 2539TIP3    H129032   2.103   5.107  10.698  2.0215  1.1186 -0.1124
 2539TIP3    H229033   2.164   4.993  10.620  0.3871  0.8431 -1.0497
 2540TIP3   OH229034   5.735   4.607  15.213  0.5255  0.2905  0.4993
 2540TIP3    H129035   5.723   4.559  15.295  0.5065  0.3661  0.5408
 2540TIP3    H229036   5.757   4.696  15.241 -1.9859  0.9869  0.4595
 2541TIP3   OH229037   6.592   6.701  13.992  0.1671  0.1382 -0.3422
 2541TIP3    H129038   6.518   6.759  13.977  0.4844  0.4618 -0.6599
 2541TIP3    H229039   6.553   6.622  14.029 -0.1675  0.9265  1.0459
 2542TIP3   OH229040   0.257   5.967  10.619  0.1172  0.2578 -0.0237
 2542TIP3    H129041   0.165   5.959  10.593 -0.7341  1.1773  2.4105
 2542TIP3    H229042   0.262   5.921  10.703  1.1558  2.7059  1.3400
 2543TIP3   OH229043   3.976   2.179  14.846  0.2351 -0.1886  0.6666
 2543TIP3    H129044   3.976   2.121  14.923 -0.3144  0.4889  1.1879
 2543TIP3    H229045   3.884   2.197  14.829  0.3574 -0.2701 -0.1165
 2544TIP3   OH229046   4.953   1.209   2.362 -0.6685  0.2359  0.4052
 2544TIP3    H129047   4.861   1.236   2.366 -0.4904  1.2710 -1.2497
 2544TIP3    H229048   5.000   1.276   2.412 -0.7662 -0.0568  0.8927
 2545TIP3   OH229049   5.502   3.514  16.792 -0.2736  0.5591 -0.4558
 2545TIP3    H129050   5.564   3.556  16.851 -0.1201  1.5067 -1.2687
 2545TIP3    H229051   5.419   3.560  16.807 -0.2849  0.6591 -0.8324
 2546TIP3   OH229052   0.205   3.300   5.437  0.2338  0.0767  0.3584
 2546TIP3    H129053   0.244   3.212   5.441 -1.1214 -0.4933  2.0684
 2546TIP3    H229054   0.117   3.286   5.402  1.1107  1.2593 -2.6708
 2547TIP3   OH229055   0.911   0.091   2.936  0.8083 -0.2263  0.7022
 2547TIP3    H129056   0.923   0.105   3.030 -1.1094 -0.2919  0.9893
 2547TIP3    H229057   0.875   0.174   2.904 -0.1801 -0.7771  0.3596
 2548TIP3   OH229058   3.178   0.009  15.540  0.1326  0.2143 -0.7483
 2548TIP3    H129059   3.219  -0.046  15.473  0.1109 -0.5705 -0.1357
 2548TIP3    H229060   3.110  -0.046  15.578 -0.1141  0.7878 -0.3502
 2549TIP3   OH229061   1.934   6.460  10.871 -0.4966 -0.3046  0.0922
 2549TIP3    H129062   1.946   6.454  10.777 -3.0416 -0.4097 -0.2925
 2549TIP3    H229063   2.006   6.516  10.901 -0.0834  0.3554 -1.9987
 2550TIP3   OH229064   5.759   1.419  13.625 -0.6782  0.4731  0.7857
 2550TIP3    H129065   5.738   1.506  13.659  2.8854  1.2792  1.3716
 2550TIP3    H229066   5.831   1.435  13.563  0.8214 -2.1321  1.7211
 2551TIP3   OH229067   5.439   5.858  13.323 -0.0703 -0.6731 -0.2228
 2551TIP3    H129068   5.447   5.909  13.242 -1.0554  0.5704  0.4332
 2551TIP3    H229069   5.474   5.915  13.391 -1.4389 -0.7478  0.5666
 2552TIP3   OH229070   2.545   4.011   5.907  0.4207 -0.3569  0.3082
 2552TIP3    H129071   2.600   3.999   5.829  0.4487 -0.1336  0.2906
 2552TIP3    H229072   2.547   4.106   5.922 -1.4935 -0.0959 -0.8032
 2553TIP3   OH229073   5.629   3.536  15.893 -0.6466 -0.6363  0.1320
 2553TIP3    H129074   5.650   3.593  15.967 -2.1070 -1.0142  0.8806
 2553TIP3    H229075   5.563   3.585  15.843  1.1132  0.0979 -1.5890
 2554TIP3   OH229076   4.568   6.160   3.395 -0.4083  0.0287  0.1514
 2554TIP3    H129077   4.643   6.205   3.433  0.6518  0.1557 -1.9682
 2554TIP3    H229078   4.606   6.093   3.338 -1.9390 -2.0589  1.4443
 2555TIP3   OH229079   6.136   1.770   2.299 -0.0734 -0.1232 -0.2464
 2555TIP3    H129080   6.181   1.826   2.362  0.0299 -1.2930  0.7539
 2555TIP3    H229081   6.205   1.718   2.259 -0.2408 -0.0054 -0.6988
 2556TIP3   OH229082   0.202   2.337   5.234 -0.0163  0.5502  0.5636
 2556TIP3    H129083   0.109   2.344   5.210  0.4487  0.0031 -1.6420
 2556TIP3    H229084   0.245   2.405   5.182  1.0682 -0.6604 -0.1877
 2557TIP3   OH229085   3.380   6.415  16.322  0.3053 -0.0858 -0.5211
 2557TIP3    H129086   3.418   6.327  16.313  0.1846 -0.0920 -0.9945
 2557TIP3    H229087   3.290   6.399  16.351  0.3302 -0.1109 -0.4571
 2558TIP3   OH229088   2.129   4.110  13.898 -0.4650 -0.2004 -0.6451
 2558TIP3    H129089   2.061   4.174  13.920  0.0849  0.6862 -1.4132
 2558TIP3    H229090   2.141   4.058  13.977 -1.7220 -0.0823 -0.3644
 2559TIP3   OH229091   1.673   5.562   3.363  0.2239 -0.0056 -0.5746
 2559TIP3    H129092   1.677   5.511   3.444  0.2236  1.6524  0.5333
 2559TIP3    H229093   1.733   5.635   3.378  0.6103  0.0705 -2.2951
 2560TIP3   OH229094   4.682   1.753   1.386 -0.0231 -0.9623 -0.4889
 2560TIP3    H129095   4.610   1.816   1.395  0.1005 -0.9199  0.2460
 2560TIP3    H229096   4.647   1.671   1.421 -0.8432 -1.8738 -3.1320
 2561TIP3   OH229097   0.560   4.204  15.402  0.2472  0.1417 -0.1849
 2561TIP3    H129098   0.614   4.280  15.423  1.0780 -0.1310 -1.2737
 2561TIP3    H229099   0.471   4.240  15.396  0.5188  0.8830  0.0508
 2562TIP3   OH229100   3.255   4.576  13.612  0.1353 -0.3062 -0.1761
 2562TIP3    H129101   3.276   4.483  13.613 -1.9367 -0.8271  0.5218
 2562TIP3    H229102   3.261   4.603  13.704  0.5570  0.2092 -0.3494
 2563TIP3   OH229103   1.582   2.664   3.911 -0.5072  0.2687 -0.2388
 2563TIP3    H129104   1.554   2.735   3.854 -0.4539  0.5078  0.0336
 2563TIP3    H229105   1.501   2.630   3.950 -0.5001  0.3924 -0.1178
 2564TIP3   OH229106   0.066   2.118   3.965  0.4302  0.3604  0.3467
 2564TIP3    H129107   0.119   2.195   3.943  0.5389  0.5422  1.2099
 2564TIP3    H229108  -0.024   2.146   3.949  0.5909 -0.2714 -2.1042
 2565TIP3   OH229109   0.009   1.736   2.654 -0.6574  0.4167 -0.0065
 2565TIP3    H129110  -0.067   1.687   2.621 -1.3981  1.3650  0.2647
 2565TIP3    H229111   0.073   1.731   2.583 -0.7393 -0.8698 -0.0183
 2566TIP3   OH229112   2.054   2.798  13.485 -0.0951  0.2516  0.1771
 2566TIP3    H129113   2.001   2.877  13.501 -0.7725 -0.0581 -0.4276
 2566TIP3    H229114   2.139   2.832  13.458  0.0414  0.7648  1.2264
 2567TIP3   OH229115   5.048   0.146  14.662 -0.1043  0.1283  0.0391
 2567TIP3    H129116   5.023   0.175  14.750  0.8658  1.4097 -0.0944
 2567TIP3    H229117   5.138   0.176  14.650  0.8448 -2.5721 -0.3040
 2568TIP3   OH229118   3.073   6.340   0.737  0.3385  0.1823  0.0806
 2568TIP3    H129119   3.051   6.392   0.814  0.7385 -1.7685  1.5820
 2568TIP3    H229120   2.991   6.334   0.688  0.4475  2.7993 -0.5656
 2569TIP3   OH229121   5.728   6.457  16.494  0.3152 -0.2535 -0.5840
 2569TIP3    H129122   5.748   6.406  16.416  0.1022 -1.0239 -0.1483
 2569TIP3    H229123   5.778   6.415  16.564 -2.4769 -2.1166  0.5135
 2570TIP3   OH229124   4.040   1.498  12.645  0.2278 -0.0324 -0.3010
 2570TIP3    H129125   4.081   1.525  12.563 -0.2832  0.3445 -0.4344
 2570TIP3    H229126   3.993   1.575  12.675  0.5798 -0.1066  0.4543
 2571TIP3   OH229127   2.171   1.747   0.425  0.3384  0.5820 -0.6892
 2571TIP3    H129128   2.226   1.824   0.437  2.8580 -1.2930  0.9645
 2571TIP3    H229129   2.200   1.709   0.342  0.3867  0.4391 -0.6070
 2572TIP3   OH229130   1.050   4.414  17.018 -0.3167 -0.3725 -0.2082
 2572TIP3    H129131   1.013   4.440  16.934 -1.6184 -1.4328 -0.0013
 2572TIP3    H229132   0.984   4.443  17.082 -1.1065 -2.7464  0.1344
 2573TIP3   OH229133   3.449   0.382  13.004  0.0667 -0.3973  0.5107
 2573TIP3    H129134   3.418   0.384  12.914  2.5211 -0.5571 -0.4331
 2573TIP3    H229135   3.416   0.463  13.043  0.8214  0.8150 -1.2493
 2574TIP3   OH229136   2.046   1.056  11.512 -0.0346  0.1957  0.1749
 2574TIP3    H129137   2.088   1.139  11.534  0.4879  0.3554 -1.3055
 2574TIP3    H229138   2.091   1.027  11.433  1.2488 -2.5563  1.7361
 2575TIP3   OH229139   0.998   4.595  12.068  0.0082 -0.0742 -0.3926
 2575TIP3    H129140   1.014   4.536  11.995  0.3400  0.5030 -0.7921
 2575TIP3    H229141   1.083   4.602  12.112 -0.2801 -0.7441  0.3066
 2576TIP3   OH229142   2.226   3.209  11.872 -0.8723 -0.0039  0.1616
 2576TIP3    H129143   2.207   3.180  11.783 -0.7943 -0.1379  0.1873
 2576TIP3    H229144   2.244   3.302  11.864  1.4594 -0.4242 -0.3339
 2577TIP3   OH229145   3.415   5.594  16.679 -0.3244  0.7882 -0.5366
 2577TIP3    H129146   3.447   5.553  16.760 -0.1050 -1.8668 -1.8528
 2577TIP3    H229147   3.346   5.653  16.708  1.0987  1.4736  1.7465
 2578TIP3   OH229148   0.154   5.228   4.474 -0.2884  0.2811  0.7445
 2578TIP3    H129149   0.232   5.198   4.520  1.6687  0.7416 -1.9927
 2578TIP3    H229150   0.187   5.283   4.403 -3.1917  1.3112  0.0211
 2579TIP3   OH229151   4.651   0.626   0.568 -0.4328 -0.3764  0.2765
 2579TIP3    H129152   4.685   0.693   0.628  0.9338  0.1505 -1.0255
 2579TIP3    H229153   4.688   0.649   0.483  0.0704 -2.7715 -0.2193
 2580TIP3   OH229154   2.999   0.093   6.013 -0.2144  0.2815 -0.1573
 2580TIP3    H129155   3.089   0.122   5.999 -0.0372 -0.2927 -0.2592
 2580TIP3    H229156   2.977   0.043   5.934 -0.2365 -0.4980  0.3216
 2581TIP3   OH229157   5.163   4.844  16.008 -0.6701 -0.0975  0.2333
 2581TIP3    H129158   5.098   4.776  16.026 -1.6773  0.7176 -0.2332
 2581TIP3    H229159   5.215   4.808  15.936 -1.7415 -0.0286 -0.5962
 2582TIP3   OH229160   6.704   2.199  16.176 -0.0956 -0.4249 -0.4258
 2582TIP3    H129161   6.722   2.264  16.108 -1.4827  0.8751  0.3868
 2582TIP3    H229162   6.699   2.116  16.129 -0.4130  0.3501 -1.8260
 2583TIP3   OH229163   5.250   2.150  16.793 -0.0047  0.4680  0.1517
 2583TIP3    H129164   5.318   2.096  16.753  0.1397 -0.2016  1.2521
 2583TIP3    H229165   5.250   2.231  16.742  1.7715  0.5659  0.2614
 2584TIP3   OH229166   5.315   0.712  10.719  0.0017 -0.3041  0.3919
 2584TIP3    H129167   5.234   0.758  10.696  1.0358  0.4649 -2.1707
 2584TIP3    H229168   5.358   0.696  10.634  0.7601 -4.1256  1.3055
 2585TIP3   OH229169   0.911   1.333   3.611  0.3777 -1.1254  0.8612
 2585TIP3    H129170   0.900   1.268   3.542  1.4493  0.0419 -0.4879
 2585TIP3    H229171   0.963   1.402   3.570 -2.2838  1.5320  1.5638
 2586TIP3   OH229172   0.735   5.165  17.031 -0.1132 -0.5622 -0.3863
 2586TIP3    H129173   0.801   5.193  16.967  0.1157 -1.0356 -0.3609
 2586TIP3    H229174   0.652   5.173  16.985 -0.1146  0.7136 -0.1936
 2587TIP3   OH229175   6.667   6.492   2.623  0.0595  0.1300 -0.3060
 2587TIP3    H129176   6.644   6.539   2.543 -2.6136  0.3447  0.5130
 2587TIP3    H229177   6.740   6.543   2.660  1.4059 -0.0209 -2.5586
 2588TIP3   OH229178   0.186   3.058  12.630 -0.4742 -0.5120  0.0020
 2588TIP3    H129179   0.201   3.075  12.723  1.6914  0.1966 -0.4276
 2588TIP3    H229180   0.091   3.058  12.621 -0.7615  2.6403  1.6736
 2589TIP3   OH229181   3.698   2.785   2.708 -0.6126  0.3574 -0.2368
 2589TIP3    H129182   3.608   2.758   2.688  0.0331 -2.2645  0.0044
 2589TIP3    H229183   3.700   2.792   2.803 -0.2283 -1.1633 -0.1020
 2590TIP3   OH229184   3.304   5.459  14.992  0.5596  0.4468  0.1500
 2590TIP3    H129185   3.275   5.520  15.060 -1.4126  0.4685 -0.6458
 2590TIP3    H229186   3.301   5.374  15.034 -0.2293  0.5096  0.2443
 2591TIP3   OH229187   1.563   5.984  11.817  0.7851 -0.6204  0.1886
 2591TIP3    H129188   1.639   5.975  11.760  1.3082 -0.8241  0.9055
 2591TIP3    H229189   1.593   6.039  11.889 -0.5783  1.7402 -0.9533
 2592TIP3   OH229190   2.284   6.541   1.610  0.4131  0.4111  0.5645
 2592TIP3    H129191   2.354   6.602   1.636  2.0520 -0.4516 -1.5175
 2592TIP3    H229192   2.330   6.461   1.586 -1.4268 -0.5600  0.1135
 2593TIP3   OH229193   2.755   3.141   3.829  0.4080 -0.1375  0.0994
 2593TIP3    H129194   2.697   3.134   3.754  1.3642  2.5354 -1.0219
 2593TIP3    H229195   2.843   3.124   3.794  1.0218  2.3948  0.2315
 2594TIP3   OH229196   2.688   0.738   6.697 -0.5711  0.2572 -0.1346
 2594TIP3    H129197   2.688   0.815   6.641 -0.1712  1.3135  1.2527
 2594TIP3    H229198   2.771   0.743   6.745 -1.8213  0.6321  2.1359
 2595TIP3   OH229199   0.262   0.571  11.253 -0.0133  0.4849 -0.4020
 2595TIP3    H129200   0.263   0.476  11.263  0.9869  0.5752  0.6097
 2595TIP3    H229201   0.237   0.586  11.162  0.4440 -0.7608 -0.7487
 2596TIP3   OH229202   6.650   5.345  15.915 -0.3157  0.0442 -0.2711
 2596TIP3    H129203   6.650   5.282  15.843  1.0938 -0.5510  0.2212
 2596TIP3    H229204   6.716   5.311  15.977 -1.7225  0.3216  1.4822
 2597TIP3   OH229205   6.314   2.992  16.007  0.5445 -0.0388  0.4167
 2597TIP3    H129206   6.227   2.951  16.007  1.0724 -1.2685 -1.5241
 2597TIP3    H229207   6.370   2.930  16.052  0.6959  0.0880  0.4022
 2598TIP3   OH229208   2.049   4.899  14.332 -0.0659 -0.1928 -0.2188
 2598TIP3    H129209   2.072   4.810  14.305 -1.1440 -0.1743 -1.2841
 2598TIP3    H229210   2.120   4.926  14.390  0.2205 -1.7830  0.2111
 2599TIP3   OH229211   5.307   2.507  13.595  0.3350 -0.2858  0.4582
 2599TIP3    H129212   5.236   2.572  13.596  0.3556 -0.2542  1.5126
 2599TIP3    H229213   5.263   2.423  13.609  0.4405 -0.3328  0.5125
 2600TIP3   OH229214   4.225   4.116   0.170 -0.0234 -0.9006 -0.4977
 2600TIP3    H129215   4.233   4.203   0.132  2.9163 -0.5311  0.6873
 2600TIP3    H229216   4.201   4.131   0.261 -1.1466 -1.4444 -0.6918
 2601TIP3   OH229217   0.296   1.656  10.960  0.2277  0.2645 -0.0445
 2601TIP3    H129218   0.371   1.597  10.968 -1.5561 -2.0796  0.1502
 2601TIP3    H229219   0.332   1.742  10.983  2.7966 -0.7847  0.2446
 2602TIP3   OH229220   3.826   1.577   4.391 -0.1653 -0.4079 -0.8646
 2602TIP3    H129221   3.874   1.600   4.470  0.5531 -1.9091 -0.8296
 2602TIP3    H229222   3.868   1.496   4.360  0.2771  0.6970 -3.3714
 2603TIP3   OH229223   4.135   5.710  13.185  0.1870 -0.1468  0.2157
 2603TIP3    H129224   4.107   5.787  13.233  0.4904 -0.6921  1.2866
 2603TIP3    H229225   4.211   5.739  13.134 -0.4609  0.5664 -0.3583
 2604TIP3   OH229226   3.403   0.446  14.343 -0.1557 -0.3168  0.0892
 2604TIP3    H129227   3.339   0.382  14.375  0.5454 -0.8108  0.5387
 2604TIP3    H229228   3.485   0.397  14.336  0.4162  0.5447  0.5148
 2605TIP3   OH229229   1.153   0.552  16.710 -0.4963  0.1442 -0.5207
 2605TIP3    H129230   1.209   0.479  16.735  0.7979  0.4187 -2.3564
 2605TIP3    H229231   1.169   0.619  16.776 -0.2723 -0.5475  0.1328
 2606TIP3   OH229232   5.066   0.296   5.893 -0.0989  0.5235  0.0266
 2606TIP3    H129233   5.074   0.200   5.888 -0.7562  0.4568  0.1059
 2606TIP3    H229234   5.134   0.329   5.834  0.4682  0.0210  0.3870
 2607TIP3   OH229235   4.504   2.345  17.080 -0.0499  0.4160  0.5958
 2607TIP3    H129236   4.542   2.411  17.022 -0.8102 -0.0510 -0.4809
 2607TIP3    H229237   4.533   2.262  17.044  0.5028  0.1348  1.6591
 2608TIP3   OH229238   3.493   2.444  12.867 -0.8050  0.5256  0.2610
 2608TIP3    H129239   3.509   2.512  12.802 -0.6989  1.7165  1.4767
 2608TIP3    H229240   3.449   2.489  12.939  0.0542 -0.4905  1.4840
 2609TIP3   OH229241   5.565   2.059  10.626  0.5674  0.0023  0.5051
 2609TIP3    H129242   5.493   2.120  10.611  0.3830 -0.5836 -1.2363
 2609TIP3    H229243   5.631   2.111  10.672 -0.1455  1.1220  0.3081
 2610TIP3   OH229244   6.037   1.151   3.746  0.0828 -0.4901  0.2003
 2610TIP3    H129245   5.976   1.149   3.672 -0.6925 -0.5283  0.8345
 2610TIP3    H229246   6.102   1.084   3.724  1.4720  1.3605 -1.7772
 2611TIP3   OH229247   0.815   6.095  14.474 -0.0428 -0.1014 -0.7800
 2611TIP3    H129248   0.735   6.142  14.450  0.1984 -0.4497 -2.3912
 2611TIP3    H229249   0.803   6.008  14.435  0.5506 -0.5944  0.1136
 2612TIP3   OH229250   4.411   4.702   0.916 -0.4345  0.2439  1.1067
 2612TIP3    H129251   4.333   4.725   0.867 -0.9389 -1.3473  1.1213
 2612TIP3    H229252   4.394   4.614   0.949  1.3124 -0.0962  1.2020
 2613TIP3   OH229253   1.519   1.031  13.806 -0.4233  0.2478 -0.5984
 2613TIP3    H129254   1.588   1.073  13.754 -0.3564 -0.4454 -1.0740
 2613TIP3    H229255   1.508   1.090  13.881  0.5358  0.4805 -0.6186
 2614TIP3   OH229256   0.777   0.930  11.227  0.9651 -0.5254  0.0695
 2614TIP3    H129257   0.848   0.993  11.216  0.7277 -0.3543 -0.5195
 2614TIP3    H229258   0.821   0.845  11.229  1.2323 -0.3854  0.2519
 2615TIP3   OH229259   0.359   3.539   6.123 -0.0972 -0.2183 -0.4437
 2615TIP3    H129260   0.449   3.508   6.115  0.2940  0.4418  1.0506
 2615TIP3    H229261   0.310   3.464   6.156  0.1980 -0.2094  0.0335
 2616TIP3   OH229262   6.287   0.795  15.638 -0.6132 -0.6281  0.4773
 2616TIP3    H129263   6.267   0.876  15.685 -1.1692 -0.0488 -0.7047
 2616TIP3    H229264   6.209   0.741  15.652  0.6278 -1.9152  3.1082
 2617TIP3   OH229265   0.615   0.388  13.351 -0.3259  0.4740 -0.1117
 2617TIP3    H129266   0.523   0.402  13.326 -0.4940 -0.8556 -0.3163
 2617TIP3    H229267   0.650   0.333  13.281 -0.3260 -1.9192  1.6598
 2618TIP3   OH229268   2.653   6.302  12.748  0.2822 -0.1565  0.1646
 2618TIP3    H129269   2.581   6.364  12.734 -0.0303 -0.9015 -1.9820
 2618TIP3    H229270   2.642   6.272  12.838 -0.6215  1.5490  0.6661
 2619TIP3   OH229271   5.304   1.939  16.457  0.4579  0.4153 -0.0236
 2619TIP3    H129272   5.352   1.925  16.539  0.1808  1.0265  0.2509
 2619TIP3    H229273   5.219   1.900  16.472  0.2011  1.0450  0.2026
 2620TIP3   OH229274   3.238   2.428  16.313  0.1357  0.0620 -0.1485
 2620TIP3    H129275   3.155   2.476  16.311 -0.0564  0.1412  3.2474
 2620TIP3    H229276   3.217   2.340  16.283 -1.9033 -0.6630  2.9102
 2621TIP3   OH229277   5.944   6.198   4.451  0.6519 -0.2539 -0.3057
 2621TIP3    H129278   5.871   6.192   4.389 -0.0976 -1.1228  0.6148
 2621TIP3    H229279   6.018   6.161   4.404  0.6712  1.1273 -1.4517
 2622TIP3   OH229280   4.277   5.890  11.131 -0.0969  0.8085  0.6249
 2622TIP3    H129281   4.286   5.808  11.179  1.6028  0.6344  0.0883
 2622TIP3    H229282   4.248   5.865  11.044  0.1494  0.7932  0.5457
 2623TIP3   OH229283   2.708   5.269  15.643 -0.4721  0.5673  0.3939
 2623TIP3    H129284   2.612   5.264  15.648 -0.6364  1.4342 -1.1418
 2623TIP3    H229285   2.731   5.346  15.696 -0.6899  0.7557  0.2162
 2624TIP3   OH229286   2.033   0.343   1.331  0.6159  0.2403 -0.0650
 2624TIP3    H129287   2.069   0.289   1.261 -1.1474 -2.9494  1.2574
 2624TIP3    H229288   2.082   0.317   1.409  1.6937  2.7904  0.1835
 2625TIP3   OH229289   2.202   2.344   0.327  0.2484  0.4976  0.2841
 2625TIP3    H129290   2.174   2.435   0.342  0.5467  0.5722  0.3924
 2625TIP3    H229291   2.234   2.314   0.412  2.9404  1.2675 -0.3498
 2626TIP3   OH229292   0.496   3.018   3.025 -0.5063 -0.3574 -0.4234
 2626TIP3    H129293   0.589   3.016   3.043 -0.5421  1.2620  0.1043
 2626TIP3    H229294   0.472   2.926   3.008  1.2564 -0.7254 -1.1103
 2627TIP3   OH229295   5.188   2.233  13.654  0.3872 -0.3736 -0.8114
 2627TIP3    H129296   5.216   2.174  13.723  0.5678  0.7169  0.0725
 2627TIP3    H229297   5.205   2.185  13.573  1.6495 -1.0622 -0.1685
 2628TIP3   OH229298   0.673   4.814   0.124  0.0335  0.3604  0.8795
 2628TIP3    H129299   0.767   4.827   0.139  0.4870 -1.1730 -0.3165
 2628TIP3    H229300   0.646   4.891   0.074  0.6593  0.8084  1.2200
 2629TIP3   OH229301   5.350   4.601   4.886 -0.0880  0.3974 -0.3947
 2629TIP3    H129302   5.337   4.662   4.958 -0.5252  0.2099 -0.3150
 2629TIP3    H229303   5.267   4.554   4.878  0.8034 -1.5282  0.7668
 2630TIP3   OH229304   5.371   4.729   2.540 -0.3871  0.0826  0.5968
 2630TIP3    H129305   5.432   4.658   2.559 -0.0091  0.6694  1.6422
 2630TIP3    H229306   5.331   4.750   2.624 -2.4565 -0.6403 -0.1346
 2631TIP3   OH229307   2.191   1.216   2.301  0.6017 -0.6154  0.0768
 2631TIP3    H129308   2.206   1.285   2.236  1.1934  0.5544  1.4046
 2631TIP3    H229309   2.108   1.177   2.275  0.7525 -0.0942 -1.3018
 2632TIP3   OH229310   6.371   3.544   5.198  0.1296  0.1793  0.5663
 2632TIP3    H129311   6.372   3.624   5.144 -1.4321 -0.6613 -0.7890
 2632TIP3    H229312   6.301   3.559   5.261 -0.3629 -0.2364  0.1190
 2633TIP3   OH229313   2.335   4.831  16.668 -0.1980 -0.1640 -0.0085
 2633TIP3    H129314   2.391   4.784  16.606  0.1649  0.5161 -0.2061
 2633TIP3    H229315   2.350   4.923  16.648 -0.4624  0.0505  0.7566
 2634TIP3   OH229316   2.355   2.498  15.700 -0.5410 -0.7957  0.4601
 2634TIP3    H129317   2.439   2.494  15.745 -0.8717  1.3274  1.3799
 2634TIP3    H229318   2.374   2.471  15.610  2.0087  3.0405 -0.3970
 2635TIP3   OH229319   6.682   2.472  13.400 -0.3983  0.2228 -0.5693
 2635TIP3    H129320   6.704   2.412  13.472 -1.8658  0.3974  0.0600
 2635TIP3    H229321   6.764   2.518  13.382  0.1240 -0.1756  0.6535
 2636TIP3   OH229322   5.480   6.492  11.310  0.3504  0.2468  0.5684
 2636TIP3    H129323   5.452   6.575  11.272  1.1874  1.3712  2.2649
 2636TIP3    H229324   5.526   6.447  11.239  1.2734  1.9418  0.0336
 2637TIP3   OH229325   0.029   5.302  16.353 -0.0972  0.0519  0.1731
 2637TIP3    H129326   0.003   5.391  16.332  1.9300  0.8149  0.6502
 2637TIP3    H229327   0.067   5.268  16.272 -0.1800 -0.1276  0.2074
 2638TIP3   OH229328   4.621   1.982  11.509 -0.0500  0.1469  0.1825
 2638TIP3    H129329   4.682   2.041  11.466 -0.1302  0.8536  1.0114
 2638TIP3    H229330   4.636   1.994  11.603 -0.3650 -0.8384  0.3821
 2639TIP3   OH229331   0.688   1.438  15.677 -0.0976  0.1025  0.2682
 2639TIP3    H129332   0.609   1.383  15.677 -1.7867  2.3358 -0.4091
 2639TIP3    H229333   0.675   1.498  15.751  1.9477 -0.6775  1.3247
 2640TIP3   OH229334   5.299   4.132  17.200 -0.4922  0.2481  0.0361
 2640TIP3    H129335   5.287   4.200  17.266 -0.5969 -0.1082  0.3850
 2640TIP3    H229336   5.394   4.119  17.196 -0.4886  0.2436  0.1409
 2641TIP3   OH229337   6.727   1.286  15.176 -0.3246 -0.0474  0.0898
 2641TIP3    H129338   6.767   1.224  15.237 -0.7129  0.4432  0.8549
 2641TIP3    H229339   6.644   1.245  15.151 -0.4791  0.0591  0.4231
 2642TIP3   OH229340   5.209   3.939   5.674  0.2738 -0.1701  0.4683
 2642TIP3    H129341   5.131   3.958   5.621  0.2469  2.3739  1.2731
 2642TIP3    H229342   5.275   4.000   5.641  0.6576  0.5263  2.4033
 2643TIP3   OH229343   2.900   3.420  15.074  0.1129 -0.1781 -0.3147
 2643TIP3    H129344   2.842   3.415  15.149  1.8043  1.1667  1.1731
 2643TIP3    H229345   2.881   3.506  15.036 -0.5532 -0.7453 -1.3137
 2644TIP3   OH229346   4.921   6.307   2.131  0.4696  0.2800 -0.2876
 2644TIP3    H129347   4.914   6.365   2.055  2.3413 -0.5416 -1.1649
 2644TIP3    H229348   4.990   6.346   2.184 -0.5601  0.6332  0.8292
 2645TIP3   OH229349   4.787   0.197  10.938 -0.0067  0.1801 -0.3528
 2645TIP3    H129350   4.777   0.167  10.847 -0.9349 -1.7150  0.3274
 2645TIP3    H229351   4.698   0.209  10.969  0.1914 -1.5235  1.0101
 2646TIP3   OH229352   5.759   1.929  16.129 -0.2730 -0.0552 -0.1108
 2646TIP3    H129353   5.702   1.930  16.052  0.4093 -0.4727 -0.6229
 2646TIP3    H229354   5.705   1.891  16.199  0.1619 -2.9442 -1.2236
 2647TIP3   OH229355   0.680   4.495   2.482 -0.0651 -0.3558  0.0249
 2647TIP3    H129356   0.738   4.461   2.414  0.0807 -0.1833  0.0615
 2647TIP3    H229357   0.738   4.541   2.542 -0.1252 -0.9821  0.5692
 2648TIP3   OH229358   5.621   4.008   1.841 -0.0554 -0.2884  0.6710
 2648TIP3    H129359   5.641   3.942   1.908 -2.0574 -1.4560  0.2093
 2648TIP3    H229360   5.651   3.969   1.759 -1.4369 -0.7719  0.3665
 2649TIP3   OH229361   4.210   4.880  17.202 -0.5535  0.1928  0.0605
 2649TIP3    H129362   4.202   4.965  17.245  1.3416  0.3420  0.2014
 2649TIP3    H229363   4.260   4.826  17.263 -1.2338 -0.8693 -0.2753
 2650TIP3   OH229364   4.778   1.156   3.173  0.4460  0.1409  0.0478
 2650TIP3    H129365   4.733   1.075   3.198 -1.2543  0.7218 -0.9393
 2650TIP3    H229366   4.746   1.221   3.235 -0.6081  0.6914 -1.0354
 2651TIP3   OH229367   5.261   4.651  15.835 -0.0820  0.1415 -0.2687
 2651TIP3    H129368   5.331   4.607  15.787 -0.4603 -0.4621 -0.2759
 2651TIP3    H229369   5.250   4.599  15.915 -0.4876  0.2587 -0.2449
 2652TIP3   OH229370   2.627   0.427   0.005  0.2813 -0.0261  0.3059
 2652TIP3    H129371   2.569   0.501  -0.015  0.6760 -0.0479 -1.0554
 2652TIP3    H229372   2.586   0.383   0.078 -0.0332  1.4761  1.0771
 2653TIP3   OH229373   4.623   5.834   2.202  0.4305 -0.2987  0.2224
 2653TIP3    H129374   4.604   5.772   2.272 -0.2356  0.6823  0.9363
 2653TIP3    H229375   4.718   5.836   2.195  0.5619  0.4047  1.8696
 2654TIP3   OH229376   2.202   5.908  16.868  0.1464 -0.1685 -0.3038
 2654TIP3    H129377   2.289   5.868  16.872  0.2534 -0.0721 -1.3207
 2654TIP3    H229378   2.204   5.961  16.788 -0.6292  0.3580  0.0154
 2655TIP3   OH229379   0.280   5.222   2.906  0.5111  0.4424  0.7837
 2655TIP3    H129380   0.322   5.145   2.868 -0.4439 -0.6950  1.9527
 2655TIP3    H229381   0.352   5.276   2.938  1.2773  0.8605 -1.4579
 2656TIP3   OH229382   3.150   1.409   3.506  0.9065 -0.5270 -0.1937
 2656TIP3    H129383   3.119   1.497   3.529 -1.7413 -1.3889 -0.1118
 2656TIP3    H229384   3.111   1.352   3.572 -1.0484 -2.2227 -2.6024
 2657TIP3   OH229385   5.823   3.624   1.834  0.0839 -0.0364  0.2895
 2657TIP3    H129386   5.818   3.715   1.861  0.2147 -0.0326  0.3000
 2657TIP3    H229387   5.828   3.574   1.915  2.2575  0.0711  0.2795
 2658TIP3   OH229388   3.950   1.357  13.574  0.4994 -0.0290  0.7839
 2658TIP3    H129389   3.871   1.410  13.562 -0.0555 -0.8847  0.5457
 2658TIP3    H229390   4.022   1.421  13.576 -0.3159  0.8847  2.5200
 2659TIP3   OH229391   1.552   3.023  11.002  0.0994  0.4784  0.5193
 2659TIP3    H129392   1.499   3.101  10.985 -1.1036 -0.4523 -0.2297
 2659TIP3    H229393   1.568   2.985  10.915 -1.1063 -1.1936  0.9729
 2660TIP3   OH229394   5.449   1.726   4.939 -0.4439 -0.7166  0.3315
 2660TIP3    H129395   5.417   1.637   4.921 -1.4163 -0.3679  0.2925
 2660TIP3    H229396   5.405   1.751   5.020  1.1606 -0.9101  1.3107
 2661TIP3   OH229397   1.691   6.176  13.620 -0.1264  0.6172  0.0768
 2661TIP3    H129398   1.718   6.185  13.529  1.6048  1.6292  0.6292
 2661TIP3    H229399   1.722   6.089  13.646 -1.9823 -0.3102 -0.6837
 2662TIP3   OH229400   3.445   3.608   0.925 -0.2351  0.0883  0.2090
 2662TIP3    H129401   3.436   3.641   0.835 -1.5508 -3.5996 -1.2043
 2662TIP3    H229402   3.358   3.618   0.963 -0.3479 -0.6601  0.1575
 2663TIP3   OH229403   4.969   5.991  14.636 -0.3850  0.3649 -0.2176
 2663TIP3    H129404   4.950   5.964  14.546 -1.2014 -1.9019  0.5684
 2663TIP3    H229405   4.979   5.909  14.684 -2.2073  1.4505  2.2247
 2664TIP3   OH229406   2.239   0.759   1.054 -0.6682 -0.4452  0.1928
 2664TIP3    H129407   2.262   0.781   0.964 -0.4894 -0.9340  0.1152
 2664TIP3    H229408   2.260   0.837   1.104 -1.0608 -0.0605 -0.2387
 2665TIP3   OH229409   6.693   2.699  16.073  0.7809  0.2666  0.1548
 2665TIP3    H129410   6.755   2.730  16.007 -0.4763 -0.9165 -1.6957
 2665TIP3    H229411   6.651   2.778  16.106  0.7317  0.8569 -1.2318
 2666TIP3   OH229412   3.385   6.064   2.558  0.1783 -0.3472 -0.1926
 2666TIP3    H129413   3.359   5.975   2.534  0.5890 -1.1058  1.9572
 2666TIP3    H229414   3.458   6.084   2.500  0.2610 -1.5219 -0.5251
 2667TIP3   OH229415   3.570   2.386   5.871 -0.3901  0.1078  0.3018
 2667TIP3    H129416   3.661   2.413   5.869 -0.0780 -0.9242 -1.0216
 2667TIP3    H229417   3.567   2.314   5.934  0.0025 -0.7200 -0.5909
 2668TIP3   OH229418   3.326   0.861  16.733  0.1801 -0.0740  0.0386
 2668TIP3    H129419   3.275   0.933  16.770  0.0947 -0.6320  1.0733
 2668TIP3    H229420   3.395   0.903  16.683 -1.8876  0.7252 -2.3217
 2669TIP3   OH229421   0.492   1.895  11.890 -0.3065  0.3586  0.0736
 2669TIP3    H129422   0.493   1.823  11.826 -0.8201  2.2703 -2.2124
 2669TIP3    H229423   0.581   1.896  11.925  0.2358 -0.2995 -1.2036
 2670TIP3   OH229424   4.309   1.033   3.157 -0.3985 -0.2758 -0.2629
 2670TIP3    H129425   4.368   0.971   3.115  1.0639  0.7009  0.2526
 2670TIP3    H229426   4.292   1.099   3.090 -1.9231 -1.1649 -0.7987
 2671TIP3   OH229427   5.326   5.946  13.708  0.4512  0.0522  0.2500
 2671TIP3    H129428   5.325   5.874  13.771 -1.2033  0.4440  0.7444
 2671TIP3    H229429   5.334   6.025  13.763 -1.2358  0.4109  0.0443
 2672TIP3   OH229430   5.771   5.840  13.481  0.1612 -0.1771  0.2708
 2672TIP3    H129431   5.785   5.913  13.541  2.5368 -0.1512 -0.2024
 2672TIP3    H229432   5.801   5.763  13.530 -3.1631 -1.0747  1.1033
 2673TIP3   OH229433   0.400   2.565  12.479  0.1822  0.6060 -0.8533
 2673TIP3    H129434   0.447   2.583  12.560 -1.7870  1.3992  0.1988
 2673TIP3    H229435   0.440   2.486  12.444  2.2199  1.2331 -0.0421
 2674TIP3   OH229436   4.014   6.509   1.852 -0.5364  0.7419  0.0810
 2674TIP3    H129437   4.076   6.557   1.907 -1.0034 -0.9479  2.2507
 2674TIP3    H229438   4.067   6.439   1.813 -0.8877 -0.3338  1.4522
 2675TIP3   OH229439   6.565   2.787  16.492  0.0989  0.1958 -0.2799
 2675TIP3    H129440   6.658   2.767  16.499  0.2610  1.3299  1.5922
 2675TIP3    H229441   6.558   2.877  16.523 -1.5012  0.5204 -1.4459
 2676TIP3   OH229442   1.497   1.646  11.073 -0.2031  0.1183  0.2407
 2676TIP3    H129443   1.564   1.595  11.119  0.7861  0.9690 -0.2291
 2676TIP3    H229444   1.541   1.728  11.049 -0.4493 -0.5412 -2.8072
 2677TIP3   OH229445   3.212   2.757  13.207 -0.0961  0.3036 -0.2564
 2677TIP3    H129446   3.121   2.771  13.180 -0.4628  1.6079  1.5265
 2677TIP3    H229447   3.238   2.840  13.248  2.0983  0.1558 -1.2038
 2678TIP3   OH229448   4.343   3.922   5.904  0.3764 -0.2005 -0.5404
 2678TIP3    H129449   4.425   3.956   5.938  1.0650 -2.5827  0.3655
 2678TIP3    H229450   4.363   3.833   5.875 -1.7967 -0.7136 -0.6923
 2679TIP3   OH229451   1.076   6.565   5.805  0.0766  0.5883 -1.3207
 2679TIP3    H129452   1.097   6.500   5.739  0.1941 -0.3045 -0.4327
 2679TIP3    H229453   1.146   6.556   5.870 -0.2074  1.2200 -0.9168
 2680TIP3   OH229454   3.803   4.090   4.174 -0.0884  0.1721 -0.0735
 2680TIP3    H129455   3.864   4.025   4.138 -0.6819  0.2886 -1.3585
 2680TIP3    H229456   3.780   4.145   4.099 -0.7026  0.9886  0.6897
 2681TIP3   OH229457   6.385   0.555  12.460 -0.4800  0.0426 -0.3169
 2681TIP3    H129458   6.419   0.568  12.372 -0.2599 -0.3046 -0.2840
 2681TIP3    H229459   6.325   0.481  12.452  0.3660 -0.6928  0.0335
 2682TIP3   OH229460   3.872   4.586  10.499  0.2743  0.7538 -0.2123
 2682TIP3    H129461   3.849   4.518  10.436 -1.8904  0.8897  0.3609
 2682TIP3    H229462   3.894   4.539  10.579 -2.5187  0.6493  0.5978
 2683TIP3   OH229463   1.970   1.146  14.875  1.2081  0.1917 -0.3708
 2683TIP3    H129464   1.922   1.082  14.822  0.4538  0.8464 -0.4947
 2683TIP3    H229465   1.965   1.110  14.964 -2.7149  1.9499  0.3134
 2684TIP3   OH229466   1.502   3.567  12.898  0.0013  0.5074  0.3323
 2684TIP3    H129467   1.561   3.554  12.824 -2.9548  0.9149 -2.3124
 2684TIP3    H229468   1.506   3.661  12.916 -0.6361  0.7311 -0.6199
 2685TIP3   OH229469   1.396   2.923  12.539 -0.0560  0.3081 -0.0823
 2685TIP3    H129470   1.312   2.880  12.555 -0.4982  0.7350 -1.2198
 2685TIP3    H229471   1.445   2.860  12.485  0.0426  0.4128 -0.1158
 2686TIP3   OH229472   1.405   4.101  13.326 -0.3582  0.3075  0.5744
 2686TIP3    H129473   1.402   4.164  13.253  1.5137  1.4011  1.3593
 2686TIP3    H229474   1.343   4.135  13.390 -1.9576 -0.6163 -0.4202
 2687TIP3   OH229475   1.995   0.850   4.286 -0.4680 -0.1625 -0.1193
 2687TIP3    H129476   2.000   0.881   4.376 -2.6763 -1.0605  0.3667
 2687TIP3    H229477   1.941   0.915   4.241  1.3518  0.7772 -1.1091
 2688TIP3   OH229478   5.623   4.690   4.824 -0.0826  0.5129 -0.5387
 2688TIP3    H129479   5.620   4.620   4.758  0.6059  0.0577 -0.0999
 2688TIP3    H229480   5.532   4.700   4.852 -0.1539 -0.4393 -0.3870
 2689TIP3   OH229481   2.534   5.234  12.545  0.4280 -0.3472 -0.7352
 2689TIP3    H129482   2.464   5.222  12.482 -0.3109 -2.3381  0.4020
 2689TIP3    H229483   2.558   5.327  12.537 -1.7332  0.1695 -1.7431
 2690TIP3   OH229484   3.021   5.894   3.521  0.9714  0.4946  0.5730
 2690TIP3    H129485   3.090   5.865   3.582  0.4653  0.9147  1.3699
 2690TIP3    H229486   2.942   5.850   3.553  0.1892  2.6337  1.7963
 2691TIP3   OH229487   1.394   4.134   5.058 -1.1016  0.2346  0.4438
 2691TIP3    H129488   1.419   4.043   5.043  0.3958  0.8999 -1.4755
 2691TIP3    H229489   1.453   4.163   5.127  2.0609  1.0640 -2.3371
 2692TIP3   OH229490   1.194   3.271  16.668  0.8416 -0.4553  0.3721
 2692TIP3    H129491   1.155   3.333  16.605  1.6527 -0.4785 -0.1707
 2692TIP3    H229492   1.276   3.245  16.627 -0.0003 -2.7869  0.0331
 2693TIP3   OH229493   2.450   5.371   0.645 -0.0664  0.1598 -0.0499
 2693TIP3    H129494   2.427   5.452   0.601 -0.8847  0.4016  0.7949
 2693TIP3    H229495   2.382   5.359   0.712  1.2898 -0.0393  1.3426
 2694TIP3   OH229496   6.351   1.754   4.599 -0.5580 -0.1019  0.6786
 2694TIP3    H129497   6.394   1.693   4.659  1.8336 -1.1864 -1.9261
 2694TIP3    H229498   6.371   1.841   4.635  0.7539 -0.7055  1.4828
 2695TIP3   OH229499   5.305   3.839   5.238 -0.0885 -0.3238  0.3844
 2695TIP3    H129500   5.275   3.850   5.148 -0.0959 -1.1325  0.2767
 2695TIP3    H229501   5.361   3.915   5.255 -0.5618  0.1371 -0.0988
 2696TIP3   OH229502   0.058   0.334   3.754  0.1378  1.1278 -0.3020
 2696TIP3    H129503   0.110   0.303   3.679 -1.2566 -3.3222  0.2791
 2696TIP3    H229504   0.097   0.418   3.776  4.3118  0.0911 -2.5334
 2697TIP3   OH229505   6.487   1.030   2.595 -0.5039  0.0872 -0.2529
 2697TIP3    H129506   6.558   1.089   2.619  0.2707 -0.2991 -1.4502
 2697TIP3    H229507   6.532   0.949   2.569 -1.4884 -0.7401  0.5340
 2698TIP3   OH229508   5.976   4.934  13.169  0.2237 -0.0996  0.3297
 2698TIP3    H129509   5.990   4.986  13.090  0.5136 -1.6340 -0.6586
 2698TIP3    H229510   6.033   4.975  13.234 -0.0085  1.1745 -0.2293
 2699TIP3   OH229511   5.664   0.815   3.393  0.2768 -0.1017  0.1917
 2699TIP3    H129512   5.691   0.725   3.412 -0.1104 -0.1923  0.3254
 2699TIP3    H229513   5.594   0.832   3.456 -1.0782 -0.4257 -1.1668
 2700TIP3   OH229514   2.266   4.349  14.372  0.0633  0.0241  0.2662
 2700TIP3    H129515   2.267   4.272  14.315  0.2555  0.9230 -0.9873
 2700TIP3    H229516   2.352   4.389  14.359 -0.1753  0.6606  0.6066
 2701TIP3   OH229517   4.738   1.389   1.211  0.2293 -0.6901  0.1936
 2701TIP3    H129518   4.808   1.323   1.209 -0.4917 -1.5331  1.3677
 2701TIP3    H229519   4.725   1.407   1.304 -0.0110  0.6747 -0.0927
 2702TIP3   OH229520   4.176   4.811  12.097 -0.1666  0.0124  0.0328
 2702TIP3    H129521   4.267   4.812  12.067  0.4039 -0.4291  1.6555
 2702TIP3    H229522   4.172   4.878  12.165 -1.2768  0.5699 -0.5444
 2703TIP3   OH229523   1.906   1.871  14.946  0.1236 -0.0774  0.6076
 2703TIP3    H129524   1.977   1.930  14.972  1.8173 -2.0946  0.8069
 2703TIP3    H229525   1.950   1.792  14.915 -2.0193 -0.7748 -0.9252
 2704TIP3   OH229526   1.177   0.966   5.000 -0.8583 -0.3551  0.6233
 2704TIP3    H129527   1.184   0.989   4.908  2.9323  0.4456  0.9499
 2704TIP3    H229528   1.161   0.871   5.000 -1.0119 -0.3404 -0.8334
 2705TIP3   OH229529   0.814   5.221  12.395 -0.2042 -0.5753 -0.2408
 2705TIP3    H129530   0.882   5.283  12.367  0.3122 -0.7381  0.6090
 2705TIP3    H229531   0.733   5.272  12.393  0.1263 -0.0326 -0.1331
 2706TIP3   OH229532   5.808   5.456   3.659  0.5709 -0.7684 -0.5826
 2706TIP3    H129533   5.813   5.384   3.596  2.1259 -2.2637  1.1355
 2706TIP3    H229534   5.837   5.418   3.742  0.2141  1.5369  0.6973
 2707TIP3   OH229535   1.725   5.483  13.158  0.0467 -0.5056  0.3600
 2707TIP3    H129536   1.663   5.432  13.211 -0.1042 -1.5432 -0.7824
 2707TIP3    H229537   1.718   5.446  13.070 -0.4090  1.8006 -0.6462
 2708TIP3   OH229538   6.035   2.699   4.708  0.5079 -0.3114 -0.6655
 2708TIP3    H129539   5.960   2.651   4.674  0.1218  1.3101 -2.2583
 2708TIP3    H229540   6.003   2.740   4.788  0.4386 -1.5206 -0.0436
 2709TIP3   OH229541   5.963   4.764   6.657  0.0725  0.4701  0.0515
 2709TIP3    H129542   6.012   4.764   6.739 -1.6467  1.3958  1.1404
 2709TIP3    H229543   5.918   4.680   6.656  0.3021  0.3484 -0.0761
 2710TIP3   OH229544   3.927   4.692  14.691 -0.3039  0.3254 -0.7642
 2710TIP3    H129545   3.940   4.608  14.647 -1.2829  0.4629 -1.3470
 2710TIP3    H229546   3.865   4.739  14.635  0.5979  1.6409 -0.7051
 2711TIP3   OH229547   0.095   0.344  14.355  0.7837  0.5311 -0.1512
 2711TIP3    H129548   0.093   0.267  14.298  0.0416  0.9532 -0.7123
 2711TIP3    H229549   0.160   0.402  14.315  0.5583  0.6547 -0.3383
 2712TIP3   OH229550   2.180   0.824  16.234  0.2067 -0.1115 -0.0651
 2712TIP3    H129551   2.209   0.873  16.310  0.8357  1.1448 -1.0692
 2712TIP3    H229552   2.252   0.764  16.215  0.6233  0.4783 -0.4085
 2713TIP3   OH229553   0.937   4.640  13.135 -0.2165 -0.4518  0.6545
 2713TIP3    H129554   0.930   4.655  13.041 -1.0543 -1.3158  0.5597
 2713TIP3    H229555   0.866   4.692  13.173 -0.2428 -0.5523  0.7451
 2714TIP3   OH229556   3.943   2.761  13.719 -0.3479  0.9172  0.1633
 2714TIP3    H129557   3.973   2.698  13.653  1.4547 -0.0582  1.8234
 2714TIP3    H229558   3.866   2.720  13.757 -0.5384  0.8011 -0.3360
 2715TIP3   OH229559   0.788   6.376  11.739 -0.0151  0.1984 -0.2051
 2715TIP3    H129560   0.853   6.325  11.788 -1.2600 -0.9908  0.2662
 2715TIP3    H229561   0.751   6.314  11.676 -1.2503  0.6227  0.0732
 2716TIP3   OH229562   1.013   0.705  15.272 -0.6755 -0.3912  0.4428
 2716TIP3    H129563   1.004   0.778  15.334  3.0299 -1.1871  2.2145
 2716TIP3    H229564   1.081   0.733  15.211 -0.6534 -1.5435 -0.0948
 2717TIP3   OH229565   4.631   6.088   4.798 -0.2784 -0.4922 -0.1773
 2717TIP3    H129566   4.651   6.181   4.791  1.3777 -0.8856 -1.2038
 2717TIP3    H229567   4.634   6.069   4.892 -1.2563  0.5874  0.0918
 2718TIP3   OH229568   3.810   3.706   2.217  0.0375 -0.0003  0.3552
 2718TIP3    H129569   3.863   3.691   2.295 -0.0194 -1.5944  0.1117
 2718TIP3    H229570   3.774   3.794   2.230  1.9890  0.7661  0.9431
 2719TIP3   OH229571   1.942   0.329  14.973 -0.4486 -0.2176 -0.1659
 2719TIP3    H129572   1.996   0.405  14.950 -1.8453  0.9073  0.1052
 2719TIP3    H229573   1.854   0.352  14.942 -1.3102 -0.8847  1.6439
 2720TIP3   OH229574   3.194   3.800   1.256  0.1415  0.3505 -0.1056
 2720TIP3    H129575   3.143   3.846   1.189 -0.5900 -0.2368  0.0453
 2720TIP3    H229576   3.132   3.740   1.297 -0.0171  2.0936  2.5003
 2721TIP3   OH229577   5.802   2.663  11.317  0.4311 -0.2155 -0.3566
 2721TIP3    H129578   5.879   2.615  11.287  0.5418  0.9983 -2.2393
 2721TIP3    H229579   5.837   2.741  11.360  0.2904  0.2772 -1.1068
 2722TIP3   OH229580   2.657   4.323  14.750  0.2035 -0.4467  0.4112
 2722TIP3    H129581   2.703   4.276  14.680  0.3055 -1.0634  0.8834
 2722TIP3    H229582   2.641   4.257  14.817  1.5873  0.4488  1.7162
 2723TIP3   OH229583   1.624   0.011   3.622  0.0343  0.4810 -0.1544
 2723TIP3    H129584   1.596   0.088   3.671 -0.5363  1.4103 -1.8902
 2723TIP3    H229585   1.693  -0.028   3.677 -0.3551  1.6467  1.2159
 2724TIP3   OH229586   0.639   4.854   1.599  0.2385 -0.1810 -0.0811
 2724TIP3    H129587   0.697   4.780   1.612  0.1008  0.1444  2.9556
 2724TIP3    H229588   0.689   4.930   1.628 -0.3331  0.6909 -1.2553
 2725TIP3   OH229589   5.610   6.714  14.158  0.2293  0.5399  0.1955
 2725TIP3    H129590   5.675   6.784  14.160  0.3103  0.4473  1.2436
 2725TIP3    H229591   5.551   6.733  14.230 -0.9867  0.6647 -0.8009
 2726TIP3   OH229592   0.875   5.190  10.747  0.3010 -0.2844 -0.1747
 2726TIP3    H129593   0.803   5.240  10.710 -1.4261 -3.5707 -1.7235
 2726TIP3    H229594   0.858   5.190  10.841 -0.0226  1.3483 -0.2028
 2727TIP3   OH229595   6.600   5.541   0.776  0.4018 -0.3612 -0.1784
 2727TIP3    H129596   6.584   5.480   0.703 -1.7328  0.2453 -0.2766
 2727TIP3    H229597   6.588   5.487   0.854  0.6422 -0.5400 -0.2616
 2728TIP3   OH229598   3.393   5.988  16.822  0.1970  0.5482 -0.6411
 2728TIP3    H129599   3.438   6.021  16.744  1.0507 -0.2168 -0.4883
 2728TIP3    H229600   3.457   5.930  16.864 -1.2781 -1.3677 -0.9325
 2729TIP3   OH229601   0.717   5.598  12.560  0.6291  0.5865 -0.1753
 2729TIP3    H129602   0.718   5.602  12.655 -0.3133 -0.4054 -0.1062
 2729TIP3    H229603   0.665   5.520  12.539  1.0465  0.6270 -1.4961
 2730TIP3   OH229604   1.022   6.751  12.799  0.1139 -0.0203 -0.1368
 2730TIP3    H129605   1.000   6.669  12.754 -3.8155  1.5098 -1.3938
 2730TIP3    H229606   1.029   6.816  12.728 -0.4204  1.3847  1.0651
 2731TIP3   OH229607   3.173   6.297  12.696  0.0365 -0.2224  0.0987
 2731TIP3    H129608   3.122   6.268  12.772 -0.7262  1.3532  0.2378
 2731TIP3    H229609   3.263   6.305  12.729 -0.2665  0.3209  0.8294
 2732TIP3   OH229610   0.527   1.075  14.383  0.0962 -0.3627 -0.0358
 2732TIP3    H129611   0.604   1.031  14.420 -0.2962 -0.6010  0.4976
 2732TIP3    H229612   0.516   1.034  14.297  0.6058 -0.2813 -0.1426
 2733TIP3   OH229613   6.160   6.114  13.975 -0.4370  0.2175  0.4425
 2733TIP3    H129614   6.102   6.049  14.016 -1.4784  0.1738 -1.0189
 2733TIP3    H229615   6.113   6.141  13.896  0.3319  2.1881  0.6152
 2734TIP3   OH229616   4.191   5.541   5.871 -0.0392  0.3818 -0.0047
 2734TIP3    H129617   4.260   5.605   5.888 -0.9767  1.0681  1.4247
 2734TIP3    H229618   4.116   5.594   5.842 -0.4123 -0.2038 -0.1309
 2735TIP3   OH229619   3.526   0.676  16.157 -0.1732 -0.1655  0.0707
 2735TIP3    H129620   3.562   0.741  16.096 -0.7197  1.2260  1.1693
 2735TIP3    H229621   3.521   0.722  16.241 -0.2196 -1.7715  0.9930
 2736TIP3   OH229622   5.920   0.404   4.772  0.4856  0.8945 -0.8717
 2736TIP3    H129623   5.947   0.485   4.815 -0.0951 -0.3185  2.0661
 2736TIP3    H229624   6.001   0.370   4.734  1.2374  1.6969 -0.0547
 2737TIP3   OH229625   5.344   3.078   4.237 -0.9353  0.8637  0.2000
 2737TIP3    H129626   5.257   3.039   4.248 -0.7131  0.4492  0.5279
 2737TIP3    H229627   5.361   3.071   4.143 -0.9600  0.2782  0.2314
 2738TIP3   OH229628   4.039   2.095   5.385 -0.1763  0.3227 -0.5046
 2738TIP3    H129629   3.974   2.163   5.368 -1.1597 -0.7151 -1.0316
 2738TIP3    H229630   3.988   2.020   5.414  0.0042 -2.2733 -5.6297
 2739TIP3   OH229631   3.671   5.193   3.930 -0.1873  0.6904  0.2307
 2739TIP3    H129632   3.714   5.278   3.941  0.9193  0.1273  0.3640
 2739TIP3    H229633   3.715   5.135   3.992  0.6201 -0.5242 -1.3870
 2740TIP3   OH229634   5.036   6.704  16.555 -0.5147 -0.4659  0.3267
 2740TIP3    H129635   5.074   6.617  16.563  0.2545 -0.1182  0.4963
 2740TIP3    H229636   5.025   6.717  16.461  0.0182 -0.4672  0.2623
 2741TIP3   OH229637   5.525   6.011  13.535 -0.0957  0.7456 -0.1508
 2741TIP3    H129638   5.605   6.028  13.585 -1.5734 -0.0458  2.6774
 2741TIP3    H229639   5.475   5.951  13.589 -1.3128 -1.2757 -3.2602
 2742TIP3   OH229640   6.232   3.385  15.114  0.0747 -0.2317 -0.1389
 2742TIP3    H129641   6.234   3.361  15.022 -1.9927 -1.8713  0.1615
 2742TIP3    H229642   6.193   3.308  15.158  2.2345 -0.0781  2.3008
 2743TIP3   OH229643   3.700   6.160  16.756  0.2961 -0.1515  0.4301
 2743TIP3    H129644   3.778   6.111  16.782 -0.9921 -1.8026  1.3232
 2743TIP3    H229645   3.642   6.095  16.717 -0.0273  1.3382 -1.7468
 2744TIP3   OH229646   1.914   0.662   6.193 -0.0890  0.0347  0.3621
 2744TIP3    H129647   1.905   0.744   6.144  0.4874 -0.6783 -0.9801
 2744TIP3    H229648   1.829   0.649   6.234  0.1168  1.8497  1.5174
 2745TIP3   OH229649   4.550   2.932   5.545 -0.1240 -0.4138 -0.1839
 2745TIP3    H129650   4.541   2.983   5.626  0.2203  0.2231 -0.5420
 2745TIP3    H229651   4.503   2.983   5.479  0.4709 -0.4106 -0.6116
 2746TIP3   OH229652   4.324   5.369  15.796  0.5831 -0.7387  0.2883
 2746TIP3    H129653   4.411   5.370  15.756  0.3865  2.0200 -0.2650
 2746TIP3    H229654   4.338   5.405  15.884 -0.1870  1.4188 -0.4156
 2747TIP3   OH229655   3.857   4.610   5.400  0.4873  0.4780  0.0365
 2747TIP3    H129656   3.909   4.647   5.471  0.0766 -0.5031  0.8727
 2747TIP3    H229657   3.825   4.527   5.434 -2.3564  1.4042 -0.0938
 2748TIP3   OH229658   0.255   5.481   3.491  0.5733  0.0450 -0.0008
 2748TIP3    H129659   0.280   5.456   3.402  1.3082 -2.5283  0.8331
 2748TIP3    H229660   0.185   5.421   3.514 -0.0131  1.0718  0.9657
 2749TIP3   OH229661   0.306   0.765   5.616 -0.0608  0.3173  0.2262
 2749TIP3    H129662   0.292   0.726   5.530 -2.2290  0.3671  0.5153
 2749TIP3    H229663   0.392   0.732   5.644 -0.0440 -0.9830 -1.2585
 2750TIP3   OH229664   4.399   6.067  16.170  0.3416 -0.0683  0.6635
 2750TIP3    H129665   4.386   5.998  16.106  0.3247 -0.0794  0.6780
 2750TIP3    H229666   4.387   6.148  16.121 -1.3023 -0.0879  1.0022
 2751TIP3   OH229667   4.682   4.283   3.658  0.2113 -0.4523 -0.4937
 2751TIP3    H129668   4.676   4.299   3.564  2.9427 -0.6237 -0.7738
 2751TIP3    H229669   4.689   4.188   3.666  1.1440 -0.3807 -0.2580
 2752TIP3   OH229670   2.562   0.000  16.047  0.1221  0.1388  0.5927
 2752TIP3    H129671   2.614   0.026  15.971 -0.2513  0.6734  0.5147
 2752TIP3    H229672   2.607   0.039  16.122 -0.0447  0.4274  0.5464
 2753TIP3   OH229673   0.618   6.707   3.985  0.2767  0.2244  0.6782
 2753TIP3    H129674   0.688   6.770   3.997 -0.4653  0.7008  3.0383
 2753TIP3    H229675   0.579   6.730   3.901  1.6177  1.2693  0.3060
 2754TIP3   OH229676   1.240   4.351   6.825  0.6900  0.3677  0.1274
 2754TIP3    H129677   1.332   4.378   6.818  1.0027 -0.4303  1.0181
 2754TIP3    H229678   1.229   4.287   6.755  1.0716 -0.2233  0.6003
 2755TIP3   OH229679   3.585   5.043   2.335 -0.5304 -0.0690 -0.0024
 2755TIP3    H129680   3.523   4.997   2.278  1.6420  0.7758 -3.3290
 2755TIP3    H229681   3.620   4.975   2.392 -1.1235 -1.5302 -1.3021
 2756TIP3   OH229682   1.496   1.181   4.933  0.6968 -0.1816  0.2851
 2756TIP3    H129683   1.489   1.108   4.995  2.0626 -0.8524 -0.2953
 2756TIP3    H229684   1.547   1.247   4.981  0.8019 -0.2554  0.2780
 2757TIP3   OH229685   6.462   1.960   0.799  0.1252  0.3734  0.1185
 2757TIP3    H129686   6.430   2.034   0.748  0.8032  0.4522 -0.2011
 2757TIP3    H229687   6.554   1.981   0.817  0.4150 -0.5383 -0.2547
 2758TIP3   OH229688   2.905   0.564  14.669 -0.4844  0.6087  0.1530
 2758TIP3    H129689   2.840   0.570  14.599 -2.8404  0.0466  2.1538
 2758TIP3    H229690   2.882   0.485  14.717  1.5475  0.5408  1.1230
 2759TIP3   OH229691   1.960   5.317   0.761 -0.3080  0.0254 -0.1781
 2759TIP3    H129692   1.943   5.360   0.845 -0.9878  0.7339 -0.6669
 2759TIP3    H229693   1.873   5.306   0.722  0.0220 -0.1200 -0.8738
 2760TIP3   OH229694   0.221   1.345  11.306 -0.4744  0.3852  0.3638
 2760TIP3    H129695   0.269   1.372  11.227 -2.3439 -0.0423 -0.9824
 2760TIP3    H229696   0.286   1.299  11.359  1.2408  2.0833 -0.1409
 2761TIP3   OH229697   0.538   5.882  16.332  0.8501 -0.0811 -0.0783
 2761TIP3    H129698   0.551   5.960  16.278  0.7749 -0.3002 -0.4154
 2761TIP3    H229699   0.483   5.825  16.279 -1.3275  0.7055  1.2124
 2762TIP3   OH229700   5.101   4.685   2.061  0.1902  0.3650 -0.1240
 2762TIP3    H129701   5.045   4.691   1.983  1.6486  0.2766 -1.2183
 2762TIP3    H229702   5.190   4.696   2.027  0.7799  1.7448  1.7073
 2763TIP3   OH229703   3.948   0.706   2.106 -0.6769  0.3479  0.1970
 2763TIP3    H129704   3.858   0.690   2.132 -0.1896  0.7375  2.2799
 2763TIP3    H229705   3.950   0.798   2.079 -0.6977  0.6546  1.2057
 2764TIP3   OH229706   6.606   0.435  15.884 -0.0699 -0.1294 -0.0353
 2764TIP3    H129707   6.523   0.427  15.837  0.6787 -3.1420 -1.0228
 2764TIP3    H229708   6.585   0.408  15.974  0.2481 -3.7291 -0.9066
 2765TIP3   OH229709   5.898   0.352  15.750  1.0404  0.3146 -0.6075
 2765TIP3    H129710   5.970   0.296  15.782 -1.1738 -2.5122 -0.1829
 2765TIP3    H229711   5.837   0.355  15.823 -0.0486  1.2583 -1.5319
 2766TIP3   OH229712   3.178   0.128   2.029 -0.0113 -0.0746 -0.2370
 2766TIP3    H129713   3.112   0.138   2.098  0.9551 -1.5965  0.9922
 2766TIP3    H229714   3.225   0.211   2.028 -2.0439  1.1272 -1.3085
 2767TIP3   OH229715   6.425   4.686   1.815  0.2509 -0.3647 -0.0435
 2767TIP3    H129716   6.499   4.744   1.803  1.2620 -1.7603 -0.8433
 2767TIP3    H229717   6.461   4.611   1.862 -1.4752  0.5167  2.9237
 2768TIP3   OH229718   4.569   5.030   2.092  0.1385  0.4726 -0.5237
 2768TIP3    H129719   4.604   4.946   2.121 -4.1830 -0.6806  2.2335
 2768TIP3    H229720   4.546   5.017   2.000 -0.3411 -1.3854 -0.1655
 2769TIP3   OH229721   4.237   4.955  16.441 -0.4064  0.0780 -0.3186
 2769TIP3    H129722   4.313   4.960  16.499 -0.9971 -2.3730  0.7804
 2769TIP3    H229723   4.176   5.020  16.475  0.4192  0.7113 -0.0240
 2770TIP3   OH229724   1.766   0.377   6.293  0.6656  0.4553 -0.4219
 2770TIP3    H129725   1.709   0.446   6.325 -1.4468 -1.9014  1.2402
 2770TIP3    H229726   1.841   0.378   6.353 -0.2185  0.2091  0.7289
 2771TIP3   OH229727   3.287   5.952   5.280  0.4662  0.6929 -0.4589
 2771TIP3    H129728   3.342   5.989   5.211  1.0398  1.8707  0.5868
 2771TIP3    H229729   3.264   5.865   5.248  0.4975  1.2995 -2.2391
 2772TIP3   OH229730   1.733   1.689   1.459  0.5707 -0.4119 -0.0720
 2772TIP3    H129731   1.753   1.772   1.502  0.3108  0.5775 -1.7850
 2772TIP3    H229732   1.640   1.694   1.439 -0.1499 -2.3861  2.3544
 2773TIP3   OH229733   2.924   6.471   4.931  0.1317  0.1336 -0.2501
 2773TIP3    H129734   2.865   6.530   4.885 -1.7794 -1.1178  0.4966
 2773TIP3    H229735   2.926   6.503   5.021  0.6638  0.2013 -0.2805
 2774TIP3   OH229736   5.011   1.513   5.024  0.1104  0.4119 -0.0605
 2774TIP3    H129737   5.101   1.513   4.992  0.5055 -1.0609  0.9170
 2774TIP3    H229738   5.009   1.580   5.092  0.1228  1.3005 -0.9185
 2775TIP3   OH229739   6.020   0.732  16.546 -0.1926  0.1267  0.7602
 2775TIP3    H129740   6.082   0.804  16.541 -1.3509  1.1679  0.9341
 2775TIP3    H229741   6.040   0.689  16.629  1.0264 -0.2639  0.2855
 2776TIP3   OH229742   3.878   2.369  13.508 -0.6119  0.2986  0.2618
 2776TIP3    H129743   3.833   2.369  13.592 -1.4763  0.6716 -0.1868
 2776TIP3    H229744   3.813   2.336  13.446  0.2879 -0.8011 -0.1350
 2777TIP3   OH229745   3.898   0.501  12.830 -0.0834 -0.3958 -0.3512
 2777TIP3    H129746   3.979   0.532  12.871 -0.6434 -0.1716  0.6092
 2777TIP3    H229747   3.839   0.577  12.833 -0.8794 -1.0249  0.4571
 2778TIP3   OH229748   1.964   1.523  16.185  0.1948 -0.1265 -0.1931
 2778TIP3    H129749   1.941   1.472  16.108 -0.5103 -0.1105  0.0061
 2778TIP3    H229750   1.944   1.466  16.259 -1.3715  0.7188  0.0636
 2779TIP3   OH229751   0.908   0.156  11.510  0.1020  0.0806  0.2234
 2779TIP3    H129752   0.966   0.213  11.459  0.6748 -0.5146  0.1917
 2779TIP3    H229753   0.825   0.204  11.515  0.8926  1.4088  1.1371
 2780TIP3   OH229754   1.827   5.695  16.822  0.4225 -0.5135 -0.0224
 2780TIP3    H129755   1.802   5.618  16.772  0.2923 -0.2476 -0.3693
 2780TIP3    H229756   1.749   5.718  16.872  0.0084  0.2205 -0.9847
 2781TIP3   OH229757   0.437   6.707   0.460  0.3719  0.0738  0.2668
 2781TIP3    H129758   0.363   6.702   0.398  1.1927  0.4644 -0.7728
 2781TIP3    H229759   0.479   6.622   0.454 -1.8048 -1.4241  3.2941
 2782TIP3   OH229760   3.541   3.798   5.385 -0.0890 -0.0179 -0.0396
 2782TIP3    H129761   3.473   3.852   5.426 -2.1329 -2.3280 -0.1452
 2782TIP3    H229762   3.619   3.813   5.438 -1.3886  0.6828  1.7902
 2783TIP3   OH229763   1.857   4.421  11.414  0.2746 -0.1182  0.2565
 2783TIP3    H129764   1.891   4.347  11.463  1.0278  0.7604  1.1066
 2783TIP3    H229765   1.873   4.399  11.323  0.8133 -0.8412  0.5174
 2784TIP3   OH229766   0.968   2.282  15.064 -0.0647  0.4351  0.2873
 2784TIP3    H129767   0.946   2.300  15.155  1.7883  1.6457  0.5698
 2784TIP3    H229768   1.045   2.338  15.047  0.4201 -0.7196 -1.6195
 2785TIP3   OH229769   5.387   3.314   0.650  0.2095  0.7226  1.0077
 2785TIP3    H129770   5.400   3.406   0.671  0.1281  1.2225 -0.9574
 2785TIP3    H229771   5.475   3.275   0.659  0.8201  1.5961 -0.7573
 2786TIP3   OH229772   4.646   0.169  13.013  0.1452  0.0274  0.0895
 2786TIP3    H129773   4.701   0.239  12.977 -1.2409 -0.0307 -2.3331
 2786TIP3    H229774   4.576   0.215  13.059 -0.5605  0.2688 -1.1854
 2787TIP3   OH229775   1.677   2.219   1.607 -0.6179  0.3643 -0.0424
 2787TIP3    H129776   1.594   2.267   1.614 -0.4276  0.5969  0.6964
 2787TIP3    H229777   1.725   2.263   1.537 -1.1999  0.0985 -0.6211
 2788TIP3   OH229778   4.327   6.696  16.373 -0.2157  0.9734 -0.0638
 2788TIP3    H129779   4.249   6.693  16.428  0.1037 -0.6439  0.3768
 2788TIP3    H229780   4.307   6.638  16.300  1.1933 -1.0234  1.0248
 2789TIP3   OH229781   1.341   2.729   5.198 -0.1576  0.2464  0.4741
 2789TIP3    H129782   1.395   2.735   5.119  0.4178 -1.7556  0.6754
 2789TIP3    H229783   1.357   2.812   5.243 -1.5946  2.0761 -2.1325
 2790TIP3   OH229784   6.256   0.643   2.100 -0.1345  0.4148  0.1450
 2790TIP3    H129785   6.241   0.735   2.123  0.3190  0.7258 -0.7666
 2790TIP3    H229786   6.255   0.642   2.004  0.1885 -0.4803  0.1451
 2791TIP3   OH229787   6.435   6.430   5.999 -0.4401  0.3295 -0.1540
 2791TIP3    H129788   6.506   6.381   6.040  0.3511 -0.2651 -2.1091
 2791TIP3    H229789   6.436   6.516   6.042  0.3393 -0.2515  1.0160
 2792TIP3   OH229790   3.380   1.134   4.733  0.3323 -0.5815 -0.3958
 2792TIP3    H129791   3.421   1.220   4.735  0.7382 -0.7867  0.2468
 2792TIP3    H229792   3.323   1.137   4.656  0.0359  0.3967 -0.1510
 2793TIP3   OH229793   5.326   1.758  15.892 -0.6984 -0.2026  0.2429
 2793TIP3    H129794   5.249   1.793  15.935 -0.4488 -0.7242  1.1369
 2793TIP3    H229795   5.328   1.666  15.916 -0.4929 -0.4903 -0.8152
 2794TIP3   OH229796   1.991   0.740   1.712  0.5585 -0.3575  0.3301
 2794TIP3    H129797   2.042   0.664   1.741  0.3467 -0.4082  0.5687
 2794TIP3    H229798   1.903   0.706   1.697 -0.3128  0.3478  3.1548
 2795TIP3   OH229799   1.392   0.707   5.761 -0.4265 -0.3531  0.0280
 2795TIP3    H129800   1.440   0.789   5.772  3.2933 -2.0447 -1.9964
 2795TIP3    H229801   1.419   0.653   5.835 -1.1625 -0.5388  0.1757
 2796TIP3   OH229802   1.397   4.961  10.909  0.0009 -0.1310  0.0716
 2796TIP3    H129803   1.330   4.991  10.848  0.0638  1.7335  0.8747
 2796TIP3    H229804   1.422   4.874  10.876 -2.8189 -0.9242 -0.2055
 2797TIP3   OH229805   6.428   1.219  12.105  0.3463  0.8450  0.0229
 2797TIP3    H129806   6.357   1.275  12.136  0.9990  0.8215  1.6366
 2797TIP3    H229807   6.407   1.132  12.140 -1.1785 -0.2599 -3.2431
 2798TIP3   OH229808   4.686   1.717   4.578  0.3519 -0.1699  0.0182
 2798TIP3    H129809   4.753   1.727   4.509  0.2351 -2.4972 -0.5249
 2798TIP3    H229810   4.732   1.739   4.659  1.1251  0.5021 -0.5860
 2799TIP3   OH229811   0.340   4.356   1.591  0.4858  0.1926 -0.0138
 2799TIP3    H129812   0.377   4.283   1.641 -2.3418 -1.5705 -0.2470
 2799TIP3    H229813   0.415   4.411   1.568  2.3064 -0.6917  3.2602
 2800TIP3   OH229814   2.851   4.932   4.154 -0.0266 -0.1481  0.3144
 2800TIP3    H129815   2.833   4.953   4.062 -0.7862 -1.4876  0.1340
 2800TIP3    H229816   2.772   4.960   4.200  0.5072  0.8866  0.6514
 2801TIP3   OH229817   5.668   2.782   0.739  0.2886  0.1896  0.5045
 2801TIP3    H129818   5.747   2.743   0.776  0.3632 -0.8215 -0.6416
 2801TIP3    H229819   5.597   2.756   0.798  0.6677  0.1969  0.9586
 2802TIP3   OH229820   3.346   1.592  14.231 -0.1686 -0.1236 -0.2488
 2802TIP3    H129821   3.293   1.532  14.179 -0.0518 -0.0897 -0.4067
 2802TIP3    H229822   3.380   1.655  14.167 -1.8467  1.2748  0.1359
 2803TIP3   OH229823   3.694   3.945   2.155 -0.1702  0.0901  0.0834
 2803TIP3    H129824   3.645   4.027   2.148 -0.2267  0.0097 -0.4499
 2803TIP3    H229825   3.779   3.963   2.116 -0.9576 -0.7387 -2.1469
 2804TIP3   OH229826   3.222   4.014   2.496 -0.1038  0.3844 -0.4338
 2804TIP3    H129827   3.147   3.961   2.466  0.6326 -1.0819  0.2051
 2804TIP3    H229828   3.293   3.988   2.437  0.4624  0.0675  0.3757
 2805TIP3   OH229829   6.742   5.468  13.522  0.1635  0.2140 -0.0866
 2805TIP3    H129830   6.750   5.540  13.584 -0.1502 -0.9532  1.3622
 2805TIP3    H229831   6.699   5.507  13.445 -0.8983  1.3459  1.0328
 2806TIP3   OH229832   2.570   3.736  13.428  0.3901  0.6024  0.6372
 2806TIP3    H129833   2.548   3.762  13.338  0.0114  0.3882  0.6658
 2806TIP3    H229834   2.498   3.679  13.454  0.9082  0.0237  0.7939
 2807TIP3   OH229835   1.557   3.861   3.933 -0.2364  0.7340  0.4840
 2807TIP3    H129836   1.649   3.852   3.907 -0.7759 -2.8298 -0.8347
 2807TIP3    H229837   1.522   3.927   3.873  0.8747  0.0619 -0.9881
 2808TIP3   OH229838   3.572   4.834   0.086 -0.3719  0.4086 -0.2926
 2808TIP3    H129839   3.553   4.741   0.070 -2.0972  0.5854  0.6057
 2808TIP3    H229840   3.667   4.841   0.073 -0.6588 -0.6666 -4.3046
 2809TIP3   OH229841   4.037   3.903   1.338 -0.5283  0.4261 -0.5339
 2809TIP3    H129842   4.081   3.823   1.308 -0.5906  0.2426 -0.1485
 2809TIP3    H229843   3.951   3.873   1.367 -0.4013  0.5681 -0.0051
 2810TIP3   OH229844   2.491   1.972   5.842  0.5162  0.5060 -0.3084
 2810TIP3    H129845   2.513   2.057   5.879  1.1226  0.5698 -0.7989
 2810TIP3    H229846   2.402   1.955   5.873  0.4370  1.2533 -0.0971
 2811TIP3   OH229847   4.922   1.646  12.015 -0.1420  0.3858  0.2983
 2811TIP3    H129848   4.858   1.618  12.080  1.1555  0.0122  1.4587
 2811TIP3    H229849   4.932   1.740  12.028  1.1476  0.0998  1.6522
 2812TIP3   OH229850   0.243   1.740  13.643 -0.5195 -0.0491  0.0141
 2812TIP3    H129851   0.300   1.724  13.568 -0.1407 -1.3320  0.5636
 2812TIP3    H229852   0.204   1.655  13.663 -2.4924  0.7418 -0.2232
 2813TIP3   OH229853   6.399   3.263   2.286  0.5558  0.4727 -0.5050
 2813TIP3    H129854   6.431   3.350   2.309 -1.0311  0.3089  2.9799
 2813TIP3    H229855   6.323   3.280   2.230  0.6246  1.3159 -0.3544
 2814TIP3   OH229856   1.325   6.059  13.568 -0.0456  0.0781  0.1478
 2814TIP3    H129857   1.231   6.068  13.589  0.0066 -0.8311  0.8046
 2814TIP3    H229858   1.369   6.107  13.638  0.0528 -1.3934  1.1360
 2815TIP3   OH229859   2.696   1.475   1.187  0.5156 -0.1738 -0.0469
 2815TIP3    H129860   2.602   1.468   1.197  0.4449  1.1282  0.4040
 2815TIP3    H229861   2.713   1.446   1.097  0.0490 -2.9870  0.6776
 2816TIP3   OH229862   6.401   5.206  14.288  0.1780 -0.0636  0.9817
 2816TIP3    H129863   6.354   5.267  14.344  0.3818  0.0885  0.9880
 2816TIP3    H229864   6.369   5.226  14.200  1.3128  1.0705  0.7879
 2817TIP3   OH229865   3.266   0.084   5.257  0.1372  0.4855 -0.1054
 2817TIP3    H129866   3.193   0.130   5.216 -0.3884 -0.3684 -0.1504
 2817TIP3    H229867   3.246   0.085   5.350  1.4750  2.6771  0.2261
 2818TIP3   OH229868   6.288   0.402  13.813 -0.2638  0.3962  0.1680
 2818TIP3    H129869   6.303   0.437  13.726  0.5622  0.2763  0.2559
 2818TIP3    H229870   6.197   0.373  13.812 -1.1922  3.0385  0.2711
 2819TIP3   OH229871   4.542   3.837  13.235  0.0429 -0.4785  0.4903
 2819TIP3    H129872   4.569   3.916  13.281  0.6504  0.1985 -0.9702
 2819TIP3    H229873   4.620   3.808  13.187 -0.7532 -0.6860 -0.7417
 2820TIP3   OH229874   3.816   5.448  14.179  0.6376  0.2478  0.0388
 2820TIP3    H129875   3.742   5.504  14.152 -0.9398 -0.4962  2.4260
 2820TIP3    H229876   3.891   5.507  14.183 -0.5405  1.7805  0.5365
 2821TIP3   OH229877   2.728   4.445  15.635  0.3414 -0.0353 -0.4290
 2821TIP3    H129878   2.769   4.528  15.611  1.3995 -0.4119  0.0247
 2821TIP3    H229879   2.653   4.470  15.688 -0.5449  0.7004 -1.9454
 2822TIP3   OH229880   0.284   0.521  12.674 -0.0190  0.2377  0.0256
 2822TIP3    H129881   0.313   0.579  12.603  0.5387  0.9699  0.8403
 2822TIP3    H229882   0.265   0.438  12.630 -0.0931  0.8012 -1.0437
 2823TIP3   OH229883   1.971   0.593  15.951  0.1926  0.4480 -0.4166
 2823TIP3    H129884   1.877   0.589  15.934 -0.2250  0.5096  1.5957
 2823TIP3    H229885   1.978   0.599  16.047  2.3051 -2.0893 -0.2931
 2824TIP3   OH229886   5.271   3.183  12.568  0.2866  0.3949  0.0855
 2824TIP3    H129887   5.185   3.214  12.597 -0.0062 -0.7428  0.5165
 2824TIP3    H229888   5.317   3.261  12.539 -0.8004  1.0576  0.1065
 2825TIP3   OH229889   4.503   1.733   3.330 -0.2039 -0.6030  0.0538
 2825TIP3    H129890   4.452   1.785   3.393  1.5910  0.6586  0.5261
 2825TIP3    H229891   4.581   1.785   3.313 -0.0099 -1.5298 -2.2577
 2826TIP3   OH229892   5.527   6.153   4.836  0.0229 -0.1011 -0.2994
 2826TIP3    H129893   5.594   6.175   4.772  0.6364  2.4258  1.0880
 2826TIP3    H229894   5.563   6.079   4.885  1.1600  0.3140 -0.4948
 2827TIP3   OH229895   1.630   4.912  14.731 -0.2888  0.2720 -0.7093
 2827TIP3    H129896   1.687   4.899  14.655 -0.3264 -0.4413 -0.6229
 2827TIP3    H229897   1.552   4.860  14.711  0.7609 -2.1244  0.9440
 2828TIP3   OH229898   0.819   4.280  14.181 -0.0265  0.8801 -0.5110
 2828TIP3    H129899   0.838   4.290  14.275 -1.6746  1.0006 -0.1620
 2828TIP3    H229900   0.735   4.324  14.169 -0.0095  0.5487 -1.9833
 2829TIP3   OH229901   4.927   2.398  16.061  0.0775 -0.0641 -0.3704
 2829TIP3    H129902   4.965   2.486  16.058  0.7507 -0.3341  0.1711
 2829TIP3    H229903   4.978   2.347  15.998 -0.1234 -0.1473 -0.4674
 2830TIP3   OH229904   4.405   3.089   1.347  0.0878  0.0561  0.0335
 2830TIP3    H129905   4.486   3.138   1.334 -0.4384  1.6528  2.1410
 2830TIP3    H229906   4.354   3.143   1.408 -0.9787 -2.6677  1.7512
 2831TIP3   OH229907   1.653   5.994  17.216 -0.0306 -0.5006 -0.1625
 2831TIP3    H129908   1.557   5.997  17.220  0.0326  1.8922  1.4172
 2831TIP3    H229909   1.681   5.998  17.307  1.6208 -3.0189 -0.4898
 2832TIP3   OH229910   0.178   4.971  16.070 -0.0095  0.3004 -0.0424
 2832TIP3    H129911   0.120   4.899  16.096  2.2830 -1.1534  1.4471
 2832TIP3    H229912   0.211   4.945  15.984  0.3309 -0.1715  0.2208
 2833TIP3   OH229913   2.978   4.311  15.394  0.4749  0.1028  0.1099
 2833TIP3    H129914   2.899   4.317  15.341 -0.7589  1.2286  1.9604
 2833TIP3    H229915   3.017   4.399  15.389  1.1261 -0.1840 -0.0460
 2834TIP3   OH229916   4.582   5.976  11.182 -0.4766 -0.1773  0.5185
 2834TIP3    H129917   4.613   5.993  11.093  0.1449 -0.4018  0.6823
 2834TIP3    H229918   4.498   5.933  11.170 -0.4409 -0.1216  0.0371
 2835TIP3   OH229919   2.102   4.055  11.701  0.4709 -0.1624  0.2074
 2835TIP3    H129920   2.124   4.019  11.787  0.6951  0.8209  0.5734
 2835TIP3    H229921   2.184   4.095  11.670  0.4916 -0.8228 -0.6286
 2836TIP3   OH229922   1.728   4.726   5.154 -0.4188  0.0612  0.3271
 2836TIP3    H129923   1.810   4.774   5.148 -0.4845 -0.0199 -2.9014
 2836TIP3    H229924   1.663   4.785   5.117 -0.9976 -1.3737 -1.0687
 2837TIP3   OH229925   6.450   2.724  12.699 -0.2888  0.2234 -0.1299
 2837TIP3    H129926   6.358   2.751  12.693 -0.4581 -0.2854  0.1356
 2837TIP3    H229927   6.492   2.767  12.625 -0.6387  0.8684  0.0404
 2838TIP3   OH229928   5.810   0.586  12.450  0.3795 -0.3414  0.7692
 2838TIP3    H129929   5.769   0.556  12.368 -0.2702  0.1555  0.9051
 2838TIP3    H229930   5.740   0.633  12.495  1.3940  1.4899  0.5109
 2839TIP3   OH229931   5.387   4.083   0.774 -0.5063  0.3953  0.3912
 2839TIP3    H129932   5.369   4.019   0.705  0.5831  1.4501 -0.9089
 2839TIP3    H229933   5.462   4.047   0.821 -2.0973 -1.0382  2.0389
 2840TIP3   OH229934   0.292   1.024  12.387  0.0472  0.4351  0.2511
 2840TIP3    H129935   0.264   1.109  12.353 -0.0044  0.2962 -0.0507
 2840TIP3    H229936   0.387   1.033  12.396  0.2010  0.1072 -0.9551
 2841TIP3   OH229937   2.129   0.594  11.922  0.0919 -0.2734 -0.3803
 2841TIP3    H129938   2.093   0.513  11.886  0.2355 -1.1804  1.4229
 2841TIP3    H229939   2.096   0.663  11.864 -0.5259 -1.5441 -1.5968
 2842TIP3   OH229940   6.446   5.511  15.372 -0.2549 -0.0826 -0.2710
 2842TIP3    H129941   6.490   5.433  15.405  1.0748  1.4437  1.7586
 2842TIP3    H229942   6.406   5.482  15.289 -0.3786 -3.0511  0.6934
 2843TIP3   OH229943   4.789   0.424  15.801 -0.5387 -0.3374  0.0417
 2843TIP3    H129944   4.778   0.434  15.896 -2.4564 -1.8947  0.0592
 2843TIP3    H229945   4.703   0.447  15.765 -0.0328 -0.4277 -1.2766
 2844TIP3   OH229946   4.471   6.159   2.968 -0.1188  0.8126  0.4054
 2844TIP3    H129947   4.512   6.243   2.989  1.2158  0.4650 -0.6226
 2844TIP3    H229948   4.428   6.174   2.884  0.7876  0.2972 -0.1734
 2845TIP3   OH229949   4.082   5.662  13.693  0.4831  0.1309  0.3502
 2845TIP3    H129950   4.044   5.575  13.703 -2.8246  1.4809  1.1184
 2845TIP3    H229951   4.105   5.668  13.601 -1.8638 -0.6705 -0.3596
 2846TIP3   OH229952   4.413   1.035  12.631 -0.6198 -0.0188  0.0435
 2846TIP3    H129953   4.351   1.029  12.558 -0.4343 -2.5788 -0.0215
 2846TIP3    H229954   4.362   1.010  12.708 -0.1993  0.1002  0.3652
 2847TIP3   OH229955   2.855   4.157  10.903 -0.1244 -0.0478  0.1896
 2847TIP3    H129956   2.764   4.182  10.916  0.0852  0.4213  0.8360
 2847TIP3    H229957   2.857   4.063  10.919 -0.6993 -0.2811 -1.0009
 2848TIP3   OH229958   0.073   4.269   1.188 -0.1159  0.0583 -0.4016
 2848TIP3    H129959   0.143   4.254   1.252 -0.5054  1.9730  0.5363
 2848TIP3    H229960   0.119   4.286   1.106  0.4102 -1.4961 -0.4693
 2849TIP3   OH229961   5.615   3.965   6.121  0.2704  0.0787 -0.2116
 2849TIP3    H129962   5.635   4.007   6.037  0.2002 -0.7742 -0.6680
 2849TIP3    H229963   5.654   4.022   6.186 -3.6229  3.4218 -0.4107
 2850TIP3   OH229964   2.698   0.410   1.346 -0.4766 -0.0878  0.6274
 2850TIP3    H129965   2.745   0.443   1.423 -2.7352 -0.5561  2.3101
 2850TIP3    H229966   2.726   0.319   1.338 -0.5321 -0.1555  1.1598
 2851TIP3   OH229967   6.358   1.983  15.267 -0.1124 -0.4368 -0.2813
 2851TIP3    H129968   6.417   2.048  15.307 -0.6463 -0.3072  0.3025
 2851TIP3    H229969   6.296   2.036  15.216  0.0194 -0.5500 -0.5625
 2852TIP3   OH229970   5.492   1.943   1.070  0.3425 -0.1438 -0.1399
 2852TIP3    H129971   5.426   1.966   1.135  1.3330 -0.3102  0.9741
 2852TIP3    H229972   5.509   1.850   1.085  1.6761  0.1648  0.4229
 2853TIP3   OH229973   0.717   4.045  16.097 -0.2431 -0.1172  0.2148
 2853TIP3    H129974   0.720   4.133  16.060  0.3742 -0.4081 -0.4671
 2853TIP3    H229975   0.748   4.056  16.187 -0.0610  0.3462  0.0990
 2854TIP3   OH229976   1.035   2.107   4.334  0.1491 -0.2081  0.0075
 2854TIP3    H129977   0.958   2.120   4.390 -1.2783  0.1599 -1.9095
 2854TIP3    H229978   1.045   2.190   4.287 -0.5532 -1.3300 -2.3396
 2855TIP3   OH229979   2.117   3.977  14.152 -0.2602  0.0324 -0.1461
 2855TIP3    H129980   2.148   3.919  14.221 -1.3060 -0.7261 -0.2987
 2855TIP3    H229981   2.035   4.013  14.185  0.7887  2.2140  0.3538
 2856TIP3   OH229982   3.450   2.858  14.913 -0.3336  0.2039 -0.1706
 2856TIP3    H129983   3.451   2.923  14.983  2.9455 -1.2236  1.3369
 2856TIP3    H229984   3.393   2.788  14.946 -1.2800  0.8494 -0.3823
 2857TIP3   OH229985   5.710   3.857  13.381  0.6027  0.4314 -0.4522
 2857TIP3    H129986   5.794   3.840  13.339  1.3553  2.2854  0.1834
 2857TIP3    H229987   5.704   3.793  13.451  0.6348 -0.8579 -1.5803
 2858TIP3   OH229988   2.896   0.560  13.148 -0.1449  0.5358  0.0153
 2858TIP3    H129989   2.967   0.550  13.085 -0.1459  1.2557 -0.1197
 2858TIP3    H229990   2.916   0.642  13.193 -0.7387  0.6051  0.1636
 2859TIP3   OH229991   2.838   6.642   0.769  0.6248 -0.7791 -0.4483
 2859TIP3    H129992   2.779   6.603   0.704  0.2730  1.6213 -1.7104
 2859TIP3    H229993   2.883   6.711   0.720  0.2764  1.2160  1.8641
 2860TIP3   OH229994   3.786   4.683  17.000  0.4092  0.3090  0.2084
 2860TIP3    H129995   3.760   4.775  17.003  0.6107  0.4023 -0.5730
 2860TIP3    H229996   3.718   4.636  17.048  0.5714  0.9171  1.0460
 2861TIP3   OH229997   5.314   2.637  16.604 -0.0065  0.2959  0.5959
 2861TIP3    H129998   5.268   2.697  16.663 -0.9059 -0.5687  0.8068
 2861TIP3    H229999   5.287   2.663  16.516 -1.0444 -0.2702  0.7190
 2862TIP3   OH230000   2.020   3.372   5.598 -0.7006  0.0483 -0.3425
 2862TIP3    H130001   1.962   3.435   5.557 -1.6528  0.0878  0.9941
 2862TIP3    H230002   2.107   3.410   5.590 -1.0256  0.6358 -1.1853
 2863TIP3   OH230003   2.046   3.799  15.208  0.1923 -0.3620 -0.4395
 2863TIP3    H130004   2.021   3.777  15.298  0.7400 -0.9497 -0.4304
 2863TIP3    H230005   1.979   3.862  15.180 -0.8290 -1.2843 -0.1267
 2864TIP3   OH230006   0.443   1.433  13.360 -0.5837  0.3790  0.0016
 2864TIP3    H130007   0.469   1.433  13.452  0.2342  0.5311 -0.2218
 2864TIP3    H230008   0.431   1.525  13.338  1.7645  0.5943 -0.7108
 2865TIP3   OH230009   6.323   2.927  13.507 -0.0138  0.4299 -0.2014
 2865TIP3    H130010   6.396   2.868  13.488  0.2254  0.3352  0.8970
 2865TIP3    H230011   6.359   3.015  13.496  0.2787  0.3835  0.3530
 2866TIP3   OH230012   2.775   5.224  13.420  0.0200  0.7482  0.5110
 2866TIP3    H130013   2.725   5.230  13.339  1.1007  0.5424 -0.1948
 2866TIP3    H230014   2.854   5.274  13.402 -0.1021  1.4150  1.7450
 2867TIP3   OH230015   3.444   6.286  12.842 -0.2464 -0.3421  0.7013
 2867TIP3    H130016   3.506   6.330  12.784 -1.6431  2.2154  0.9999
 2867TIP3    H230017   3.466   6.193  12.835  2.2444  0.2674 -0.7520
 2868TIP3   OH230018   4.578   2.058  16.160  0.1113 -0.3202 -0.0191
 2868TIP3    H130019   4.527   2.012  16.094 -1.3429 -0.4935  1.1816
 2868TIP3    H230020   4.627   2.124  16.111  0.1295 -1.3292 -1.4204
 2869TIP3   OH230021   2.240   1.465   3.503 -0.0195  0.1451  0.2171
 2869TIP3    H130022   2.284   1.512   3.432  0.5588  0.5497  0.8362
 2869TIP3    H230023   2.298   1.476   3.578 -0.7256 -0.1187  0.8033
 2870TIP3   OH230024   2.977   0.771   6.504  0.3599 -0.6398 -0.2779
 2870TIP3    H130025   2.956   0.861   6.528  0.5834 -1.2291  2.3675
 2870TIP3    H230026   2.892   0.730   6.487  0.1823 -0.2056 -0.4325
 2871TIP3   OH230027   5.292   2.824  12.278  0.6974  0.3090 -0.5122
 2871TIP3    H130028   5.351   2.772  12.223 -0.6842 -1.2778 -0.5788
 2871TIP3    H230029   5.242   2.877  12.216 -0.8711 -1.4914 -0.8921
 2872TIP3   OH230030   0.987   2.866  14.020  0.1420 -0.2056  0.0869
 2872TIP3    H130031   0.938   2.807  13.963 -0.8394 -0.8934  1.5935
 2872TIP3    H230032   0.932   2.944  14.028  1.4994  1.1066 -2.0220
 2873TIP3   OH230033   4.271   2.030  17.114 -0.5074  0.6014  0.3943
 2873TIP3    H130034   4.353   2.047  17.069  1.0301 -0.1974  2.7167
 2873TIP3    H230035   4.241   1.946  17.078  0.0719  0.5450  0.0336
 2874TIP3   OH230036   5.576   3.712   1.147 -0.7651 -0.5110 -0.0998
 2874TIP3    H130037   5.562   3.620   1.168 -0.4117 -0.6542 -0.4932
 2874TIP3    H230038   5.666   3.730   1.174 -0.8315 -0.2824 -0.0280
 2875TIP3   OH230039   0.581   2.310  11.044 -0.4630  0.2379 -0.3668
 2875TIP3    H130040   0.515   2.337  11.108 -1.0152 -0.0739 -0.8061
 2875TIP3    H230041   0.542   2.331  10.959 -0.3378 -0.7008 -0.6622
 2876TIP3   OH230042   4.110   1.156  13.025  0.1448 -0.3440 -0.6539
 2876TIP3    H130043   4.133   1.221  12.959  2.9891  0.2112  0.7066
 2876TIP3    H230044   4.057   1.205  13.088  2.6057  0.9488  0.5765
 2877TIP3   OH230045   4.368   0.673  12.839  0.3654  0.3557 -0.0443
 2877TIP3    H130046   4.418   0.752  12.862  1.0072 -0.3341  1.0279
 2877TIP3    H230047   4.435   0.609  12.815 -0.0545 -0.2901  0.4718
 2878TIP3   OH230048   1.055   3.136  14.626  0.0504  0.4239 -0.0800
 2878TIP3    H130049   1.031   3.047  14.655 -0.0736  0.6583  0.5590
 2878TIP3    H230050   1.064   3.129  14.531  0.6281 -0.4133  0.0290
 2879TIP3   OH230051   2.083   4.199  13.306 -0.0052  0.0578  0.4220
 2879TIP3    H130052   2.048   4.125  13.255 -1.9526 -0.3271  2.1658
 2879TIP3    H230053   2.014   4.265  13.302  1.8213  2.0204 -1.3546
 2880TIP3   OH230054   3.571   5.003   5.521 -0.2504 -0.1103  0.2910
 2880TIP3    H130055   3.517   4.933   5.557  0.7645 -0.9947  0.1666
 2880TIP3    H230056   3.629   4.959   5.458 -0.6771  1.1045 -0.9988
 2881TIP3   OH230057   4.708   0.071  13.527 -0.1503 -0.2901 -0.0219
 2881TIP3    H130058   4.767   0.035  13.592  0.4378 -0.0578 -0.4206
 2881TIP3    H230059   4.675  -0.005  13.479  1.7455 -0.2994 -1.4297
 2882TIP3   OH230060   2.342   1.044  15.372  0.1865 -0.0641  0.3970
 2882TIP3    H130061   2.346   1.006  15.459 -1.4395 -2.1372 -0.3512
 2882TIP3    H230062   2.256   1.087  15.368  1.0353  1.7044  0.4261
 2883TIP3   OH230063   3.366   6.269  15.523 -0.0659  0.2328 -0.2148
 2883TIP3    H130064   3.447   6.314  15.501  0.4321  0.1346  1.3456
 2883TIP3    H230065   3.369   6.188  15.472  0.8056  0.2377 -0.1721
 2884TIP3   OH230066   2.035   2.290  17.195 -0.4481 -0.0667 -0.2570
 2884TIP3    H130067   2.101   2.233  17.236 -0.0729  0.4686 -0.1124
 2884TIP3    H230068   2.086   2.353  17.144 -0.7106  1.7873  1.6384
 2885TIP3   OH230069   4.689   3.686  11.878  0.4844  0.0830 -0.0799
 2885TIP3    H130070   4.629   3.737  11.933  0.6843 -1.1409  1.3290
 2885TIP3    H230071   4.742   3.752  11.833 -0.1386  1.1347  0.6797
 2886TIP3   OH230072   6.440   3.711  10.873 -0.4359  0.2593  0.1754
 2886TIP3    H130073   6.529   3.747  10.875  0.6759 -2.1468 -1.4433
 2886TIP3    H230074   6.405   3.737  10.788  0.0600 -1.6419 -0.6424
 2887TIP3   OH230075   2.003   2.640  14.885 -0.0060  0.3998 -0.2980
 2887TIP3    H130076   1.913   2.672  14.897 -0.6563 -0.7996 -1.6383
 2887TIP3    H230077   2.011   2.627  14.791  0.2933 -2.9577  0.0690
 2888TIP3   OH230078   5.634   4.965  16.585 -0.0058  0.0111  1.1061
 2888TIP3    H130079   5.547   4.977  16.622 -0.0436 -1.0482  1.3811
 2888TIP3    H230080   5.678   5.049  16.601 -1.0790  0.6840  0.6339
 2889TIP3   OH230081   2.756   3.446   6.095 -0.5206 -0.0904  0.1542
 2889TIP3    H130082   2.668   3.481   6.106 -0.6847 -0.7072  0.9315
 2889TIP3    H230083   2.803   3.474   6.173 -0.1049  0.0007 -0.1252
 2890TIP3   OH230084   4.992   5.962  11.732  0.1381 -0.7478  0.1295
 2890TIP3    H130085   4.985   6.055  11.757  2.7626 -0.1157 -1.1839
 2890TIP3    H230086   4.906   5.926  11.753 -1.7705  2.4673 -1.2419
 2891TIP3   OH230087   6.689   1.106  16.945 -0.2131 -0.1019 -0.6694
 2891TIP3    H130088   6.600   1.092  16.975  0.1499  0.9013  0.9934
 2891TIP3    H230089   6.715   1.189  16.985  1.9230 -1.0292  0.0091
 2892TIP3   OH230090   2.005   2.617   2.881 -0.0323  0.1899  0.3795
 2892TIP3    H130091   1.935   2.631   2.817 -0.3962 -0.5871  0.5915
 2892TIP3    H230092   1.988   2.682   2.949  0.5312  1.2187 -0.4462
 2893TIP3   OH230093   2.877   1.960   3.833 -0.3764  0.1506  0.3832
 2893TIP3    H130094   2.971   1.943   3.829 -0.3521  0.0799  1.0148
 2893TIP3    H230095   2.842   1.886   3.882 -1.3016 -1.6682 -2.7644
 2894TIP3   OH230096   5.690   5.134  13.336  0.3976 -0.2786 -0.2764
 2894TIP3    H130097   5.634   5.130  13.414  1.6881  0.7116  0.7369
 2894TIP3    H230098   5.702   5.043  13.310 -0.7566 -0.5664  0.1464
 2895TIP3   OH230099   2.678   5.973  16.670  0.1706 -0.0924 -0.1108
 2895TIP3    H130100   2.743   5.903  16.663 -0.7341 -0.8272 -1.5249
 2895TIP3    H230101   2.670   6.008  16.581 -0.4717  0.8098  0.2850
 2896TIP3   OH230102   3.269   2.893  16.009  0.6082  0.0539 -0.4475
 2896TIP3    H130103   3.236   2.856  15.927  1.2407 -0.0467 -0.6594
 2896TIP3    H230104   3.330   2.961  15.982  0.5561  0.2582 -0.0571
 2897TIP3   OH230105   3.612   3.619  16.035  0.0274  0.0351 -0.5408
 2897TIP3    H130106   3.672   3.591  15.966  1.4206 -0.0692  0.6560
 2897TIP3    H230107   3.530   3.573  16.017  0.9105 -1.3556 -1.1360
 2898TIP3   OH230108   3.518   5.773   0.328  0.5721 -0.0200  0.7839
 2898TIP3    H130109   3.442   5.758   0.273 -0.3344  1.0940  1.6869
 2898TIP3    H230110   3.581   5.706   0.301 -1.0212 -1.4900  0.5724
 2899TIP3   OH230111   1.140   3.669  17.029 -0.5173 -0.4854  0.1748
 2899TIP3    H130112   1.136   3.740  17.094 -1.0732 -1.0628  0.7817
 2899TIP3    H230113   1.069   3.610  17.054  0.0912 -1.3816 -0.1803
 2900TIP3   OH230114   2.938   4.370  13.670 -0.0855  0.0885 -0.2830
 2900TIP3    H130115   2.852   4.402  13.696  0.1821  0.0007  0.7247
 2900TIP3    H230116   2.999   4.407  13.735  0.3773 -1.5108  0.2309
 2901TIP3   OH230117   3.056   5.005   4.623  0.2222 -0.0863  0.2071
 2901TIP3    H130118   3.113   5.041   4.691 -0.6480 -1.7444  1.9047
 2901TIP3    H230119   3.025   4.922   4.659 -1.6450 -0.2143 -1.5207
 2902TIP3   OH230120   6.582   4.038   2.970  0.0158  0.8099  0.0306
 2902TIP3    H130121   6.509   4.003   2.918  1.3571  0.3448 -1.6093
 2902TIP3    H230122   6.554   4.025   3.061 -0.8018 -1.9228 -0.4958
 2903TIP3   OH230123   3.013   6.227  15.468  0.1074 -0.0216 -0.3735
 2903TIP3    H130124   3.030   6.292  15.537  1.7524  0.7012 -1.3901
 2903TIP3    H230125   3.016   6.278  15.387  0.5987 -1.2186 -1.1335
 2904TIP3   OH230126   4.241   0.189   4.503  0.1093  0.3859 -0.1389
 2904TIP3    H130127   4.283   0.122   4.449  0.6840 -0.9946  1.8897
 2904TIP3    H230128   4.154   0.200   4.466 -0.7634 -3.0066  0.5820
 2905TIP3   OH230129   4.021   2.700   2.204  0.1616 -0.1585 -0.1646
 2905TIP3    H130130   3.941   2.678   2.158  0.6448  0.3789 -1.2922
 2905TIP3    H230131   4.001   2.783   2.248 -0.1879 -0.4962  0.3245
 2906TIP3   OH230132   0.253   2.982   5.450 -0.0379 -0.5295  0.1261
 2906TIP3    H130133   0.285   2.949   5.535  0.3827 -1.0600 -0.2341
 2906TIP3    H230134   0.328   3.027   5.412 -0.1430 -0.5421 -0.0971
 2907TIP3   OH230135   1.008   1.255   0.985 -0.3007  0.6446 -0.6375
 2907TIP3    H130136   1.081   1.301   0.943  1.2092 -0.6626  0.4190
 2907TIP3    H230137   1.003   1.292   1.073  1.3748 -1.5342  0.4588
 2908TIP3   OH230138   4.013   5.665   0.500 -0.1993  0.7262  0.5073
 2908TIP3    H130139   4.056   5.702   0.577  2.7733 -0.9975 -0.1931
 2908TIP3    H230140   3.972   5.584   0.531 -0.5319  0.9278  0.6021
 2909TIP3   OH230141   5.849   4.580   0.081  0.4991  0.0996 -0.1765
 2909TIP3    H130142   5.878   4.661   0.039 -1.2267  1.6319  1.3724
 2909TIP3    H230143   5.763   4.562   0.041 -0.4363  0.6988  1.4601
 2910TIP3   OH230144   0.988   4.710   3.842 -0.0977  0.0194 -0.1184
 2910TIP3    H130145   1.081   4.727   3.825  0.6508 -2.7449  0.5615
 2910TIP3    H230146   0.984   4.690   3.935 -1.6920  1.5443  0.1872
 2911TIP3   OH230147   1.423   5.176  12.602 -0.1236 -0.1354  0.1566
 2911TIP3    H130148   1.330   5.192  12.618 -0.1720 -2.1873  2.6079
 2911TIP3    H230149   1.454   5.136  12.683  2.8836  0.3171 -0.6592
 2912TIP3   OH230150   2.097   0.119  10.467  0.3293  0.1874 -0.4083
 2912TIP3    H130151   2.009   0.105  10.502  0.7786  0.1524  0.7374
 2912TIP3    H230152   2.119   0.209  10.492  0.7836  0.0574 -0.3340
 2913TIP3   OH230153   1.196   3.647  13.996  0.4305  0.2154  0.5277
 2913TIP3    H130154   1.290   3.660  14.013  0.5713  0.3635 -0.3425
 2913TIP3    H230155   1.173   3.572  14.051  1.4939 -1.0265 -0.6436
 2914TIP3   OH230156   1.020   3.351   3.446 -0.0452  0.2488 -0.5398
 2914TIP3    H130157   0.949   3.338   3.509 -0.0131  0.7265 -0.4003
 2914TIP3    H230158   0.978   3.343   3.360 -0.7106  2.6195 -0.4983
 2915TIP3   OH230159   2.979   5.059  17.024  0.3324  0.2909 -0.2633
 2915TIP3    H130160   3.008   4.969  17.035 -0.2394  0.2186  0.7475
 2915TIP3    H230161   2.920   5.075  17.098 -0.3382  1.1793 -0.9643
 2916TIP3   OH230162   2.401   2.310   3.255  0.3766  0.0894 -0.6256
 2916TIP3    H130163   2.318   2.286   3.294  0.6488 -1.8051 -1.1277
 2916TIP3    H230164   2.378   2.342   3.167  0.2379 -1.6945 -1.2750
 2917TIP3   OH230165   6.653   0.841   3.605  0.3238  0.1678 -0.0370
 2917TIP3    H130166   6.714   0.897   3.556  0.5825  0.3621  0.5059
 2917TIP3    H230167   6.582   0.824   3.543  0.7610  0.2224 -0.5618
 2918TIP3   OH230168   2.781   1.589   4.993  0.1736  0.2023 -0.3348
 2918TIP3    H130169   2.775   1.497   4.966  0.3558 -0.2982  1.2198
 2918TIP3    H230170   2.776   1.638   4.911 -0.7812 -1.1467 -1.1278
 2919TIP3   OH230171   5.656   6.214  15.572 -1.0511  0.3689  0.5918
 2919TIP3    H130172   5.603   6.138  15.597 -0.0440 -0.1583  1.1794
 2919TIP3    H230173   5.701   6.240  15.652 -2.5338  2.5737  0.7909
 2920TIP3   OH230174   0.504   1.334   2.580  0.0807 -0.3731  0.2632
 2920TIP3    H130175   0.574   1.269   2.582 -0.6617 -1.2755 -1.3587
 2920TIP3    H230176   0.425   1.284   2.562 -0.3343  1.0601 -2.4212
 2921TIP3   OH230177   5.724   5.028  11.476  0.0794 -0.3712 -0.2526
 2921TIP3    H130178   5.768   4.952  11.436 -2.0297 -1.1516 -1.2519
 2921TIP3    H230179   5.635   4.998  11.492 -0.6343  1.7115 -0.0623
 2922TIP3   OH230180   4.758   5.172  15.693  0.0733 -0.0152  0.1067
 2922TIP3    H130181   4.779   5.126  15.774 -0.7952 -1.0019 -0.2024
 2922TIP3    H230182   4.741   5.262  15.720 -1.4169 -0.5969  1.2207
 2923TIP3   OH230183   2.297   1.416  11.991  0.0829  0.1674 -0.2647
 2923TIP3    H130184   2.295   1.368  11.908  0.9049  0.2886 -0.3577
 2923TIP3    H230185   2.360   1.369  12.045  1.4388  1.5013 -0.6021
 2924TIP3   OH230186   5.475   3.512  13.169  0.1321  0.0083 -0.0748
 2924TIP3    H130187   5.400   3.515  13.110 -0.6510 -0.0101  0.8825
 2924TIP3    H230188   5.466   3.428  13.214  0.5501  0.1489  0.2777
 2925TIP3   OH230189   2.855   6.146  16.862 -0.3928  0.2828 -0.4823
 2925TIP3    H130190   2.804   6.109  16.790  0.6309  0.5647 -1.3975
 2925TIP3    H230191   2.803   6.219  16.894 -1.4349 -0.6160 -0.0973
 2926TIP3   OH230192   3.644   2.091   3.816  0.1239 -0.1377 -0.1036
 2926TIP3    H130193   3.703   2.083   3.741  0.1942  1.1420 -0.2058
 2926TIP3    H230194   3.701   2.099   3.892  0.0642 -0.4052 -0.0299
 2927TIP3   OH230195   1.322   0.644   2.512  0.0959  0.2069  0.8651
 2927TIP3    H130196   1.403   0.627   2.464 -1.4362 -1.6117 -1.3289
 2927TIP3    H230197   1.314   0.571   2.573 -0.7585 -0.7059 -0.2849
 2928TIP3   OH230198   1.103   5.080  13.822  0.0074  0.2240  0.2359
 2928TIP3    H130199   1.100   5.023  13.745  0.1963 -0.0155  0.4049
 2928TIP3    H230200   1.177   5.048  13.873 -0.4216  0.0548  0.7703
 2929TIP3   OH230201   6.752   0.689   0.502 -0.3177  0.1168 -0.5437
 2929TIP3    H130202   6.687   0.619   0.495 -1.7489  0.8884  2.8137
 2929TIP3    H230203   6.746   0.717   0.594  2.4981  2.4526 -0.9477
 2930TIP3   OH230204   0.260   2.896  16.239 -0.0262  0.3263 -0.1946
 2930TIP3    H130205   0.190   2.834  16.223 -0.2752  0.4209  0.4984
 2930TIP3    H230206   0.216   2.974  16.274  0.4925  0.0868  1.0386
 2931TIP3   OH230207   2.724   1.078   1.990 -0.2787  0.3499 -0.3386
 2931TIP3    H130208   2.774   1.050   2.067 -2.0419 -0.2967  0.6254
 2931TIP3    H230209   2.767   1.159   1.963  1.0362  0.0418  0.6803
 2932TIP3   OH230210   2.068   1.198   6.420  0.6753  0.4006 -0.4938
 2932TIP3    H130211   2.040   1.124   6.474 -0.6161  1.0052 -0.2793
 2932TIP3    H230212   2.120   1.253   6.478 -1.2063  1.3570  0.3996
 2933TIP3   OH230213   5.947   4.816  17.317 -0.1448  0.3403  0.0398
 2933TIP3    H130214   5.989   4.817  17.231  2.4336  0.3108  1.2073
 2933TIP3    H230215   5.952   4.906  17.347 -4.5089  1.2245 -1.2752
 2934TIP3   OH230216   0.562   1.553   0.797 -0.7249  0.2954  0.0144
 2934TIP3    H130217   0.503   1.482   0.770  0.8172 -1.3952  0.8434
 2934TIP3    H230218   0.649   1.522   0.773  0.1483  1.2161  1.8033
 2935TIP3   OH230219   3.054   1.753   1.659  1.0201  0.5661 -0.5293
 2935TIP3    H130220   3.055   1.816   1.731  0.6919  0.6240 -0.5717
 2935TIP3    H230221   3.031   1.805   1.582 -1.6531  0.0506 -0.1883
 2936TIP3   OH230222   0.768   2.127   3.626  0.4515 -0.2440 -1.0268
 2936TIP3    H130223   0.804   2.153   3.541  1.0339  1.8007 -0.2027
 2936TIP3    H230224   0.686   2.176   3.634  1.1550  0.8063  0.2071
 2937TIP3   OH230225   1.101   5.607  13.280 -0.4946 -0.3762  0.2161
 2937TIP3    H130226   1.190   5.623  13.311 -0.8002  1.9553  0.0162
 2937TIP3    H230227   1.113   5.564  13.196  0.3621 -2.8190  1.4702
 2938TIP3   OH230228   5.141   5.294   4.685 -0.1055 -0.3645  0.0663
 2938TIP3    H130229   5.176   5.383   4.681  0.6690 -0.5693  1.4628
 2938TIP3    H230230   5.055   5.305   4.728  0.1633 -0.3181  0.6057
 2939TIP3   OH230231   5.563   5.044   0.087  0.4727  0.1470 -0.7470
 2939TIP3    H130232   5.626   5.093   0.034 -0.0746  0.7819 -0.8314
 2939TIP3    H230233   5.553   5.096   0.167  0.1170  0.0125 -0.7015
 2940TIP3   OH230234   5.813   1.472   5.249 -0.1259 -0.0562 -0.2896
 2940TIP3    H130235   5.800   1.565   5.267 -1.8431 -0.0812 -1.1706
 2940TIP3    H230236   5.810   1.465   5.154 -0.2281 -1.0414 -0.2248
 2941TIP3   OH230237   0.121   1.504  16.644  0.2757  0.0438  0.6841
 2941TIP3    H130238   0.069   1.529  16.568  0.4004 -2.2110 -0.2242
 2941TIP3    H230239   0.211   1.503  16.612  0.1932 -2.3427  0.3710
 2942TIP3   OH230240   2.406   1.247  14.848  0.1887  0.4059 -0.1879
 2942TIP3    H130241   2.430   1.253  14.756  0.3715  1.7181 -0.0782
 2942TIP3    H230242   2.409   1.338  14.879  0.4810 -0.0560  1.1974
 2943TIP3   OH230243   3.471   1.486   2.864  0.1883  0.2414  0.3061
 2943TIP3    H130244   3.537   1.504   2.798 -1.5245  1.9419 -1.0669
 2943TIP3    H230245   3.477   1.559   2.926  1.4467 -1.0853  1.8450
 2944TIP3   OH230246   1.220   4.666  11.349  0.4643 -0.4184 -0.1762
 2944TIP3    H130247   1.235   4.593  11.289 -2.3473 -2.5784  1.5057
 2944TIP3    H230248   1.258   4.638  11.432 -0.2109  0.2481  0.3779
 2945TIP3   OH230249   3.578   6.564  16.423  0.0632 -0.5848  0.5220
 2945TIP3    H130250   3.524   6.642  16.439  1.8352  0.5163  1.5745
 2945TIP3    H230251   3.517   6.497  16.393 -1.8570  0.5881  1.6333
 2946TIP3   OH230252   2.431   0.390  15.532  0.7617  0.5017  0.2523
 2946TIP3    H130253   2.340   0.410  15.512 -0.1639  0.5615  3.8385
 2946TIP3    H230254   2.429   0.300  15.566  2.2042  0.2241 -0.3081
 2947TIP3   OH230255   5.741   6.470  16.003 -0.0481  0.3864 -0.1970
 2947TIP3    H130256   5.807   6.531  15.971  1.0925  0.2575  1.7019
 2947TIP3    H230257   5.688   6.521  16.064  0.1314 -0.1934  0.4647
 2948TIP3   OH230258   4.481   0.948   5.385  0.3623 -0.0709 -0.4250
 2948TIP3    H130259   4.388   0.925   5.377  0.2648  0.4489 -0.8434
 2948TIP3    H230260   4.507   0.912   5.470 -0.3628  0.2274 -0.0648
 2949TIP3   OH230261   4.339   1.088   3.922 -0.2412 -0.5009 -0.1019
 2949TIP3    H130262   4.353   1.160   3.983 -2.7513  0.3638 -0.4305
 2949TIP3    H230263   4.262   1.114   3.871  0.0132 -2.5058 -1.6570
 2950TIP3   OH230264   2.641   6.133   3.682  0.0853 -0.0930 -0.1656
 2950TIP3    H130265   2.597   6.062   3.728 -1.3917 -0.7958 -2.4649
 2950TIP3    H230266   2.570   6.191   3.655  0.8947  0.4392 -1.2361
 2951TIP3   OH230267   2.775   6.440   6.127  0.5520  0.3948  0.1129
 2951TIP3    H130268   2.803   6.393   6.048  0.1256  1.1118 -0.4895
 2951TIP3    H230269   2.697   6.394   6.156 -0.8998  1.7228 -1.4952
 2952TIP3   OH230270   0.737   6.208   2.949  0.4056 -0.1685 -0.1659
 2952TIP3    H130271   0.763   6.117   2.935  2.4203  0.5071 -1.1896
 2952TIP3    H230272   0.738   6.219   3.044 -2.1917 -1.7834  0.1558
 2953TIP3   OH230273   3.660   4.642   0.701  0.1532 -0.4249  0.3444
 2953TIP3    H130274   3.614   4.714   0.745 -0.3984 -0.6684  0.1772
 2953TIP3    H230275   3.634   4.564   0.749  0.5797 -0.5404  0.3890
 2954TIP3   OH230276   2.554   3.214   5.284  0.1812  0.1392  0.4664
 2954TIP3    H130277   2.538   3.237   5.376 -1.4165  1.0289 -0.0134
 2954TIP3    H230278   2.532   3.121   5.279 -0.0644  0.1721  0.9006
 2955TIP3   OH230279   0.084   2.054  14.212  0.9067  0.2524 -0.5381
 2955TIP3    H130280  -0.008   2.046  14.235  1.3957  2.3164  2.7007
 2955TIP3    H230281   0.084   2.087  14.122 -1.5654  1.7194 -0.0651
 2956TIP3   OH230282   6.272   4.155  12.678 -0.2720  0.7145 -0.5036
 2956TIP3    H130283   6.263   4.248  12.657 -0.0722  0.9772  0.5174
 2956TIP3    H230284   6.199   4.137  12.738 -0.8967 -0.0390 -1.4515
 2957TIP3   OH230285   1.825   1.302  11.509  0.3872 -0.1319 -0.7382
 2957TIP3    H130286   1.765   1.233  11.483 -0.3659 -0.6108  1.9081
 2957TIP3    H230287   1.844   1.283  11.601  0.9001  2.6254 -0.1807
 2958TIP3   OH230288   4.556   2.662  11.752  0.0866  0.1626 -0.5884
 2958TIP3    H130289   4.500   2.703  11.818 -0.2964 -0.3112 -0.6158
 2958TIP3    H230290   4.495   2.622  11.690  0.4082 -2.2534  0.5396
 2959TIP3   OH230291   1.419   3.258   1.669 -0.4881 -0.3913  0.1983
 2959TIP3    H130292   1.503   3.262   1.715  0.0004  1.5380 -0.7486
 2959TIP3    H230293   1.388   3.348   1.667 -0.2288 -0.2117 -3.6142
 2960TIP3   OH230294   0.087   4.644  15.365  0.1765 -0.0564 -0.3591
 2960TIP3    H130295   0.116   4.554  15.375  0.5043  0.0779 -0.0609
 2960TIP3    H230296   0.003   4.638  15.319 -1.2568 -0.7054  2.1611
 2961TIP3   OH230297   0.021   4.487  13.077 -0.1354 -0.3530 -0.0511
 2961TIP3    H130298   0.088   4.548  13.108  0.4578 -0.2616 -1.4630
 2961TIP3    H230299  -0.043   4.484  13.148  1.6599 -0.9499  1.6158
 2962TIP3   OH230300   4.415   2.686   2.095  0.6733  0.2866  0.1411
 2962TIP3    H130301   4.338   2.723   2.051 -0.4996 -2.1806 -0.0480
 2962TIP3    H230302   4.389   2.681   2.187  0.5365 -0.6688  0.0567
 2963TIP3   OH230303   5.014   1.951  12.280  0.0021  0.0218 -0.3686
 2963TIP3    H130304   5.061   1.870  12.259  1.3547  0.7937 -0.4144
 2963TIP3    H230305   5.082   2.018  12.285 -1.1860  1.3660 -1.3090
 2964TIP3   OH230306   2.353   5.766  14.095  0.3966 -0.0100 -0.3330
 2964TIP3    H130307   2.448   5.756  14.101  0.3567 -0.8086 -0.7861
 2964TIP3    H230308   2.325   5.695  14.036 -0.5631 -0.2384  0.3569
 2965TIP3   OH230309   1.404   2.554  16.379 -0.2872 -0.2947 -0.3860
 2965TIP3    H130310   1.381   2.638  16.338 -0.1238 -1.5959 -3.4075
 2965TIP3    H230311   1.338   2.542  16.447  0.3343  2.7447  0.9311
 2966TIP3   OH230312   0.105   3.056  11.782 -0.2840 -0.3882 -0.4946
 2966TIP3    H130313   0.122   3.147  11.756  3.4862 -1.3610 -2.1697
 2966TIP3    H230314   0.013   3.042  11.762 -1.4058  3.3609  1.1056
 2967TIP3   OH230315   5.166   6.056   0.223 -0.4537  0.0868  0.7249
 2967TIP3    H130316   5.094   6.099   0.178 -2.0351 -2.0057  1.1008
 2967TIP3    H230317   5.235   6.050   0.157 -1.4314  0.1873 -0.3422
 2968TIP3   OH230318   1.054   0.473  13.393  0.3503  0.0967  0.1458
 2968TIP3    H130319   1.125   0.424  13.352  0.7801  0.1397  0.8296
 2968TIP3    H230320   0.987   0.407  13.412 -0.4074  0.2602 -1.7521
 2969TIP3   OH230321   4.235   3.342  13.195 -0.1954 -0.3680  0.1598
 2969TIP3    H130322   4.236   3.251  13.227  0.2797 -0.2726  0.4162
 2969TIP3    H230323   4.247   3.395  13.274  0.6200 -0.1150 -0.1324
 2970TIP3   OH230324   4.869   6.685  11.597  0.6093 -0.2409  0.1709
 2970TIP3    H130325   4.917   6.762  11.567  1.2595 -0.9044 -0.5403
 2970TIP3    H230326   4.936   6.631  11.640  0.3359 -0.7760 -0.0611
 2971TIP3   OH230327   1.061   5.097   0.240 -0.3495 -0.5900  0.5815
 2971TIP3    H130328   1.149   5.128   0.263  0.7663 -2.2447 -1.0759
 2971TIP3    H230329   1.057   5.107   0.145 -2.1527 -0.1542  0.6789
 2972TIP3   OH230330   5.957   1.453  14.498 -0.3101 -0.1668  0.8651
 2972TIP3    H130331   5.928   1.428  14.586  0.5454 -0.0123  1.2008
 2972TIP3    H230332   5.885   1.429  14.441 -0.4964 -1.1350  1.4976
 2973TIP3   OH230333   2.354   4.971   1.088 -0.7173 -0.6372 -0.1748
 2973TIP3    H130334   2.279   5.030   1.083 -0.3640 -0.2493 -1.1610
 2973TIP3    H230335   2.325   4.890   1.048  0.0733  0.2965 -2.8908
 2974TIP3   OH230336   4.302   0.429  11.547 -0.2125 -0.4008 -0.3408
 2974TIP3    H130337   4.224   0.445  11.600 -0.4035 -0.0066 -0.7287
 2974TIP3    H230338   4.280   0.351  11.496 -0.7641  0.2774 -1.1835
 2975TIP3   OH230339   1.667   6.717  15.063 -0.4048  0.2193 -0.3992
 2975TIP3    H130340   1.576   6.727  15.091 -0.8172  0.5360 -1.7818
 2975TIP3    H230341   1.662   6.664  14.983  0.6778 -0.2142 -0.1977
 2976TIP3   OH230342   6.099   2.317  14.007  0.0216 -0.3956 -0.4054
 2976TIP3    H130343   6.064   2.381  14.068  2.6135  1.3937 -0.6391
 2976TIP3    H230344   6.165   2.270  14.057  0.0160 -1.0613 -1.0018
 2977TIP3   OH230345   6.311   4.857  16.478  0.4361 -0.0833 -0.2769
 2977TIP3    H130346   6.371   4.782  16.476  0.7422  0.1683 -0.9296
 2977TIP3    H230347   6.244   4.836  16.413  0.7636  0.3972 -0.7755
 2978TIP3   OH230348   2.332   0.780   6.059  0.3393 -0.5930  0.3217
 2978TIP3    H130349   2.240   0.801   6.043  1.1272  1.1331 -2.6124
 2978TIP3    H230350   2.358   0.837   6.131  0.5282  3.6134 -2.7437
 2979TIP3   OH230351   4.900   2.564   5.781 -0.2031  0.2144 -0.5653
 2979TIP3    H130352   4.899   2.621   5.704  2.3831  1.1689  0.0117
 2979TIP3    H230353   4.811   2.531   5.787 -0.9110  1.4317 -2.9792
 2980TIP3   OH230354   3.774   2.604   0.740  0.1065 -0.2195 -0.0980
 2980TIP3    H130355   3.865   2.613   0.710  0.3859  0.3191  0.8655
 2980TIP3    H230356   3.747   2.517   0.709 -0.0503  0.7318 -2.9286
 2981TIP3   OH230357   5.398   6.661   3.165 -0.7156 -0.5829  0.1240
 2981TIP3    H130358   5.318   6.609   3.156 -0.4292 -1.0333  0.1801
 2981TIP3    H230359   5.377   6.727   3.231 -0.9893 -0.7971  0.2503
 2982TIP3   OH230360   6.451   0.190   4.684  0.3315 -0.0343  0.1625
 2982TIP3    H130361   6.512   0.166   4.754  0.0586 -2.6168 -0.4084
 2982TIP3    H230362   6.475   0.133   4.610 -1.0374  0.8159 -0.9874
 2983TIP3   OH230363   1.146   4.467   5.523  0.2878  0.0665  0.2633
 2983TIP3    H130364   1.155   4.428   5.610  3.1882  0.0206  0.0417
 2983TIP3    H230365   1.143   4.393   5.463 -1.9985  0.0898  0.2703
 2984TIP3   OH230366   0.068   4.840   0.488  0.0137 -0.2710 -0.4930
 2984TIP3    H130367   0.075   4.935   0.484  1.1879 -0.2777  0.5805
 2984TIP3    H230368  -0.025   4.822   0.483 -0.1904  0.9062 -1.1704
 2985TIP3   OH230369   0.395   5.606   3.694  0.2987  0.6260 -0.2512
 2985TIP3    H130370   0.480   5.566   3.716  0.2460  0.7264  0.1476
 2985TIP3    H230371   0.343   5.534   3.658 -0.2774 -0.0219  1.7234
 2986TIP3   OH230372   6.433   2.358   3.063  0.4048  0.3811  0.2146
 2986TIP3    H130373   6.366   2.411   3.105 -0.2702  0.3372 -0.7628
 2986TIP3    H230374   6.478   2.313   3.135 -0.9008  0.0815  0.8724
 2987TIP3   OH230375   3.480   1.881  11.382  0.0268 -0.3452  0.1142
 2987TIP3    H130376   3.426   1.846  11.453 -1.9589  1.7260 -0.2197
 2987TIP3    H230377   3.432   1.858  11.302  1.3087 -1.1382 -0.4490
 2988TIP3   OH230378   1.102   3.692  13.428  0.4615  0.0062  0.9211
 2988TIP3    H130379   1.181   3.732  13.463  0.8158  1.4960 -1.3607
 2988TIP3    H230380   1.132   3.641  13.352 -0.5636 -0.8124  1.0448
 2989TIP3   OH230381   1.769   5.399  11.518  0.1053  0.1575  0.1602
 2989TIP3    H130382   1.720   5.377  11.597  0.1168 -0.0992  0.0953
 2989TIP3    H230383   1.702   5.412  11.451  0.1212 -0.1653  0.0787
 2990TIP3   OH230384   2.685   5.177   1.019  0.1632 -0.4121 -0.0619
 2990TIP3    H130385   2.726   5.241   0.961  0.9344 -2.2563 -1.6972
 2990TIP3    H230386   2.607   5.147   0.972  0.2734 -1.2578  0.2642
 2991TIP3   OH230387   5.526   0.113  14.665  0.3544  0.0255  0.4124
 2991TIP3    H130388   5.593   0.065  14.715  1.1209 -1.1951 -1.6511
 2991TIP3    H230389   5.575   0.156  14.595 -0.8354  0.6391 -0.0748
 2992TIP3   OH230390   6.655   0.807  16.406 -0.2513 -0.4842  0.1062
 2992TIP3    H130391   6.653   0.889  16.455 -1.1314 -1.2700  1.4598
 2992TIP3    H230392   6.674   0.833  16.316  0.9573  1.0549  0.7630
 2993TIP3   OH230393   2.523   0.099  13.697 -0.0889  0.2359 -0.5927
 2993TIP3    H130394   2.575   0.022  13.675 -0.1852  0.6507 -2.4407
 2993TIP3    H230395   2.557   0.128  13.781 -0.0478 -1.7983  0.1508
 2994TIP3   OH230396   6.663   6.183   2.031 -0.0097  0.2553 -0.0089
 2994TIP3    H130397   6.649   6.178   2.125 -1.5406 -0.9588 -0.2633
 2994TIP3    H230398   6.661   6.277   2.011 -0.4562  0.4840  1.0573
 2995TIP3   OH230399   0.921   1.982   1.403  0.2148  0.0287  0.4549
 2995TIP3    H130400   0.844   1.966   1.458  0.0393 -0.2126  0.1386
 2995TIP3    H230401   0.957   1.895   1.387  0.8580  0.1817  1.0410
 2996TIP3   OH230402   6.003   4.415   0.220  0.1221 -0.0616 -0.5659
 2996TIP3    H130403   5.942   4.381   0.286  1.0584 -0.9425 -0.1275
 2996TIP3    H230404   5.947   4.452   0.152 -0.8917 -0.7137 -0.1080
 2997TIP3   OH230405   4.332   5.741  12.011 -0.4613  0.6818 -0.0424
 2997TIP3    H130406   4.308   5.676  12.077 -0.1128  1.6323  1.0666
 2997TIP3    H230407   4.252   5.793  11.998 -0.3196  0.9648  0.2011
 2998TIP3   OH230408   5.784   3.885  10.841  0.2112 -0.4497 -0.4469
 2998TIP3    H130409   5.807   3.966  10.796 -4.1366  0.9739 -0.6309
 2998TIP3    H230410   5.862   3.861  10.891  2.9651  1.6185 -3.3903
 2999TIP3   OH230411   2.810   2.063  11.451  0.0708 -0.0390  0.1090
 2999TIP3    H130412   2.718   2.086  11.440  0.2284  0.6077  0.1043
 2999TIP3    H230413   2.823   1.987  11.394 -0.0177  1.0124 -1.3685
 3000TIP3   OH230414   2.791   3.970   2.361 -0.4968 -0.0600  0.3901
 3000TIP3    H130415   2.735   3.971   2.283  0.0667  2.6125 -0.0481
 3000TIP3    H230416   2.825   4.059   2.368  0.2550 -0.4755  3.1581
 3001TIP3   OH230417   5.569   2.993  16.878  0.3753  0.7065  0.1438
 3001TIP3    H130418   5.607   2.946  16.952  0.9548 -0.1369 -0.6603
 3001TIP3    H230419   5.492   3.037  16.914 -0.2783 -0.9723  0.9328
 3002TIP3   OH230420   0.095   1.551  17.231 -0.2639  0.0338  0.2210
 3002TIP3    H130421   0.053   1.589  17.309  0.7838  0.7144  0.4848
 3002TIP3    H230422   0.180   1.595  17.227  1.5540 -3.0642  1.1703
 3003TIP3   OH230423   3.285   3.627  13.964  0.0690  0.0756  0.4237
 3003TIP3    H130424   3.375   3.649  13.939 -0.1759 -1.4129 -2.2021
 3003TIP3    H230425   3.231   3.678  13.904 -0.7539 -0.5027  0.6660
 3004TIP3   OH230426   0.293   6.286   1.026  0.2504  0.1724 -0.2808
 3004TIP3    H130427   0.215   6.323   1.068  0.1355 -0.4918  0.1091
 3004TIP3    H230428   0.326   6.222   1.089 -0.6416 -1.7593 -1.6820
 3005TIP3   OH230429   6.130   4.382   1.074 -0.1376  0.0939 -0.3796
 3005TIP3    H130430   6.101   4.453   1.131  4.4722 -0.3112  2.9487
 3005TIP3    H230431   6.190   4.423   1.012 -0.8204 -0.3578 -1.3830
 3006TIP3   OH230432   5.216   1.254   1.795 -0.2946  0.1496  0.1906
 3006TIP3    H130433   5.206   1.281   1.887  1.0838 -0.6431  0.6100
 3006TIP3    H230434   5.190   1.162   1.794 -0.1080  0.0983 -0.1637
 3007TIP3   OH230435   2.537   2.403   2.711  0.3597  0.0818  0.4393
 3007TIP3    H130436   2.450   2.376   2.742 -0.6386  2.3839 -0.1785
 3007TIP3    H230437   2.522   2.438   2.623  1.5067  2.4404  1.0957
 3008TIP3   OH230438   1.013   3.977  16.333  0.4533 -0.0987 -0.0355
 3008TIP3    H130439   0.934   4.014  16.373  1.3978  0.9034  0.9357
 3008TIP3    H230440   1.033   4.037  16.261 -0.1100 -0.8129 -0.8176
 3009TIP3   OH230441   2.350   5.542  16.300  0.2978 -0.3765 -0.0533
 3009TIP3    H130442   2.295   5.619  16.282  1.0472  0.3728  0.7464
 3009TIP3    H230443   2.291   5.480  16.343  0.1163  0.5577  1.1243
 3010TIP3   OH230444   5.484   1.668   4.526  0.5345  0.3129  0.3592
 3010TIP3    H130445   5.531   1.689   4.445 -0.5846  2.0979  0.1315
 3010TIP3    H230446   5.442   1.584   4.508  1.9029 -0.3021 -0.1583
 3011TIP3   OH230447   1.704   3.781   5.124 -0.6574  0.4484  0.1057
 3011TIP3    H130448   1.783   3.729   5.142 -0.0279  1.6386  0.9790
 3011TIP3    H230449   1.734   3.849   5.064 -0.7373  1.5052  1.2114
 3012TIP3   OH230450   1.927   6.032   5.489 -0.3360  0.4120  0.4822
 3012TIP3    H130451   1.937   6.030   5.394  1.9857  2.3010  0.5951
 3012TIP3    H230452   1.934   5.940   5.517  1.1200  0.0392 -1.0091
 3013TIP3   OH230453   5.921   5.070   2.091  0.6732 -0.1792  0.2294
 3013TIP3    H130454   5.992   5.007   2.100  1.2817  0.4946  0.2528
 3013TIP3    H230455   5.946   5.142   2.149 -0.0737  0.0261  0.3053
 3014TIP3   OH230456   6.663   2.857   4.235  0.0709  0.6763  0.4645
 3014TIP3    H130457   6.634   2.767   4.254  0.8205  0.7593  2.1154
 3014TIP3    H230458   6.757   2.855   4.250  0.7925  0.8735 -3.0652
 3015TIP3   OH230459   5.435   4.690  14.606  0.0726 -0.1382  0.5040
 3015TIP3    H130460   5.427   4.776  14.648 -0.8380  1.1492 -2.0829
 3015TIP3    H230461   5.348   4.651  14.614  0.2563 -0.4588  0.9466
 3016TIP3   OH230462   6.738   3.799  13.374  0.4651  0.1603  0.1716
 3016TIP3    H130463   6.708   3.745  13.301 -0.9514  2.1998 -0.8469
 3016TIP3    H230464   6.817   3.842  13.342  1.4672 -1.0619  0.9036
 3017TIP3   OH230465   4.785   3.728   3.773  0.0842  0.6837 -0.0542
 3017TIP3    H130466   4.820   3.671   3.704  0.5155  0.5623  0.2606
 3017TIP3    H230467   4.826   3.696   3.853 -0.3150  0.9086  0.2417
 3018TIP3   OH230468   3.527   5.012   4.309 -0.2824 -0.2685 -0.3060
 3018TIP3    H130469   3.436   4.995   4.283 -0.3166 -1.1339  0.3179
 3018TIP3    H230470   3.526   5.005   4.405  0.1609  1.1752 -0.1770
 3019TIP3   OH230471   0.538   0.631   5.687  0.5099 -0.2040  0.1351
 3019TIP3    H130472   0.571   0.615   5.599  0.1672 -1.0834  0.1553
 3019TIP3    H230473   0.605   0.685   5.728  0.8296 -0.0671 -0.5551
 3020TIP3   OH230474   4.074   2.999  15.656 -0.2977  0.3995  0.4587
 3020TIP3    H130475   4.120   2.915  15.651  2.0108  1.3305  3.4558
 3020TIP3    H230476   3.991   2.978  15.699 -0.4386 -0.5085 -0.2107
 3021TIP3   OH230477   6.026   1.311  17.048 -0.0317  0.2079  0.2403
 3021TIP3    H130478   6.102   1.317  17.106  1.8007  0.3081 -2.0018
 3021TIP3    H230479   5.966   1.250  17.092  2.0078 -1.0551  1.4270
 3022TIP3   OH230480   2.532   3.661   0.222  0.3647  0.5160 -0.8830
 3022TIP3    H130481   2.462   3.721   0.247  1.1831  1.3212 -0.4878
 3022TIP3    H230482   2.526   3.655   0.126  0.0891  1.0005 -0.8974
 3023TIP3   OH230483   6.704   3.597   5.068 -0.2420 -0.5618 -0.1013
 3023TIP3    H130484   6.652   3.631   4.996  0.5233 -1.6066 -1.1930
 3023TIP3    H230485   6.667   3.511   5.087  0.0718 -0.6348  0.2106
 3024TIP3   OH230486   3.181   1.659  11.736  0.6797  0.2880 -0.5039
 3024TIP3    H130487   3.106   1.700  11.694  0.0593 -0.0068  0.2874
 3024TIP3    H230488   3.146   1.624  11.819  1.9186  1.1355  0.4079
 3025TIP3   OH230489   6.338   6.201   0.135  0.3805  0.4090 -0.1086
 3025TIP3    H130490   6.378   6.121   0.099 -0.1487 -0.5614  1.3788
 3025TIP3    H230491   6.412   6.260   0.149  0.8628 -0.0566 -0.6270
 3026TIP3   OH230492   1.294   5.338  16.142 -0.5734 -0.2888  0.1883
 3026TIP3    H130493   1.236   5.361  16.070 -0.0887  0.6051  0.0712
 3026TIP3    H230494   1.342   5.419  16.162 -2.1939  0.1131  2.9321
 3027TIP3   OH230495   1.786   1.429  14.319  0.3943  0.1406  0.3267
 3027TIP3    H130496   1.725   1.355  14.318  0.7840 -0.1825  0.2027
 3027TIP3    H230497   1.812   1.437  14.410  0.2896  0.1783  0.3541
 3028TIP3   OH230498   2.277   3.850   4.700  0.6811 -0.0134  0.2680
 3028TIP3    H130499   2.219   3.793   4.752 -0.7300  1.8018  0.7698
 3028TIP3    H230500   2.339   3.789   4.660 -1.5117 -2.0650 -0.2597
 3029TIP3   OH230501   6.419   3.725   0.594 -0.2380  0.0954 -0.0423
 3029TIP3    H130502   6.494   3.785   0.596 -0.6825  0.7189 -1.0487
 3029TIP3    H230503   6.390   3.719   0.685  0.8238  0.0994  0.3096
 3030TIP3   OH230504   3.905   2.809  11.094  0.1994  0.2798  0.2522
 3030TIP3    H130505   3.862   2.725  11.078  2.8668 -0.8707 -1.6441
 3030TIP3    H230506   3.890   2.860  11.015 -0.4179  1.1684  0.9231
 3031TIP3   OH230507   5.229   6.733  11.801  0.1384  0.1560  0.2218
 3031TIP3    H130508   5.256   6.674  11.871 -0.9673  0.1658  0.6679
 3031TIP3    H230509   5.303   6.731  11.739  0.6218 -0.7685  0.7996
 3032TIP3   OH230510   2.473   3.789   4.309 -0.4731 -0.4145  0.3139
 3032TIP3    H130511   2.477   3.845   4.386 -1.7348  0.2412 -0.0547
 3032TIP3    H230512   2.563   3.758   4.296  0.0154  0.5687  1.2234
 3033TIP3   OH230513   5.222   4.487  17.158  0.1160 -0.4576 -0.7004
 3033TIP3    H130514   5.267   4.571  17.166 -0.7881 -0.1076  1.8719
 3033TIP3    H230515   5.259   4.434  17.229 -1.0978 -1.3458 -0.7038
 3034TIP3   OH230516   2.650   6.736  11.507 -0.2408  0.0349 -0.2726
 3034TIP3    H130517   2.730   6.775  11.544 -1.3639  1.3172  0.9155
 3034TIP3    H230518   2.599   6.711  11.583 -1.1996 -0.2952 -1.0161
 3035TIP3   OH230519   5.930   3.546   2.307  0.0041  0.0645 -0.2369
 3035TIP3    H130520   5.920   3.482   2.237  0.5544 -0.6165  0.2925
 3035TIP3    H230521   5.844   3.588   2.315 -0.1138  0.0120 -1.1810
 3036TIP3   OH230522   3.935   5.538   2.861  0.1988  0.0207  0.4851
 3036TIP3    H130523   3.990   5.467   2.894 -0.0642  0.5299  2.1066
 3036TIP3    H230524   3.898   5.578   2.939 -0.4016  1.3576 -0.4432
 3037TIP3   OH230525   2.369   1.487  10.757 -0.2557  0.3067 -0.1784
 3037TIP3    H130526   2.450   1.536  10.773  0.3075 -0.1079 -1.5597
 3037TIP3    H230527   2.306   1.524  10.819  0.1966  2.6322 -0.9832
 3038TIP3   OH230528   2.329   4.851   2.484  0.1555  0.1863 -0.1181
 3038TIP3    H130529   2.345   4.766   2.526 -1.5899 -0.0764  0.0985
 3038TIP3    H230530   2.391   4.910   2.526  0.5125 -0.7140  0.6703
 3039TIP3   OH230531   5.820   2.885   2.108 -0.4413  0.2580 -0.1538
 3039TIP3    H130532   5.728   2.871   2.085 -0.2624  1.9320 -2.1935
 3039TIP3    H230533   5.861   2.800   2.096 -1.9122 -0.9093  2.2549
 3040TIP3   OH230534   2.452   5.663  17.184  0.0198  0.6042  0.1708
 3040TIP3    H130535   2.432   5.725  17.254 -2.9122  1.0508 -0.9228
 3040TIP3    H230536   2.484   5.717  17.112 -0.1258  0.5381  0.0560
 3041TIP3   OH230537   3.819   0.042  11.788  0.0941  0.5129  0.3296
 3041TIP3    H130538   3.842  -0.016  11.860  1.9783 -4.9135 -3.9504
 3041TIP3    H230539   3.726   0.023  11.770  0.5810 -1.0671 -0.7572
 3042TIP3   OH230540   3.872   6.618  14.186  0.2367 -0.4442 -0.2655
 3042TIP3    H130541   3.776   6.613  14.183  0.0663  2.0082 -0.6942
 3042TIP3    H230542   3.901   6.554  14.120 -1.1194 -0.7710 -0.5824
 3043TIP3   OH230543   6.389   5.153  12.609  0.4814 -0.0152 -0.4599
 3043TIP3    H130544   6.325   5.104  12.557 -0.8525  0.4984  0.6446
 3043TIP3    H230545   6.337   5.213  12.661  1.8510  0.1788  0.7587
 3044TIP3   OH230546   2.127   0.219   0.279 -0.2528  0.1203  0.0395
 3044TIP3    H130547   2.201   0.242   0.336 -0.5205  0.7497  0.1320
 3044TIP3    H230548   2.067   0.171   0.336 -1.7675  2.9825  1.0414
 3045TIP3   OH230549   5.095   2.413   5.242  0.1664 -0.1519 -0.0480
 3045TIP3    H130550   5.001   2.431   5.234  0.2796  0.7104  0.4520
 3045TIP3    H230551   5.127   2.480   5.301  1.1721 -0.2295 -0.4935
 3046TIP3   OH230552   5.228   6.370  11.478 -0.7799  0.2477 -0.4150
 3046TIP3    H130553   5.238   6.279  11.453  0.7785  0.3065 -0.0869
 3046TIP3    H230554   5.270   6.419  11.408 -1.8356  0.7572 -0.7252
 3047TIP3   OH230555   1.388   1.679   3.677  0.2925  0.4772  0.2188
 3047TIP3    H130556   1.352   1.609   3.731  2.8513 -0.6004  0.6905
 3047TIP3    H230557   1.317   1.703   3.618 -0.4755 -3.1583 -0.5756
 3048TIP3   OH230558   5.089   6.081   3.995 -0.0665 -0.3931  0.6151
 3048TIP3    H130559   5.024   6.112   4.057 -0.8653 -1.4393  0.3211
 3048TIP3    H230560   5.144   6.021   4.046  1.9536  1.9291  1.3868
 3049TIP3   OH230561   6.726   6.710  16.501 -0.2751  0.1091  0.1032
 3049TIP3    H130562   6.788   6.664  16.445 -0.1971  0.4541 -0.0966
 3049TIP3    H230563   6.647   6.718  16.448 -1.1346 -1.9573  1.0086
 3050TIP3   OH230564   4.566   2.098  14.491  0.4260 -0.5429  0.5778
 3050TIP3    H130565   4.570   2.191  14.509 -0.3309 -0.2416 -0.6634
 3050TIP3    H230566   4.657   2.072  14.474  0.3247  0.7853 -2.6836
 3051TIP3   OH230567   1.575   2.533  11.788  0.1596 -0.1908  0.6062
 3051TIP3    H130568   1.623   2.533  11.871 -0.9974  1.3833  1.3458
 3051TIP3    H230569   1.484   2.552  11.814  0.1419  2.6905 -1.1431
 3052TIP3   OH230570   6.687   1.090  10.675 -0.1465  0.7411  0.3876
 3052TIP3    H130571   6.701   1.022  10.610  0.8278 -0.1158  1.4473
 3052TIP3    H230572   6.774   1.122  10.696 -0.4571  1.1482  1.0992
 3053TIP3   OH230573   5.318   5.078   5.693  0.2773 -0.2379  0.4987
 3053TIP3    H130574   5.397   5.042   5.733  1.1416  1.0269 -0.0054
 3053TIP3    H230575   5.314   5.039   5.606  1.6261  1.3394 -0.3340
 3054TIP3   OH230576   5.607   5.114   3.607  0.0691 -0.5246 -0.2181
 3054TIP3    H130577   5.580   5.135   3.697  0.8649 -0.1457 -0.0616
 3054TIP3    H230578   5.533   5.064   3.572 -1.9206  2.3836 -0.5696
 3055TIP3   OH230579   6.074   0.152   2.327  0.1404  0.0371 -0.4180
 3055TIP3    H130580   6.169   0.145   2.329  0.1438 -1.3707 -2.3679
 3055TIP3    H230581   6.057   0.242   2.299  0.7948  0.9590  1.9515
 3056TIP3   OH230582   4.691   4.656  14.779  0.5992 -0.2192  0.1298
 3056TIP3    H130583   4.733   4.718  14.719 -2.1686  1.0464 -0.6756
 3056TIP3    H230584   4.653   4.712  14.847  1.9368 -1.4825  2.0258
 3057TIP3   OH230585   4.021   3.016  11.902 -0.0511  0.5329  1.3099
 3057TIP3    H130586   3.995   2.931  11.866 -1.0074  0.9101  1.0844
 3057TIP3    H230587   3.939   3.062  11.918  0.4607  1.5157  1.2060
 3058TIP3   OH230588   3.074   2.364  11.645  0.3019 -0.1091 -0.1502
 3058TIP3    H130589   3.083   2.353  11.740  1.0315  2.0172  0.0646
 3058TIP3    H230590   3.078   2.274  11.611  0.7321 -0.8708  1.7658
 3059TIP3   OH230591   6.301   1.713  16.033 -0.0344 -0.2486 -0.1400
 3059TIP3    H130592   6.246   1.742  16.105 -0.9708 -0.8738 -0.5904
 3059TIP3    H230593   6.250   1.730  15.954  1.0512  0.6044 -0.6886
 3060TIP3   OH230594   0.459   5.378   1.663 -0.1083 -0.1467 -0.5325
 3060TIP3    H130595   0.489   5.466   1.688 -3.4385  1.9870 -3.0956
 3060TIP3    H230596   0.524   5.348   1.600  2.4342 -0.8088  2.1922
 3061TIP3   OH230597   0.200   3.066  15.871 -0.6890  0.5556 -0.0271
 3061TIP3    H130598   0.266   3.099  15.932 -0.3207 -2.0553  1.1658
 3061TIP3    H230599   0.204   3.125  15.796  2.7726  0.7231  0.1291
 3062TIP3   OH230600   5.496   5.397  12.875  0.2990  0.0016 -0.2933
 3062TIP3    H130601   5.516   5.395  12.968 -0.3542  0.3026 -0.1372
 3062TIP3    H230602   5.566   5.347  12.834  0.1691 -0.7970  0.4338
 3063TIP3   OH230603   0.598   4.148  12.526 -0.2692  0.3299 -0.0197
 3063TIP3    H130604   0.637   4.064  12.502  0.2785 -0.0732  2.0644
 3063TIP3    H230605   0.515   4.150  12.479 -0.1750 -1.2697 -0.3276
 3064TIP3   OH230606   1.781   3.755  14.583 -0.2053 -0.3441  0.0917
 3064TIP3    H130607   1.727   3.677  14.573 -0.4073 -0.1771 -0.1430
 3064TIP3    H230608   1.759   3.809  14.507  0.0632 -0.1373  0.1601
 3065TIP3   OH230609   0.516   5.682   3.391 -0.2062 -0.3204 -0.3305
 3065TIP3    H130610   0.466   5.604   3.416  1.5700 -2.2180 -2.1917
 3065TIP3    H230611   0.474   5.754   3.438 -1.2595 -2.5319  2.4458
 3066TIP3   OH230612   5.704   4.293   1.680 -0.4289  0.1349  0.4348
 3066TIP3    H130613   5.680   4.376   1.638 -2.8838  0.6699  2.5524
 3066TIP3    H230614   5.707   4.229   1.609 -3.5711  1.1090 -0.7392
 3067TIP3   OH230615   4.393   3.508   5.080  0.3129 -0.5792 -0.3845
 3067TIP3    H130616   4.423   3.417   5.079 -1.9250 -1.3821 -2.3506
 3067TIP3    H230617   4.452   3.554   5.021  1.1499 -0.8202  0.2417
 3068TIP3   OH230618   4.583   2.340   3.433 -0.0027 -0.1586  0.0045
 3068TIP3    H130619   4.567   2.362   3.524 -0.2186  0.7371 -0.2414
 3068TIP3    H230620   4.535   2.405   3.383 -1.9291 -2.0805 -0.7941
 3069TIP3   OH230621   1.320   2.078  12.750  0.4930  0.3025 -0.5553
 3069TIP3    H130622   1.230   2.073  12.717  0.2808  0.3916  0.0090
 3069TIP3    H230623   1.354   2.160  12.713  0.0621  0.7008 -0.0755
 3070TIP3   OH230624   4.075   3.516   0.766 -0.0436 -0.2991 -0.3509
 3070TIP3    H130625   4.077   3.601   0.810  1.4537 -0.1973 -0.5382
 3070TIP3    H230626   3.984   3.503   0.740 -0.9051 -0.1204  2.2853
 3071TIP3   OH230627   5.233   0.197   4.445  0.0743 -0.0222  0.1783
 3071TIP3    H130628   5.187   0.163   4.522 -0.5138 -0.3942 -0.3322
 3071TIP3    H230629   5.167   0.200   4.376  0.3035  1.4115 -0.0209
 3072TIP3   OH230630   6.718   5.199   2.915  0.4905 -0.3031  0.1135
 3072TIP3    H130631   6.726   5.105   2.928  0.8826 -0.0259  2.4320
 3072TIP3    H230632   6.808   5.230   2.902  0.4047 -0.1964 -0.2390
 3073TIP3   OH230633   2.866   1.637  16.315 -0.7607 -0.6033  0.2822
 3073TIP3    H130634   2.950   1.668  16.348 -0.2012 -1.5168 -0.2502
 3073TIP3    H230635   2.810   1.715  16.316  0.7522  0.5963 -1.4927
 3074TIP3   OH230636   5.153   6.472   2.621 -0.1965 -0.0922  0.1815
 3074TIP3    H130637   5.241   6.447   2.650 -0.6279  1.1362  2.8600
 3074TIP3    H230638   5.167   6.515   2.537  1.6028 -1.1337 -0.0947
 3075TIP3   OH230639   3.082   1.153   6.340  0.8254  0.2406  0.4813
 3075TIP3    H130640   2.999   1.110   6.359  0.7216  0.4700  0.5495
 3075TIP3    H230641   3.060   1.225   6.281  0.9596  0.3604  0.5739
 3076TIP3   OH230642   1.202   1.780  11.561  0.5871  0.1567 -0.2169
 3076TIP3    H130643   1.292   1.766  11.532  0.6744  0.2662  0.0025
 3076TIP3    H230644   1.195   1.732  11.644  0.8101  1.1641  0.4045
 3077TIP3   OH230645   5.284   4.505  16.665 -0.0482  0.2321  0.6023
 3077TIP3    H130646   5.286   4.435  16.731  0.3301  0.3403  0.7045
 3077TIP3    H230647   5.342   4.572  16.700  1.8389 -0.5710 -0.8317
 3078TIP3   OH230648   6.477   4.362   1.269 -0.6017  0.9365  0.4621
 3078TIP3    H130649   6.389   4.331   1.249 -0.8192  1.1630  1.0780
 3078TIP3    H230650   6.518   4.289   1.315  0.8870 -0.7900 -3.1691
 3079TIP3   OH230651   3.692   6.566   0.511  0.0066 -0.1653 -0.0899
 3079TIP3    H130652   3.648   6.602   0.433  0.1614 -1.2485 -0.6951
 3079TIP3    H230653   3.696   6.472   0.494 -1.1701 -0.6098  1.8534
 3080TIP3   OH230654   0.596   4.817   3.347  0.2406 -0.4511  0.1651
 3080TIP3    H130655   0.603   4.751   3.416 -1.7127 -0.3453  0.5242
 3080TIP3    H230656   0.509   4.857   3.360  0.4136  0.5713 -1.4663
 3081TIP3   OH230657   5.225   3.873   2.523  0.3028  0.4661  0.0250
 3081TIP3    H130658   5.280   3.794   2.516  0.2617  0.4745 -0.3713
 3081TIP3    H230659   5.174   3.858   2.603 -1.0920 -0.7929 -1.0353
 3082TIP3   OH230660   3.077   6.552  12.854 -0.3811 -0.3832 -0.6149
 3082TIP3    H130661   3.008   6.499  12.814 -0.3266 -1.9690  1.2401
 3082TIP3    H230662   3.156   6.529  12.806 -0.4987 -1.4107 -0.3258
 3083TIP3   OH230663   4.153   2.594  14.587 -0.2787  0.2456 -0.2353
 3083TIP3    H130664   4.246   2.615  14.583 -0.1303 -0.4028 -0.3301
 3083TIP3    H230665   4.140   2.555  14.674 -0.5759  0.8332 -0.0074
 3084TIP3   OH230666   2.871   1.170   3.282  0.2362  0.1284  0.0571
 3084TIP3    H130667   2.807   1.111   3.322  0.8997  0.0604  1.0403
 3084TIP3    H230668   2.956   1.136   3.310  0.6620  0.9856 -0.1696
 3085TIP3   OH230669   0.671   5.890  15.687  0.5522  0.2630  0.0759
 3085TIP3    H130670   0.616   5.938  15.748  1.3040 -0.5426  1.4510
 3085TIP3    H230671   0.613   5.867  15.614 -1.1372 -1.1065  1.7541
 3086TIP3   OH230672   6.535   0.048   4.390  0.7786  0.1596  0.6659
 3086TIP3    H130673   6.628   0.025   4.395  0.9495  0.8082  0.5044
 3086TIP3    H230674   6.510   0.023   4.301  1.1442  1.2167  0.2450
 3087TIP3   OH230675   2.161   2.255   4.004 -0.3386  0.8344 -0.3735
 3087TIP3    H130676   2.102   2.329   4.013 -1.5805 -0.2192  0.6371
 3087TIP3    H230677   2.166   2.217   4.092 -4.1204 -3.4619 -1.6114
 3088TIP3   OH230678   1.106   1.202   0.545 -0.2631  0.2284 -0.3332
 3088TIP3    H130679   1.044   1.230   0.478  1.2461  1.1503 -1.4087
 3088TIP3    H230680   1.121   1.109   0.526 -2.3416 -0.4161  0.8447
 3089TIP3   OH230681   4.219   2.032  12.664  0.5866 -0.4427 -0.1589
 3089TIP3    H130682   4.170   1.958  12.701 -0.0485 -0.3208 -0.7450
 3089TIP3    H230683   4.253   1.998  12.581  1.2533 -0.4280  0.0985
 3090TIP3   OH230684   3.383   0.834   5.794 -1.1664 -0.1850  0.2786
 3090TIP3    H130685   3.327   0.911   5.790 -0.9348  0.0467  1.1251
 3090TIP3    H230686   3.341   0.777   5.858 -0.5596 -0.0960  0.7716
 3091TIP3   OH230687   6.475   6.129  14.074  0.4407  0.7793 -0.5168
 3091TIP3    H130688   6.551   6.125  14.132 -0.2959  0.1913  0.4325
 3091TIP3    H230689   6.422   6.054  14.098 -0.1594  0.8407 -1.5844
 3092TIP3   OH230690   3.682   0.570   2.021 -0.5114 -0.4491  1.1340
 3092TIP3    H130691   3.593   0.569   1.984  0.0880 -0.0726 -0.4124
 3092TIP3    H230692   3.683   0.499   2.084 -1.8329 -0.6312  0.9819
 3093TIP3   OH230693   2.515   1.793   1.255 -0.0964  0.2410 -0.0714
 3093TIP3    H130694   2.472   1.726   1.202  1.4700  1.1315 -2.7044
 3093TIP3    H230695   2.608   1.772   1.249  0.3104  1.8072  0.2651
 3094TIP3   OH230696   5.712   5.216  14.369 -0.0313 -0.1259  0.1577
 3094TIP3    H130697   5.769   5.152  14.412 -0.8218  0.3160  1.9062
 3094TIP3    H230698   5.770   5.261  14.307  1.1935 -0.6473  0.8879
 3095TIP3   OH230699   1.788   3.518  13.815 -1.0313 -0.4056  0.2363
 3095TIP3    H130700   1.807   3.460  13.889  3.5566  0.8135  0.3164
 3095TIP3    H230701   1.755   3.598  13.855 -1.9407 -0.9272  0.5787
 3096TIP3   OH230702   1.931   5.631   1.565  0.4281  0.2934  0.1242
 3096TIP3    H130703   1.937   5.717   1.608  1.6334  0.3684 -0.1440
 3096TIP3    H230704   2.006   5.630   1.505  1.0368 -1.3461  0.8734
 3097TIP3   OH230705   1.513   6.022  10.992  0.0882 -0.0616 -0.2130
 3097TIP3    H130706   1.528   5.953  10.927  1.0848 -0.6498  0.6125
 3097TIP3    H230707   1.578   6.090  10.970  1.6944 -1.0516  1.2089
 3098TIP3   OH230708   2.026   2.363   1.420  0.1105  0.0408  0.0362
 3098TIP3    H130709   2.082   2.440   1.417  0.0272  0.1526  0.9253
 3098TIP3    H230710   1.938   2.397   1.405  0.3350 -0.2369 -2.1346
 3099TIP3   OH230711   6.620   0.014   0.383 -0.1760 -0.1830 -0.3291
 3099TIP3    H130712   6.567  -0.065   0.395 -2.3373  1.3469  0.8410
 3099TIP3    H230713   6.635   0.047   0.472  0.2076  1.0172 -0.8182
 3100TIP3   OH230714   1.331   6.677  12.597 -0.0446 -0.2399  0.6249
 3100TIP3    H130715   1.263   6.740  12.621 -0.9865 -1.6114  1.6472
 3100TIP3    H230716   1.298   6.635  12.517  0.7950  0.8233 -0.3232
 3101TIP3   OH230717   4.993   3.852   2.685  0.0083 -0.2098  0.1055
 3101TIP3    H130718   4.961   3.904   2.612  1.9615  1.5842  0.4233
 3101TIP3    H230719   4.987   3.910   2.761  2.6747 -0.1702  0.3921
 3102TIP3   OH230720   5.535   1.506  15.723  0.4902  0.3366  0.2158
 3102TIP3    H130721   5.576   1.583  15.684 -0.7642  0.7159 -0.4220
 3102TIP3    H230722   5.452   1.496  15.676  0.5312 -1.3044  0.4126
 3103TIP3   OH230723   1.178   3.221   1.502 -0.5543  0.4383  0.4835
 3103TIP3    H130724   1.184   3.126   1.489  0.1767  0.4727  0.4945
 3103TIP3    H230725   1.247   3.240   1.565 -0.9610  0.9275  0.7873
 3104TIP3   OH230726   3.568   1.513   6.003  0.5908  0.4102  0.1347
 3104TIP3    H130727   3.497   1.458   5.971  1.2195  0.1213 -0.7949
 3104TIP3    H230728   3.571   1.495   6.097 -0.3151  0.1477  0.1283
 3105TIP3   OH230729   6.109   0.280   0.435  0.0646 -0.5211  0.2419
 3105TIP3    H130730   6.187   0.254   0.385  1.0347 -1.9430  2.3467
 3105TIP3    H230731   6.103   0.375   0.421  0.6492 -0.7622 -1.9924
 3106TIP3   OH230732   5.978   0.751   4.321 -0.2977  0.1217  0.0949
 3106TIP3    H130733   6.018   0.828   4.280 -1.3018 -0.4150 -2.1048
 3106TIP3    H230734   6.051   0.692   4.340  0.6142  1.9892  2.8618
 3107TIP3   OH230735   4.060   0.881  13.095 -0.9525 -0.1537  0.7331
 3107TIP3    H130736   4.053   0.971  13.062 -1.7776 -1.0042 -1.6527
 3107TIP3    H230737   4.135   0.882  13.153  1.7036  1.2421 -2.3977
 3108TIP3   OH230738   4.927   0.774  16.985 -0.6379 -0.2616 -0.7293
 3108TIP3    H130739   4.930   0.847  16.924 -0.7685  0.3750  0.0160
 3108TIP3    H230740   4.851   0.792  17.041  0.4355  0.0381  0.6886
 3109TIP3   OH230741   1.789   0.924  15.294  0.5388  0.0013  0.2874
 3109TIP3    H130742   1.735   0.973  15.357  0.4630  0.5997 -0.2405
 3109TIP3    H230743   1.734   0.849  15.269  0.2026  0.2664  0.2318
 3110TIP3   OH230744   2.898   1.899  12.324 -0.3419 -0.1020 -0.4811
 3110TIP3    H130745   2.874   1.967  12.387  0.8068  0.2495 -0.3928
 3110TIP3    H230746   2.819   1.883  12.273 -0.9612  0.4326  0.2985
 3111TIP3   OH230747   1.372   1.768   2.000 -0.2344  0.3453 -0.5796
 3111TIP3    H130748   1.374   1.782   1.905 -0.1271 -0.0991 -0.6466
 3111TIP3    H230749   1.420   1.843   2.036 -0.8694  0.8788 -0.8264
 3112TIP3   OH230750   2.515   4.247  12.048  0.2812  0.0677 -0.2515
 3112TIP3    H130751   2.511   4.320  12.110 -1.8339 -0.5183  0.3890
 3112TIP3    H230752   2.557   4.176  12.097 -0.6821 -0.1520  0.2814
 3113TIP3   OH230753   4.629   0.249  14.820 -0.3077 -0.0745 -0.3208
 3113TIP3    H130754   4.561   0.298  14.774 -0.8930 -0.8799 -0.3383
 3113TIP3    H230755   4.638   0.168  14.770 -0.4703 -0.6665  0.5823
 3114TIP3   OH230756   0.018   2.577   3.757 -0.2211  0.2118  0.2784
 3114TIP3    H130757   0.071   2.636   3.703  1.1444 -1.0215  0.1943
 3114TIP3    H230758  -0.023   2.518   3.695 -1.2299  0.7796  0.3912
 3115TIP3   OH230759   5.376   3.677   0.521  0.0102 -0.3635  0.2928
 3115TIP3    H130760   5.398   3.634   0.439 -0.7565 -0.7616  0.2861
 3115TIP3    H230761   5.451   3.658   0.579 -0.5592 -2.2396  0.4820
 3116TIP3   OH230762   4.066   5.802   1.383  0.1042 -0.1665 -0.0175
 3116TIP3    H130763   4.050   5.713   1.412 -1.8099 -0.5922 -2.0619
 3116TIP3    H230764   4.113   5.792   1.300  0.2668  0.7383 -0.0463
 3117TIP3   OH230765   4.536   1.113  12.038 -0.0132  0.1379 -1.1356
 3117TIP3    H130766   4.472   1.088  11.971 -1.2450  0.1339  0.0045
 3117TIP3    H230767   4.588   1.034  12.053 -0.2948 -0.1106 -1.4693
 3118TIP3   OH230768   6.049   2.268  16.865 -0.0786 -0.0879  0.1385
 3118TIP3    H130769   6.107   2.210  16.915  1.5088 -0.5273 -2.0644
 3118TIP3    H230770   6.104   2.341  16.839 -0.6622 -0.1661 -1.4359
 3119TIP3   OH230771   5.284   3.531  11.911  0.6096  0.1064  0.6016
 3119TIP3    H130772   5.311   3.600  11.851 -1.1780 -1.2156 -1.9165
 3119TIP3    H230773   5.365   3.487  11.935  1.5426  1.7042  0.5541
 3120TIP3   OH230774   1.307   6.578   3.488 -0.5132  0.1742 -0.0604
 3120TIP3    H130775   1.294   6.633   3.411 -0.2416 -0.1533 -0.3463
 3120TIP3    H230776   1.327   6.639   3.559 -0.2613  0.4443 -0.3630
 3121TIP3   OH230777   6.601   5.683   1.314  0.0438 -0.4344 -0.2259
 3121TIP3    H130778   6.653   5.640   1.383  2.7356  1.0194 -1.1990
 3121TIP3    H230779   6.601   5.620   1.242  1.4184 -0.0465 -0.5894
 3122TIP3   OH230780   2.926   2.607  15.707  0.2642  0.6523  0.0936
 3122TIP3    H130781   2.880   2.650  15.778  0.7068 -0.5633  1.1579
 3122TIP3    H230782   2.961   2.526  15.746  1.7212  0.6380 -1.1333
 3123TIP3   OH230783   5.904   3.334   0.747  0.7241 -0.1855  0.4231
 3123TIP3    H130784   5.997   3.321   0.726  0.7107  1.3339 -0.7993
 3123TIP3    H230785   5.891   3.429   0.739  0.0177  0.3139  4.8903
 3124TIP3   OH230786   6.524   0.404   2.150  0.6174  0.1396 -0.0404
 3124TIP3    H130787   6.535   0.487   2.195  1.5268 -0.5037  0.9851
 3124TIP3    H230788   6.534   0.338   2.219 -1.4406 -0.8138 -0.5669
 3125TIP3   OH230789   6.740   1.398   3.243  0.4547  0.1283 -0.3568
 3125TIP3    H130790   6.802   1.468   3.220 -1.9632  2.5460 -0.0979
 3125TIP3    H230791   6.755   1.383   3.336  1.0375  0.2673 -0.4222
 3126TIP3   OH230792   2.318   6.099  13.116  0.1076  0.3269 -0.4089
 3126TIP3    H130793   2.308   6.170  13.053 -0.2663  0.1890 -0.5069
 3126TIP3    H230794   2.382   6.132  13.179  0.4700  0.4719 -0.8457
 3127TIP3   OH230795   0.412   5.491   2.652  0.3173  0.4019 -0.1684
 3127TIP3    H130796   0.462   5.411   2.665 -1.0388 -0.3808  0.5252
 3127TIP3    H230797   0.476   5.556   2.623  1.4716 -0.8907 -0.6149
 3128TIP3   OH230798   4.739   4.452  12.725 -0.6914 -0.4183 -0.6056
 3128TIP3    H130799   4.704   4.541  12.718  0.7287  0.2259  0.1509
 3128TIP3    H230800   4.833   4.461  12.706 -0.0182 -1.3328  1.8686
 3129TIP3   OH230801   5.424   3.554   3.637  0.1812 -0.3101  0.2030
 3129TIP3    H130802   5.471   3.631   3.671 -0.0574  0.1886 -0.5556
 3129TIP3    H230803   5.390   3.511   3.714  0.1671  0.4548  0.6389
 3130TIP3   OH230804   2.915   2.299   2.400 -0.1068 -0.6872 -0.4280
 3130TIP3    H130805   2.938   2.387   2.371  2.4767 -0.6191  1.4473
 3130TIP3    H230806   2.932   2.243   2.324  1.4696  0.0657 -0.6728
 3131TIP3   OH230807   1.550   1.000   4.745 -0.3925  0.2250  0.2579
 3131TIP3    H130808   1.549   1.061   4.818  0.2515  0.5893 -0.0258
 3131TIP3    H230809   1.463   0.962   4.744 -0.9062  1.3483  0.2798
 3132TIP3   OH230810   4.772   1.511   3.176  0.1786  0.3624 -0.2958
 3132TIP3    H130811   4.711   1.557   3.119 -0.6110  0.8521  0.8902
 3132TIP3    H230812   4.716   1.463   3.238  0.9893  0.3411  0.4450
 3133TIP3   OH230813   1.507   0.656   0.772  0.1692  0.1653 -0.0241
 3133TIP3    H130814   1.442   0.721   0.799  0.4322 -0.0066  1.0842
 3133TIP3    H230815   1.468   0.613   0.696 -1.0594  0.0158  0.6612
 3134TIP3   OH230816   0.455   3.938  16.811  0.0248  0.6960  0.2090
 3134TIP3    H130817   0.447   4.029  16.782  0.0176  1.0290  1.2209
 3134TIP3    H230818   0.439   3.941  16.905 -0.8391 -0.4843  0.1212
 3135TIP3   OH230819   3.111   4.747  16.185  0.6762 -0.6087  0.1185
 3135TIP3    H130820   3.098   4.765  16.278  0.1526 -2.0216  0.3317
 3135TIP3    H230821   3.159   4.824  16.153  0.3827  0.1537  1.4224
 3136TIP3   OH230822   6.660   1.881   2.304 -0.3492 -0.0521  0.3043
 3136TIP3    H130823   6.577   1.927   2.319 -0.4316 -0.3290  0.7090
 3136TIP3    H230824   6.710   1.940   2.248 -0.3499  0.6467  1.0320
 3137TIP3   OH230825   0.940   6.412   1.528  0.1047  0.6478  0.3593
 3137TIP3    H130826   0.900   6.331   1.559 -0.6783  1.0594  0.4432
 3137TIP3    H230827   1.032   6.389   1.514  0.3056  0.1993  2.1156
 3138TIP3   OH230828   4.243   6.553   4.218  0.3891  0.3598  0.0271
 3138TIP3    H130829   4.236   6.612   4.293  1.9290 -1.3761  1.6400
 3138TIP3    H230830   4.324   6.578   4.174  0.9249 -0.3924  0.5786
 3139TIP3   OH230831   2.866   1.025  11.116  0.2440  0.1424 -0.2033
 3139TIP3    H130832   2.886   1.040  11.208  0.1279  1.7480 -0.4004
 3139TIP3    H230833   2.949   1.043  11.071 -0.3663  2.2847 -0.6220
 3140TIP3   OH230834   5.250   4.312  12.671 -0.2246 -0.3600  0.6580
 3140TIP3    H130835   5.304   4.270  12.739  0.1125 -0.1731  0.5074
 3140TIP3    H230836   5.312   4.339  12.604 -0.2172  1.7808  1.4524
 3141TIP3   OH230837   6.682   4.426  12.832 -0.9937  0.1021 -0.4319
 3141TIP3    H130838   6.704   4.439  12.925 -1.4241  0.0569 -0.3217
 3141TIP3    H230839   6.742   4.484  12.785 -0.2640 -0.4283 -0.1682
 3142TIP3   OH230840   1.931   1.253   5.477  0.7267  0.0765  0.2874
 3142TIP3    H130841   1.995   1.260   5.406 -0.7290 -0.0468 -1.0789
 3142TIP3    H230842   1.984   1.243   5.556  2.3914 -1.0513 -0.9112
 3143TIP3   OH230843   6.364   6.153  15.388 -0.4831 -0.2221 -0.1548
 3143TIP3    H130844   6.321   6.160  15.474  0.7612  1.8427  0.3828
 3143TIP3    H230845   6.316   6.085  15.342 -1.4617 -1.0876  2.0318
 3144TIP3   OH230846   3.099   5.038   4.216 -0.1251  0.5298  0.2585
 3144TIP3    H130847   3.015   4.993   4.220 -0.3404  0.9992  1.3214
 3144TIP3    H230848   3.077   5.131   4.219  0.4001  0.6731 -0.1069
 3145TIP3   OH230849   2.794   2.066   5.051  0.3960  0.0735  0.3302
 3145TIP3    H130850   2.763   2.001   5.114  0.7573 -0.9974 -0.5742
 3145TIP3    H230851   2.715   2.094   5.004 -0.0206  1.5331  1.8017
 3146TIP3   OH230852   1.733   0.412  14.739 -0.2484 -0.3825 -0.1730
 3146TIP3    H130853   1.797   0.386  14.673  1.6041 -0.7604  1.6484
 3146TIP3    H230854   1.752   0.505  14.756  1.7241 -1.1101  2.2169
 3147TIP3   OH230855   6.573   4.277  16.646 -0.3411 -0.1315 -0.3078
 3147TIP3    H130856   6.576   4.324  16.730 -1.1783  0.2031 -0.4451
 3147TIP3    H230857   6.599   4.188  16.667  0.4333  0.1915  0.1239
 3148TIP3   OH230858   2.056   4.212   5.356 -0.4516 -0.0217  0.3907
 3148TIP3    H130859   2.020   4.272   5.291 -0.1484  1.4374  1.5319
 3148TIP3    H230860   2.049   4.258   5.439  0.2815 -1.3526  1.2360
 3149TIP3   OH230861   1.792   4.110  15.538 -0.2546 -0.0765  0.1851
 3149TIP3    H130862   1.864   4.063  15.495  1.1697  0.7073  1.6245
 3149TIP3    H230863   1.760   4.048  15.604 -0.0552  0.0487  0.3979
 3150TIP3   OH230864   1.949   0.901  16.428 -0.1891 -0.3606  0.2094
 3150TIP3    H130865   2.042   0.894  16.451  0.4631  2.2238 -1.2544
 3150TIP3    H230866   1.928   0.994  16.439 -2.3434 -0.7136 -0.4412
 3151TIP3   OH230867   6.130   5.797   5.043  0.3714  0.3411  0.0012
 3151TIP3    H130868   6.119   5.868   4.979 -0.4300  0.9056  0.7573
 3151TIP3    H230869   6.048   5.796   5.092  1.2210  0.3697  1.4813
 3152TIP3   OH230870   3.090   1.798  16.097 -0.1124 -0.2279  1.1770
 3152TIP3    H130871   3.092   1.885  16.058 -0.2627 -0.6746  0.1258
 3152TIP3    H230872   3.067   1.813  16.188  0.2057  0.8581  1.0930
 3153TIP3   OH230873   3.387   3.894  14.438 -0.0799  0.2000  0.0062
 3153TIP3    H130874   3.327   3.961  14.406  0.3947 -0.1351 -1.6901
 3153TIP3    H230875   3.473   3.936  14.434  0.1459 -0.3057 -0.4578
 3154TIP3   OH230876   2.833   3.665  11.760  0.2922 -0.3980  0.2873
 3154TIP3    H130877   2.789   3.733  11.709 -0.1068 -1.5577 -0.9855
 3154TIP3    H230878   2.762   3.607  11.788  0.6717 -0.5285  0.9928
 3155TIP3   OH230879   5.374   1.205   1.472 -0.2460  0.3022 -0.2238
 3155TIP3    H130880   5.344   1.128   1.520  0.0259  0.6266  0.4823
 3155TIP3    H230881   5.311   1.274   1.494 -0.3325  0.3533 -0.6308
 3156TIP3   OH230882   5.603   4.411  16.808  0.3011 -0.1108  0.4674
 3156TIP3    H130883   5.607   4.393  16.714  0.7550  0.3514  0.3988
 3156TIP3    H230884   5.527   4.361  16.838  0.7254 -1.0541  0.0321
 3157TIP3   OH230885   5.596   5.226  11.882 -0.1072 -0.4404  1.1349
 3157TIP3    H130886   5.681   5.191  11.854  0.6102  1.8572  0.2147
 3157TIP3    H230887   5.533   5.191  11.820  0.2251 -1.7504  1.5138
 3158TIP3   OH230888   2.628   6.609  13.263 -0.1554 -0.2948 -0.0480
 3158TIP3    H130889   2.552   6.573  13.308 -0.4635  0.0700 -0.2674
 3158TIP3    H230890   2.655   6.540  13.203  0.6566 -1.0403  1.1378
 3159TIP3   OH230891   5.828   0.324   5.100 -0.4892  0.0566 -1.0991
 3159TIP3    H130892   5.805   0.347   5.010 -0.1896  1.4634 -0.8328
 3159TIP3    H230893   5.758   0.266   5.128 -0.8552  0.0091 -2.0631
 3160TIP3   OH230894   2.486   1.778  10.569  0.2561 -0.0531 -0.5297
 3160TIP3    H130895   2.430   1.797  10.494 -0.2479 -0.5097 -0.2691
 3160TIP3    H230896   2.557   1.725  10.532  0.4426  0.3941 -0.8280
 3161TIP3   OH230897   0.997   3.001  17.201  0.6050  0.1181 -0.1988
 3161TIP3    H130898   1.016   3.059  17.275  0.5081  0.4482 -0.4314
 3161TIP3    H230899   0.996   2.913  17.239  2.2234  0.1050 -0.0907
 3162TIP3   OH230900   3.892   0.160   6.595 -0.1364  0.3165 -0.0659
 3162TIP3    H130901   3.854   0.080   6.559 -1.3009 -0.1090  1.9304
 3162TIP3    H230902   3.915   0.213   6.519 -1.9618 -0.7318 -1.4183
 3163TIP3   OH230903   2.332   0.614  12.401  0.3006  0.1538  0.0929
 3163TIP3    H130904   2.262   0.642  12.341 -0.9276  0.5288  1.6351
 3163TIP3    H230905   2.410   0.611  12.346 -0.9824 -0.6893 -1.7944
 3164TIP3   OH230906   0.522   3.803  13.391 -0.4584  0.3560  0.3468
 3164TIP3    H130907   0.546   3.895  13.382 -0.3412  0.3942  1.0318
 3164TIP3    H230908   0.591   3.756  13.345 -0.3419  0.5946  0.2759
 3165TIP3   OH230909   0.846   0.959   2.105  0.5600  0.4899 -0.0464
 3165TIP3    H130910   0.869   0.993   2.019  1.9154  0.4543  0.2708
 3165TIP3    H230911   0.930   0.942   2.147 -0.0630 -1.7263  0.4312
 3166TIP3   OH230912   2.286   3.655  15.376 -0.0608 -0.3107 -0.0891
 3166TIP3    H130913   2.346   3.727  15.396  1.7603 -1.7255 -0.1943
 3166TIP3    H230914   2.243   3.682  15.295  0.2643  0.8532  0.1041
 3167TIP3   OH230915   1.513   1.946  14.479 -0.2867 -0.4114 -0.0052
 3167TIP3    H130916   1.532   2.004  14.553 -1.3118  1.1660 -0.9100
 3167TIP3    H230917   1.441   1.989  14.433 -0.4242 -1.9271 -1.3009
 3168TIP3   OH230918   4.064   2.434   2.242 -0.3986  0.5729  0.6026
 3168TIP3    H130919   4.036   2.523   2.221  0.2518  0.7512  0.4777
 3168TIP3    H230920   4.120   2.443   2.319  0.1110  0.3427  0.2664
 3169TIP3   OH230921   6.424   0.239  13.547  0.1797 -0.1157  0.3358
 3169TIP3    H130922   6.412   0.332  13.530 -2.6021 -0.1810  1.4311
 3169TIP3    H230923   6.509   0.233  13.590 -0.0754  2.0697  1.2629
 3170TIP3   OH230924   6.456   1.421  15.025  0.8130  0.1461  0.0460
 3170TIP3    H130925   6.429   1.329  15.021  1.5826 -0.0514 -1.0921
 3170TIP3    H230926   6.393   1.462  15.084  0.8236 -1.2407  1.0763
 3171TIP3   OH230927   1.339   0.515   3.245  0.4464 -0.4473  0.4569
 3171TIP3    H130928   1.303   0.432   3.276  1.5393 -1.4632 -0.8458
 3171TIP3    H230929   1.433   0.498   3.236  0.3691  0.1113 -2.1929
 3172TIP3   OH230930   2.317   0.983   4.910 -0.0338 -0.1138  0.4388
 3172TIP3    H130931   2.291   0.953   4.823 -0.3606  0.2501  0.4071
 3172TIP3    H230932   2.237   1.020   4.948  0.4118  0.9987  0.3487
 3173TIP3   OH230933   1.117   3.961  12.136  0.1704 -0.1664 -0.0288
 3173TIP3    H130934   1.212   3.950  12.129  0.4295  2.1795 -0.9524
 3173TIP3    H230935   1.086   3.965  12.046 -0.8517 -1.0609  0.2647
 3174TIP3   OH230936   3.326   2.578  14.134 -0.1205  0.0463 -0.0529
 3174TIP3    H130937   3.305   2.638  14.206  0.4492  2.5901 -1.8743
 3174TIP3    H230938   3.246   2.574  14.083  0.5816  1.3868 -1.3276
 3175TIP3   OH230939   1.884   6.167   4.811  0.4923  0.6244  0.6289
 3175TIP3    H130940   1.849   6.185   4.899  1.1957 -1.2217  1.3495
 3175TIP3    H230941   1.824   6.213   4.752 -0.1214  1.7604  2.0516
 3176TIP3   OH230942   3.219   3.591  13.251  0.5287  0.1669  0.1375
 3176TIP3    H130943   3.296   3.539  13.229  0.7866  0.6971 -0.2388
 3176TIP3    H230944   3.155   3.568  13.183  0.5480  0.1350  0.1296
 3177TIP3   OH230945   6.618   6.501  16.749 -0.0665  0.0306 -0.3014
 3177TIP3    H130946   6.672   6.506  16.828 -1.9493 -2.3672  1.3108
 3177TIP3    H230947   6.545   6.561  16.767 -0.2318 -0.1321 -0.4283
 3178TIP3   OH230948   2.097   5.965   4.494  0.3396 -0.4698  0.1768
 3178TIP3    H130949   2.120   6.014   4.573  0.0601  2.8393 -1.6180
 3178TIP3    H230950   2.175   5.971   4.440 -0.1086 -1.0438 -0.5374
 3179TIP3   OH230951   4.969   2.534   2.064 -0.7357  0.5016 -0.2316
 3179TIP3    H130952   4.937   2.477   2.133  1.2688 -1.6006 -0.9278
 3179TIP3    H230953   5.001   2.475   1.996 -0.8020  2.4848 -2.1269
 3180TIP3   OH230954   2.788   5.968   3.211 -0.0425 -0.1168 -0.5720
 3180TIP3    H130955   2.758   5.950   3.300  0.5092 -0.2492 -0.4081
 3180TIP3    H230956   2.715   5.942   3.156 -0.9307  1.2795 -0.0893
 3181TIP3   OH230957   1.005   0.992   1.880 -0.0381  0.1683 -0.0473
 3181TIP3    H130958   1.008   0.902   1.912 -1.7984  0.7710  2.0414
 3181TIP3    H230959   1.002   0.983   1.785  0.1946 -1.9391  0.0855
 3182TIP3   OH230960   6.035   4.758   3.986 -0.6378 -0.4849  0.7893
 3182TIP3    H130961   6.013   4.691   3.921 -0.9576 -0.0095  0.3945
 3182TIP3    H230962   6.050   4.837   3.934 -0.1605 -0.2753  1.2414
 3183TIP3   OH230963   6.514   4.339   0.571 -0.8994  0.8278  0.9226
 3183TIP3    H130964   6.515   4.408   0.505  0.0156  0.9028  0.9994
 3183TIP3    H230965   6.484   4.261   0.524  0.8753  0.5877  0.0923
 3184TIP3   OH230966   4.683   6.309  16.762  0.2815 -0.1310 -0.1110
 3184TIP3    H130967   4.633   6.256  16.700  1.0122 -0.4197 -0.4720
 3184TIP3    H230968   4.704   6.389  16.714  0.5682 -0.2153 -0.1276
 3185TIP3   OH230969   0.550   5.742  14.567  0.2043  1.0428  0.5316
 3185TIP3    H130970   0.603   5.663  14.573 -1.0257  0.1449 -0.1062
 3185TIP3    H230971   0.599   5.799  14.508  0.5916  0.3325  0.1556
 3186TIP3   OH230972   2.957   2.607  14.985 -0.0731 -0.5480 -0.0259
 3186TIP3    H130973   2.927   2.625  15.074 -1.0050  1.8218 -0.7256
 3186TIP3    H230974   3.015   2.532  14.993 -0.6646 -0.8129  2.4677
 3187TIP3   OH230975   5.085   4.317  14.975 -0.4985  0.7096  0.2868
 3187TIP3    H130976   5.178   4.333  14.958 -0.5538  1.1644  0.3890
 3187TIP3    H230977   5.079   4.223  14.989 -0.4172  0.2842 -2.0718
 3188TIP3   OH230978   3.708   1.467   5.260 -0.1142 -0.4554  0.3627
 3188TIP3    H130979   3.616   1.487   5.278  0.1032  0.2021  0.7756
 3188TIP3    H230980   3.757   1.523   5.320  0.5938  0.4995 -1.0290
 3189TIP3   OH230981   0.718   3.722  13.249 -0.0029 -0.3350 -0.8221
 3189TIP3    H130982   0.732   3.754  13.159  0.9552 -0.8678 -0.8770
 3189TIP3    H230983   0.800   3.679  13.272 -0.8970 -1.8706 -0.3721
 3190TIP3   OH230984   1.653   6.090  11.490  0.6026 -0.2386 -0.1487
 3190TIP3    H130985   1.657   6.062  11.582 -2.1904 -0.9159 -0.1428
 3190TIP3    H230986   1.625   6.181  11.494  0.6721 -0.2080 -0.3471
 3191TIP3   OH230987   1.592   2.020   6.243  0.2340  0.2245 -0.6270
 3191TIP3    H130988   1.670   1.966   6.254 -0.7664 -1.1946 -0.3709
 3191TIP3    H230989   1.594   2.080   6.317  0.2546 -0.8446  0.2500
 3192TIP3   OH230990   5.857   4.879   0.595 -0.1936 -0.2446  0.2116
 3192TIP3    H130991   5.894   4.887   0.683  2.5815 -1.7106 -0.6922
 3192TIP3    H230992   5.763   4.868   0.609  0.1519 -0.3197  2.9677
 3193TIP3   OH230993   0.587   0.046  12.476 -0.0383 -0.3004  0.4419
 3193TIP3    H130994   0.585   0.123  12.418  0.3169 -0.6047  0.0252
 3193TIP3    H230995   0.516  -0.010  12.444  0.6163 -0.7939 -0.1486
 3194TIP3   OH230996   5.164   0.061   2.289 -0.9740  0.0475  0.2180
 3194TIP3    H130997   5.114   0.119   2.346 -1.3686 -0.3086  0.2404
 3194TIP3    H230998   5.253   0.064   2.325 -1.3819 -0.8044  1.3922
 3195TIP3   OH230999   3.504   5.953  10.901 -0.1506  0.0673 -0.1128
 3195TIP3    H131000   3.432   5.960  10.964 -0.1749  0.9183 -0.2225
 3195TIP3    H231001   3.489   5.869  10.857  0.7161 -1.2924  2.0353
 3196TIP3   OH231002   2.351   0.620  16.157 -0.1867  0.3090 -0.4379
 3196TIP3    H131003   2.445   0.634  16.144 -0.0619 -0.2219 -0.1424
 3196TIP3    H231004   2.336   0.531  16.126  0.0757 -0.9491  2.6026
 3197TIP3   OH231005   3.444   3.594  11.639 -0.1909  0.0120  0.3501
 3197TIP3    H131006   3.428   3.502  11.615 -1.0421  0.1079  0.5127
 3197TIP3    H231007   3.518   3.620  11.585  0.9379 -1.1641  1.2774
 3198TIP3   OH231008   3.014   2.255   2.166 -0.0989  0.0431  0.2697
 3198TIP3    H131009   3.108   2.237   2.154 -0.4595 -1.0563 -1.3130
 3198TIP3    H231010   2.999   2.335   2.116  0.1026  0.5698  1.0433
 3199TIP3   OH231011   5.854   1.700  13.708  0.1589  0.1076  0.5297
 3199TIP3    H131012   5.909   1.715  13.631 -0.1417  0.4615  0.3776
 3199TIP3    H231013   5.813   1.785  13.724 -0.7704 -0.2876  0.3008
 3200TIP3   OH231014   3.235   4.398   3.574  0.3554 -0.8630  0.5769
 3200TIP3    H131015   3.265   4.384   3.484  0.4210 -1.2265  0.6531
 3200TIP3    H231016   3.150   4.355   3.578 -1.5570  2.5099 -0.4274
 3201TIP3   OH231017   5.584   2.422   3.032 -0.1648 -0.4112 -0.1097
 3201TIP3    H131018   5.496   2.384   3.022 -0.8824  0.9973  0.5320
 3201TIP3    H231019   5.621   2.377   3.108 -1.0653  0.2407  0.7493
 3202TIP3   OH231020   2.634   2.422  10.746 -0.3708  0.2459  0.4453
 3202TIP3    H131021   2.609   2.486  10.813 -0.6048 -0.3170  0.9091
 3202TIP3    H231022   2.637   2.339  10.793 -0.0665 -0.0832 -0.1500
 3203TIP3   OH231023   0.225   5.287   2.553 -0.3299  0.2717 -0.0408
 3203TIP3    H131024   0.144   5.336   2.560  0.2495  1.0844  1.4636
 3203TIP3    H231025   0.293   5.349   2.579  0.8929 -0.1561 -1.9893
 3204TIP3   OH231026   0.939   6.148   2.030  0.6350 -0.4772 -0.2539
 3204TIP3    H131027   1.006   6.189   1.975  0.3286  1.0344  0.4616
 3204TIP3    H231028   0.857   6.187   2.002  0.3384 -0.5470  0.4847
 3205TIP3   OH231029   4.662   1.018  16.978 -0.0874  0.0905  0.4119
 3205TIP3    H131030   4.596   1.015  16.909 -0.7890  0.6049  1.0393
 3205TIP3    H231031   4.677   0.927  17.002 -1.8938  0.0146  1.4597
 3206TIP3   OH231032   5.161   1.286   5.678 -0.2006  0.1791  0.4508
 3206TIP3    H131033   5.212   1.222   5.726  1.5160 -0.2402 -1.7389
 3206TIP3    H231034   5.224   1.356   5.658  0.0373 -0.8802 -3.3189
 3207TIP3   OH231035   0.491   4.314  14.316  0.0904 -0.4721 -0.2017
 3207TIP3    H131036   0.555   4.355  14.374 -0.0441 -0.3035 -0.1704
 3207TIP3    H231037   0.461   4.385  14.259 -1.1522 -0.1949  0.7422
 3208TIP3   OH231038   2.058   2.912  13.963  0.2914 -0.4601 -0.0405
 3208TIP3    H131039   2.071   2.907  14.058 -1.6509  0.4077  0.3198
 3208TIP3    H231040   2.063   3.005  13.943  1.7761 -0.7195 -0.9951
 3209TIP3   OH231041   6.513   0.804   4.759 -0.9116  0.3010 -0.3915
 3209TIP3    H131042   6.528   0.792   4.665 -1.7422 -1.0003 -0.3859
 3209TIP3    H231043   6.526   0.898   4.774  1.2593  0.2336 -1.4070
 3210TIP3   OH231044   1.485   1.655   0.005 -0.1463 -1.0604  0.7325
 3210TIP3    H131045   1.559   1.704   0.041  0.7689 -1.7463 -0.1518
 3210TIP3    H231046   1.441   1.617   0.081  1.5550 -2.2213  1.1860
 3211TIP3   OH231047   4.581   2.945  16.431 -0.2966  0.1293 -0.1254
 3211TIP3    H131048   4.546   2.982  16.351 -1.1972  1.2525  0.7488
 3211TIP3    H231049   4.578   2.851  16.418 -2.0322  0.2460 -0.7712
 3212TIP3   OH231050   3.809   0.800  14.362  0.1421  0.0232  0.2931
 3212TIP3    H131051   3.838   0.813  14.271 -1.4305  1.0533 -0.0950
 3212TIP3    H231052   3.717   0.827  14.362  0.1374  0.1277  2.2268
 3213TIP3   OH231053   0.134   2.360  12.682 -0.3368 -0.0508 -0.1348
 3213TIP3    H131054   0.096   2.405  12.606  0.2901  0.3574 -0.2171
 3213TIP3    H231055   0.103   2.270  12.674 -0.7284  0.1186 -0.5729
 3214TIP3   OH231056   6.014   6.057   4.996  0.2533  0.0479 -0.7274
 3214TIP3    H131057   6.046   6.055   4.906  3.1098  2.6951  0.0534
 3214TIP3    H231058   5.976   6.145   5.006 -1.1025 -0.6152  0.3854
 3215TIP3   OH231059   2.445   3.339   2.036 -0.3313  0.3371 -0.1854
 3215TIP3    H131060   2.530   3.381   2.044 -0.0825  0.4841 -2.8076
 3215TIP3    H231061   2.387   3.392   2.091  0.9353  1.1151  0.4572
 3216TIP3   OH231062   2.791   0.071  11.003  0.1513 -0.1408 -0.3732
 3216TIP3    H131063   2.744   0.153  10.987  2.0628  0.8097 -1.3191
 3216TIP3    H231064   2.729   0.019  11.055 -1.5169  1.4612 -0.6425
 3217TIP3   OH231065   1.208   2.049  10.997  0.0235  0.4406  0.4071
 3217TIP3    H131066   1.285   2.043  11.053  0.0213  1.8530  0.5956
 3217TIP3    H231067   1.206   2.141  10.968  1.1938 -0.5812 -3.5738
 3218TIP3   OH231068   4.067   6.282  15.333  0.4053  0.0998 -0.2212
 3218TIP3    H131069   4.152   6.296  15.291  0.5736 -1.9155 -0.6482
 3218TIP3    H231070   4.004   6.298  15.263  0.6047 -1.4985 -0.7938
 3219TIP3   OH231071   0.730   4.644   3.787 -0.0040 -0.6886  0.2364
 3219TIP3    H131072   0.820   4.650   3.818  1.3362 -0.0170 -3.3276
 3219TIP3    H231073   0.723   4.556   3.750 -0.2927 -0.2553 -0.7927
 3220TIP3   OH231074   4.547   0.864   1.959 -0.5801  0.0530 -0.0637
 3220TIP3    H131075   4.459   0.897   1.978 -0.3494  0.6878 -0.0678
 3220TIP3    H231076   4.605   0.923   2.006 -0.0209  1.1340 -2.0006
 3221TIP3   OH231077   2.246   5.302  12.095 -0.4298 -0.0093  0.3103
 3221TIP3    H131078   2.223   5.239  12.163 -0.4026  1.0878  1.3815
 3221TIP3    H231079   2.333   5.275  12.065 -0.9953 -1.2683 -0.2246
 3222TIP3   OH231080   6.725   6.524   0.124 -0.9206  0.3607 -0.0010
 3222TIP3    H131081   6.746   6.616   0.108  0.1603  0.7548  3.0711
 3222TIP3    H231082   6.802   6.490   0.170 -0.7840 -2.4516 -2.0579
 3223TIP3   OH231083   6.591   3.520   0.015  0.0091  0.4526  0.5868
 3223TIP3    H131084   6.561   3.482   0.097 -0.2264  0.2790  0.4238
 3223TIP3    H231085   6.511   3.527  -0.039 -0.1734  2.2548  1.0313
 3224TIP3   OH231086   3.456   6.128  11.438  0.6850  0.3248 -0.1340
 3224TIP3    H131087   3.421   6.213  11.413 -0.6677 -0.1678  0.0265
 3224TIP3    H231088   3.536   6.118  11.385  0.6680  1.5280 -0.4024
 3225TIP3   OH231089   4.567   1.173   4.652 -0.3106 -0.0165  0.0238
 3225TIP3    H131090   4.628   1.137   4.717 -0.8243  0.4072  0.7563
 3225TIP3    H231091   4.599   1.141   4.568  0.5326 -0.3403  0.4641
 3226TIP3   OH231092   0.631   4.373  17.181 -0.1047 -0.2131 -0.3263
 3226TIP3    H131093   0.637   4.301  17.244  0.1769  0.5491  0.5274
 3226TIP3    H231094   0.719   4.409  17.176  0.0857 -0.7930 -1.8262
 3227TIP3   OH231095   1.923   4.161  12.332  0.1884  0.3313  0.0750
 3227TIP3    H131096   1.906   4.250  12.361 -3.2453  0.3875 -1.6020
 3227TIP3    H231097   1.950   4.171  12.240  0.9318 -0.3163  0.2151
 3228TIP3   OH231098   4.980   0.646   4.151 -0.2927  0.5572 -0.2387
 3228TIP3    H131099   4.922   0.684   4.217 -0.2068  0.1239  0.0919
 3228TIP3    H231100   5.066   0.644   4.194 -0.4475 -0.7129  0.0325
 3229TIP3   OH231101   6.541   5.895  11.090 -0.5665  0.0744 -0.4980
 3229TIP3    H131102   6.487   5.891  11.011  1.2819 -0.4310 -1.8007
 3229TIP3    H231103   6.631   5.896  11.058  0.2545 -0.3175  1.6162
 3230TIP3   OH231104   1.807   2.276  11.236  0.3779 -0.1622  0.5958
 3230TIP3    H131105   1.813   2.368  11.263 -2.6626  0.0533  0.8853
 3230TIP3    H231106   1.772   2.231  11.313 -0.4398 -1.1118 -0.3040
 3231TIP3   OH231107   2.090   0.965  16.011  0.4529 -0.8329  0.5100
 3231TIP3    H131108   2.128   1.053  16.020 -3.0419  0.7135  2.2975
 3231TIP3    H231109   2.114   0.920  16.092 -2.0875  0.5410  2.1742
 3232TIP3   OH231110   3.010   6.126  12.849 -0.0529  0.4315  0.2133
 3232TIP3    H131111   3.041   6.064  12.916 -0.0793 -0.8029 -0.8678
 3232TIP3    H231112   2.944   6.077  12.800 -1.8325  2.1332  0.8003
 3233TIP3   OH231113   6.146   0.119   4.248 -0.0089  0.6151  0.6443
 3233TIP3    H131114   6.233   0.147   4.275 -0.1150 -0.3440  2.0765
 3233TIP3    H231115   6.157   0.028   4.220 -0.6785  0.2175  1.6179
 3234TIP3   OH231116   5.506   6.093  16.993 -0.0685  0.0286  0.3280
 3234TIP3    H131117   5.525   6.173  16.944 -1.1658 -0.5777 -1.1385
 3234TIP3    H231118   5.590   6.048  16.999  0.6300  1.3648  1.4130
 3235TIP3   OH231119   3.142   2.804   5.193  0.2157  0.0735  0.2848
 3235TIP3    H131120   3.223   2.758   5.214  0.3787  0.7339  1.1658
 3235TIP3    H231121   3.172   2.885   5.150  0.1216  1.0172  1.9201
 3236TIP3   OH231122   2.239   5.272   3.193 -0.3524 -0.1374 -0.5316
 3236TIP3    H131123   2.312   5.289   3.133 -1.5776 -1.3670 -2.4782
 3236TIP3    H231124   2.243   5.178   3.210 -0.3267  0.1111  0.9679
 3237TIP3   OH231125   3.321   2.782   0.513  0.0217  0.7017  0.2898
 3237TIP3    H131126   3.301   2.704   0.462  2.3963 -0.4233  0.9198
 3237TIP3    H231127   3.237   2.812   0.546 -1.3293  0.1504 -2.3352
 3238TIP3   OH231128   0.335   1.132   5.192 -0.2123 -0.0231 -0.7203
 3238TIP3    H131129   0.327   1.087   5.275  1.0333  0.0552 -0.5281
 3238TIP3    H231130   0.374   1.217   5.214  1.0180 -0.3704 -1.4542
 3239TIP3   OH231131   1.434   3.460  15.413  0.4998  0.3208 -0.6612
 3239TIP3    H131132   1.381   3.521  15.464 -0.3352 -0.0625 -1.0500
 3239TIP3    H231133   1.440   3.500  15.326  1.1987  0.5600 -0.5075
 3240TIP3   OH231134   2.335   5.323   1.843  0.1857  0.3757  0.4598
 3240TIP3    H131135   2.317   5.405   1.797  0.3977 -0.5771 -1.4314
 3240TIP3    H231136   2.292   5.333   1.928 -2.5942  1.1957 -0.9249
 3241TIP3   OH231137   2.634   1.746  12.685 -0.4083 -0.1135 -0.5976
 3241TIP3    H131138   2.622   1.746  12.780 -0.8113 -0.6769 -0.6435
 3241TIP3    H231139   2.723   1.779  12.672 -0.2863 -0.2071 -0.0138
 3242TIP3   OH231140   1.808   2.362   6.687  0.1176  0.0747 -0.2968
 3242TIP3    H131141   1.809   2.405   6.772  1.4269  0.8136 -0.6664
 3242TIP3    H231142   1.818   2.433   6.624  0.4267 -0.5900 -1.0089
 3243TIP3   OH231143   4.913   6.288   0.972 -0.1264 -0.0177 -0.8264
 3243TIP3    H131144   4.986   6.293   1.033 -1.2519  1.6651  0.4790
 3243TIP3    H231145   4.936   6.217   0.912  0.6087 -2.4547  2.0857
 3244TIP3   OH231146   0.886   2.926  10.543  0.4140 -0.2608 -0.6366
 3244TIP3    H131147   0.858   2.888  10.627 -0.4216  0.1508 -0.7167
 3244TIP3    H231148   0.870   2.858  10.479 -0.5714  0.0211 -0.7017
 3245TIP3   OH231149   0.564   6.625  13.007 -0.0213  0.4384 -0.0003
 3245TIP3    H131150   0.641   6.678  12.990 -0.1323  0.8179  0.6218
 3245TIP3    H231151   0.512   6.678  13.068 -0.9561  0.3601 -0.7101
 3246TIP3   OH231152   3.815   4.346  15.681  0.1422  0.1025 -1.0487
 3246TIP3    H131153   3.803   4.260  15.640  0.8955 -0.1762 -0.7006
 3246TIP3    H231154   3.886   4.333  15.743  0.2620  0.9845 -0.9916
 3247TIP3   OH231155   3.530   6.024  15.653 -0.2840  0.4773  0.5667
 3247TIP3    H131156   3.617   6.049  15.685 -0.1633 -0.2629  0.8149
 3247TIP3    H231157   3.470   6.050  15.723 -0.0838 -0.5812  1.1425
 3248TIP3   OH231158   0.785   4.274  15.966  0.3193  0.3092  0.0253
 3248TIP3    H131159   0.776   4.366  15.990 -1.0299  0.3985 -0.6775
 3248TIP3    H231160   0.843   4.275  15.890  1.9367  0.3461  1.2122
 3249TIP3   OH231161   0.857   6.748   6.152 -0.2084  0.2075  0.0874
 3249TIP3    H131162   0.858   6.652   6.153  0.6539  0.2123  0.2056
 3249TIP3    H231163   0.877   6.772   6.062 -1.5419  0.2865 -0.2140
 3250TIP3   OH231164   4.371   6.634  16.799 -0.5492  0.1304  0.2851
 3250TIP3    H131165   4.318   6.701  16.758 -0.9850 -0.2518  0.2175
 3250TIP3    H231166   4.333   6.622  16.886  2.0278  2.9252  1.9809
 3251TIP3   OH231167   1.561   2.362   3.779  0.2804 -0.0371 -0.1280
 3251TIP3    H131168   1.519   2.399   3.857  1.2626  0.7040  0.0828
 3251TIP3    H231169   1.628   2.303   3.813  0.7750  0.3573 -0.3956
 3252TIP3   OH231170   4.162   6.599   2.080 -0.2546  0.4072 -0.1898
 3252TIP3    H131171   4.158   6.569   2.170  2.1092  1.2164  0.2498
 3252TIP3    H231172   4.134   6.691   2.083  1.8004  1.0898  0.1600
 3253TIP3   OH231173   0.874   3.224  11.123 -0.3765 -0.4986 -0.0102
 3253TIP3    H131174   0.829   3.259  11.200  0.3240 -0.2735  0.2999
 3253TIP3    H231175   0.965   3.218  11.149 -0.3672 -1.8792 -0.3102
 3254TIP3   OH231176   1.671   0.304  13.097  0.4083  0.3667 -0.3627
 3254TIP3    H131177   1.661   0.250  13.176 -0.4611  0.9231 -0.0725
 3254TIP3    H231178   1.730   0.255  13.042 -0.6314 -1.0814 -0.2515
 3255TIP3   OH231179   6.086   4.027   5.981 -0.5361  0.6211 -0.1144
 3255TIP3    H131180   6.119   4.098   6.035  0.5951 -0.3443  0.5104
 3255TIP3    H231181   6.143   3.953   6.001 -3.0226 -1.1472  0.9778
 3256TIP3   OH231182   4.428   1.750   2.047  0.2221  0.2268  0.0239
 3256TIP3    H131183   4.447   1.679   1.986  1.4041 -0.2990  0.9668
 3256TIP3    H231184   4.387   1.817   1.993  0.4254 -0.5794 -1.1747
 3257TIP3   OH231185   3.551   5.791  16.901 -0.1280 -0.2567 -0.0865
 3257TIP3    H131186   3.514   5.706  16.925  0.7284 -0.7722 -0.5722
 3257TIP3    H231187   3.608   5.814  16.973  0.5217 -0.6367 -0.4730
 3258TIP3   OH231188   5.968   2.255  17.276 -0.0903  0.2596 -0.4733
 3258TIP3    H131189   5.935   2.309  17.347  0.9879  0.6291 -0.2322
 3258TIP3    H231190   5.935   2.297  17.196 -1.7060 -0.4294 -0.2069
 3259TIP3   OH231191   3.483   4.140   5.820  0.0646 -0.3040 -0.1363
 3259TIP3    H131192   3.500   4.234   5.822 -1.8920  0.1108 -1.0168
 3259TIP3    H231193   3.414   4.126   5.885  0.4810 -1.1707  0.1377
 3260TIP3   OH231194   0.436   2.270  15.234  0.2388  0.2093  0.2415
 3260TIP3    H131195   0.451   2.180  15.202  1.7030 -0.5367  2.7412
 3260TIP3    H231196   0.341   2.280  15.235  0.0708 -1.0498 -0.7372
 3261TIP3   OH231197   0.063   4.873  14.633 -0.1544  0.1255 -0.0318
 3261TIP3    H131198   0.132   4.934  14.608  0.1530 -0.3462 -0.3588
 3261TIP3    H231199   0.072   4.865  14.728  1.7811 -1.6821 -0.2710
 3262TIP3   OH231200   0.385   1.836  12.283  0.2763  0.1463  0.6260
 3262TIP3    H131201   0.448   1.903  12.312  0.3696  0.5117 -0.3938
 3262TIP3    H231202   0.330   1.881  12.219  0.1814 -0.6847  0.1180
 3263TIP3   OH231203   5.065   2.687  15.085 -0.7690 -0.0884 -0.4788
 3263TIP3    H131204   5.092   2.597  15.102  0.6206  0.0062 -1.9389
 3263TIP3    H231205   5.008   2.709  15.159  0.0009 -1.6783  0.6583
 3264TIP3   OH231206   6.051   1.362   5.231  0.0631 -0.0263  0.0817
 3264TIP3    H131207   6.038   1.340   5.139  1.3934  3.2069 -1.0261
 3264TIP3    H231208   5.977   1.418   5.253  0.8523  0.9795  0.2666
 3265TIP3   OH231209   0.484   4.534   0.935 -0.1817  0.0327 -0.2394
 3265TIP3    H131210   0.546   4.599   0.904 -0.2869 -0.0631 -0.6596
 3265TIP3    H231211   0.398   4.569   0.910 -0.1750 -1.0028 -1.9524
 3266TIP3   OH231212   6.095   5.795  16.831  0.8803 -0.2576  0.2146
 3266TIP3    H131213   6.114   5.766  16.920  0.5982  2.0230  1.0889
 3266TIP3    H231214   6.000   5.785  16.822  0.6295  1.2231  0.8898
 3267TIP3   OH231215   2.129   1.343   5.316  0.1211 -0.0805 -0.3110
 3267TIP3    H131216   2.202   1.308   5.265 -0.0486 -0.4653 -0.2962
 3267TIP3    H231217   2.165   1.418   5.362  0.4725 -0.1872 -0.4110
 3268TIP3   OH231218   3.556   2.495  11.296  0.0871 -0.5102 -0.0977
 3268TIP3    H131219   3.639   2.491  11.249  1.5927 -0.8244  2.4143
 3268TIP3    H231220   3.514   2.574  11.262  0.8603 -0.9624 -2.2380
 3269TIP3   OH231221   4.332   6.168   5.783 -0.5118 -0.2279  0.3201
 3269TIP3    H131222   4.286   6.183   5.700  1.0384  0.9143 -0.3852
 3269TIP3    H231223   4.294   6.087   5.817 -1.3172 -0.6289 -1.4138
 3270TIP3   OH231224   1.126   1.773  11.044 -0.3113 -0.0472 -0.0207
 3270TIP3    H131225   1.144   1.861  11.010 -0.0149  0.4081  1.2300
 3270TIP3    H231226   1.065   1.788  11.116  1.3939 -0.5730  1.6494
 3271TIP3   OH231227   4.256   5.975   4.086 -0.0657 -0.3309 -0.2441
 3271TIP3    H131228   4.334   5.923   4.105 -0.4453 -1.7082 -2.2360
 3271TIP3    H231229   4.290   6.058   4.054  0.5385  0.1972  1.6186
 3272TIP3   OH231230   6.230   0.498  11.946 -0.0593 -0.2252  0.2356
 3272TIP3    H131231   6.235   0.577  11.999  0.3427 -0.1622  0.1085
 3272TIP3    H231232   6.156   0.513  11.887 -1.8275 -1.1402  2.1185
 3273TIP3   OH231233   0.682   6.354  14.586  0.8980  0.3384 -0.0829
 3273TIP3    H131234   0.678   6.395  14.500 -2.9273  1.1849  0.2964
 3273TIP3    H231235   0.637   6.270  14.575  1.8513 -0.3063  0.7691
 3274TIP3   OH231236   6.439   2.677   0.305  0.3925  0.1801 -0.4152
 3274TIP3    H131237   6.355   2.631   0.294 -0.1260  0.8001  0.7353
 3274TIP3    H231238   6.488   2.622   0.366 -0.5988  1.5282  1.7205
 3275TIP3   OH231239   6.368   2.609  14.430 -0.2798 -0.0721  0.3211
 3275TIP3    H131240   6.397   2.536  14.484  2.3379  0.1373 -0.6583
 3275TIP3    H231241   6.278   2.585  14.404 -0.3624 -1.7599  1.9238
 3276TIP3   OH231242   0.947   3.703   1.779 -0.3260 -0.3051 -0.3351
 3276TIP3    H131243   0.950   3.782   1.834 -1.2553  0.4422 -1.3164
 3276TIP3    H231244   0.855   3.676   1.781 -0.0546 -1.2656 -0.1786
 3277TIP3   OH231245   1.649   0.045  11.354  0.0911 -0.5044  0.0053
 3277TIP3    H131246   1.723   0.105  11.347 -1.9831  2.1779 -0.7744
 3277TIP3    H231247   1.592   0.085  11.419 -1.2670 -1.8225 -0.3056
 3278TIP3   OH231248   6.444   1.330   2.691 -0.0363  0.3377 -0.8365
 3278TIP3    H131249   6.382   1.348   2.621 -0.0684 -0.1852 -0.9480
 3278TIP3    H231250   6.414   1.384   2.764 -1.2319 -0.6564 -0.5550
 3279TIP3   OH231251   1.632   0.679  14.831 -0.4358 -0.0075  0.3023
 3279TIP3    H131252   1.616   0.739  14.758  0.5863  0.5928  0.5563
 3279TIP3    H231253   1.546   0.642  14.850 -1.2477  1.9332  0.6119
 3280TIP3   OH231254   5.422   5.776  12.544 -0.4292 -0.2122 -0.0900
 3280TIP3    H131255   5.439   5.691  12.584  1.4880  0.9830  1.8815
 3280TIP3    H231256   5.338   5.804  12.581  0.2562 -0.1104  1.5024
 3281TIP3   OH231257   4.587   2.546  16.875 -0.0218 -0.3840  0.4226
 3281TIP3    H131258   4.572   2.595  16.795  0.7050 -0.5062  0.2025
 3281TIP3    H231259   4.612   2.612  16.940  1.5192 -0.5025 -0.0218
 3282TIP3   OH231260   4.750   6.392  17.214 -0.0803  0.3275  0.1459
 3282TIP3    H131261   4.789   6.477  17.195 -0.6252  0.7031  0.6717
 3282TIP3    H231262   4.696   6.373  17.137  0.0793  0.4334  0.0072
 3283TIP3   OH231263   3.874   4.055  11.431  0.2611  0.1132 -0.5012
 3283TIP3    H131264   3.929   4.092  11.362  2.7314 -1.2506  0.5907
 3283TIP3    H231265   3.893   4.108  11.508  0.5621 -0.7577  0.0373
 3284TIP3   OH231266   5.792   5.271   3.876  0.2798 -0.0485 -0.4929
 3284TIP3    H131267   5.886   5.278   3.889  0.3161  3.4106 -1.3867
 3284TIP3    H231268   5.754   5.319   3.950 -0.4553  1.9878 -2.0660
 3285TIP3   OH231269   2.354   6.436  14.992 -0.9074  0.1614 -0.6559
 3285TIP3    H131270   2.386   6.356  15.033  1.8177  1.1219 -0.7112
 3285TIP3    H231271   2.285   6.407  14.932 -0.6087 -1.9979 -0.0284
 3286TIP3   OH231272   1.694   4.993  17.155  0.1162 -0.1788  0.3393
 3286TIP3    H131273   1.655   5.048  17.087  1.9680 -0.1653 -0.7974
 3286TIP3    H231274   1.751   5.052  17.204  0.6809 -0.6883  0.3131
 3287TIP3   OH231275   3.445   6.724   5.641  0.6491 -0.1489  0.0094
 3287TIP3    H131276   3.445   6.820   5.648 -0.3710 -0.0774 -0.8054
 3287TIP3    H231277   3.362   6.697   5.680  0.8722 -0.6993  0.1100
 3288TIP3   OH231278   6.133   5.486   2.412  0.0637 -0.1248  0.0808
 3288TIP3    H131279   6.199   5.463   2.478  1.5385 -0.1049 -1.3345
 3288TIP3    H231280   6.049   5.468   2.455  0.9421  0.4877  2.1852
 3289TIP3   OH231281   5.906   6.399   1.098  0.0942 -0.5049 -0.2074
 3289TIP3    H131282   5.941   6.334   1.038 -0.2447 -0.5138 -0.3953
 3289TIP3    H231283   5.961   6.391   1.177  1.0002 -0.0028 -0.7652
 3290TIP3   OH231284   4.824   3.520   1.869 -0.7457 -0.1233 -0.4735
 3290TIP3    H131285   4.882   3.594   1.852 -1.4389  0.6916  0.5817
 3290TIP3    H231286   4.875   3.461   1.925 -0.1297 -0.5469 -1.4592
 3291TIP3   OH231287   3.620   4.681  11.951 -0.0302  0.3259  0.0458
 3291TIP3    H131288   3.660   4.712  11.870 -1.9601 -0.3501 -1.2236
 3291TIP3    H231289   3.565   4.608  11.924 -2.2141  1.2812  1.6674
 3292TIP3   OH231290   0.711   4.754  12.232 -0.3076 -0.6593 -0.0879
 3292TIP3    H131291   0.655   4.832  12.230 -1.4592 -1.4712 -1.3735
 3292TIP3    H231292   0.736   4.744  12.324 -0.8134  0.7490  0.2180
 3293TIP3   OH231293   3.592   2.664   4.991  1.0357  0.1991  0.6766
 3293TIP3    H131294   3.517   2.686   4.936  1.4388 -0.4969 -0.1785
 3293TIP3    H231295   3.620   2.748   5.028  1.1265  0.7839 -0.6649
 3294TIP3   OH231296   5.042   3.720   5.203  0.2582 -0.2070  0.2593
 3294TIP3    H131297   4.975   3.652   5.210  1.0436 -1.1837 -1.2704
 3294TIP3    H231298   5.021   3.781   5.274 -1.3363 -1.2676  0.7617
 3295TIP3   OH231299   3.063   5.648  16.278 -0.7195 -0.5073 -0.4832
 3295TIP3    H131300   2.975   5.622  16.305 -0.9056  0.3986 -0.1707
 3295TIP3    H231301   3.092   5.708  16.347 -0.3825  0.2324 -1.2528
 3296TIP3   OH231302   0.392   0.190  13.483  0.3115  0.0841  0.4534
 3296TIP3    H131303   0.394   0.177  13.578  0.2865  0.8662  0.5709
 3296TIP3    H231304   0.369   0.283  13.472 -2.4490 -0.6177 -0.3679
 3297TIP3   OH231305   2.105   0.132   5.963 -0.1447 -0.2762  0.2782
 3297TIP3    H131306   2.039   0.069   5.991 -0.6774 -0.8104 -1.9766
 3297TIP3    H231307   2.058   0.193   5.907  0.8602  0.6877  0.4467
 3298TIP3   OH231308   4.271   6.274  11.438  0.0142  0.3581 -0.0869
 3298TIP3    H131309   4.250   6.273  11.345 -1.1567 -0.5124  0.1579
 3298TIP3    H231310   4.189   6.298  11.481  0.0510 -0.9872  0.8024
 3299TIP3   OH231311   3.458   1.814   1.234 -0.4263  0.5831  0.5797
 3299TIP3    H131312   3.451   1.909   1.231 -0.8244  0.6154  1.9119
 3299TIP3    H231313   3.379   1.783   1.190  1.2202  0.7818 -2.8506
 3300TIP3   OH231314   4.018   2.552   3.008 -0.2764  0.1099  0.4107
 3300TIP3    H131315   3.923   2.558   3.018 -0.4375 -1.4891  0.1814
 3300TIP3    H231316   4.040   2.466   3.044  1.2265  0.8266  1.3039
 3301TIP3   OH231317   2.866   5.561  12.784  0.1233 -0.2622 -0.8239
 3301TIP3    H131318   2.893   5.540  12.695  2.0255 -0.3552 -0.2785
 3301TIP3    H231319   2.945   5.546  12.837 -0.4494  1.4876  0.6201
 3302TIP3   OH231320   4.443   2.800  11.364  0.3239  0.3102  0.1235
 3302TIP3    H131321   4.498   2.805  11.286  0.3835  0.9329  0.2036
 3302TIP3    H231322   4.489   2.852  11.429 -0.1188  0.4364  0.3370
 3303TIP3   OH231323   1.643   4.316   1.797 -0.1999  0.3105 -0.1488
 3303TIP3    H131324   1.679   4.365   1.870 -1.5114 -0.0078  0.7450
 3303TIP3    H231325   1.710   4.321   1.729  1.3978 -0.0430  1.3351
 3304TIP3   OH231326   3.474   4.392  12.135  0.0912 -0.3736 -0.0230
 3304TIP3    H131327   3.491   4.376  12.228 -0.4719  0.3663  0.2176
 3304TIP3    H231328   3.397   4.450  12.135  0.6132  0.3346 -0.9261
 3305TIP3   OH231329   3.869   2.318   3.822  0.3941 -0.0739 -0.2389
 3305TIP3    H131330   3.912   2.334   3.906  1.7983 -1.0708 -0.7209
 3305TIP3    H231331   3.869   2.222   3.813  0.4811  0.0171 -1.4663
 3306TIP3   OH231332   3.056   4.012  12.154 -0.2252  0.4035  0.2606
 3306TIP3    H131333   3.048   3.963  12.073  0.0633  0.2917  0.2993
 3306TIP3    H231334   3.019   3.954  12.221  0.2925  0.1571  0.3362
 3307TIP3   OH231335   0.245   6.749  17.287 -0.1111  0.1790 -0.9617
 3307TIP3    H131336   0.329   6.778  17.251  0.1097  0.5940 -0.1290
 3307TIP3    H231337   0.237   6.796  17.370 -0.0144 -1.6811  0.1553
 3308TIP3   OH231338   2.890   3.944   3.397 -0.1437 -0.3273  0.3866
 3308TIP3    H131339   2.873   4.034   3.426 -1.8915 -0.3531 -0.4095
 3308TIP3    H231340   2.966   3.951   3.339  0.7343  0.3621  1.5794
 3309TIP3   OH231341   4.376   0.452   2.226 -0.6305  0.0047 -0.1412
 3309TIP3    H131342   4.342   0.413   2.306 -0.4189 -0.2476 -0.1700
 3309TIP3    H231343   4.316   0.422   2.157 -0.3155 -0.5001 -0.2029
 3310TIP3   OH231344   4.463   6.723  10.320  0.3255  0.3602 -0.6639
 3310TIP3    H131345   4.404   6.651  10.299  1.1183 -0.1330 -1.2820
 3310TIP3    H231346   4.426   6.763  10.399 -0.3797 -0.4350 -0.5820
 3311TIP3   OH231347   2.382   3.324   5.551  0.3959 -0.4581 -0.0027
 3311TIP3    H131348   2.366   3.418   5.543  3.3010  0.0516 -1.2756
 3311TIP3    H231349   2.429   3.315   5.634  1.0574 -0.5907 -0.3815
 3312TIP3   OH231350   4.925   0.652  15.675 -0.0047 -0.3706 -0.5653
 3312TIP3    H131351   4.921   0.669  15.769  0.5770  0.2877 -0.6503
 3312TIP3    H231352   4.925   0.557  15.667 -0.0496 -0.4282  0.1001
 3313TIP3   OH231353   1.756   1.687  16.186  0.2464 -0.2490  0.1443
 3313TIP3    H131354   1.765   1.717  16.277 -1.9772 -0.5972  0.5330
 3313TIP3    H231355   1.843   1.652  16.164  1.3313  1.3857  1.5299
 3314TIP3   OH231356   5.010   0.460   0.201 -0.2305 -0.0803  0.3328
 3314TIP3    H131357   4.999   0.521   0.128 -1.0141  0.3073  0.7694
 3314TIP3    H231358   4.937   0.400   0.193  1.3441 -1.9558 -0.9958
 3315TIP3   OH231359   0.202   3.417  14.306  0.3719  0.8834  0.3214
 3315TIP3    H131360   0.112   3.404  14.335  0.4804  0.9809  0.7099
 3315TIP3    H231361   0.209   3.510  14.289  0.0322  0.6851 -0.9758
 3316TIP3   OH231362   6.599   4.874  13.670  0.8723  0.4613  0.0661
 3316TIP3    H131363   6.659   4.864  13.596 -0.1291 -0.2292 -0.6765
 3316TIP3    H231364   6.567   4.786  13.687  0.7044  0.6973  0.9963
 3317TIP3   OH231365   5.316   3.602  12.752 -0.3434 -0.2176 -0.4579
 3317TIP3    H131366   5.309   3.688  12.794 -1.1005  0.3844 -1.7498
 3317TIP3    H231367   5.266   3.611  12.671  0.2570 -1.6336 -1.0140
 3318TIP3   OH231368   0.140   4.101  16.704 -0.5053  0.6666  0.2497
 3318TIP3    H131369   0.202   4.029  16.692 -0.3037  1.0112 -0.9351
 3318TIP3    H231370   0.126   4.105  16.799  0.3024 -0.2349  0.4277
 3319TIP3   OH231371   3.632   1.778   2.619  0.1862  0.0252 -0.4799
 3319TIP3    H131372   3.604   1.688   2.604 -3.3791  0.5834  1.7815
 3319TIP3    H231373   3.708   1.770   2.677 -0.3239 -1.5406  0.0222
 3320TIP3   OH231374   4.281   6.553  14.073 -0.5023  0.3507 -0.3455
 3320TIP3    H131375   4.239   6.586  13.994 -0.1623  0.8470 -0.3177
 3320TIP3    H231376   4.318   6.630  14.116  1.7628 -0.2296 -1.1325
 3321TIP3   OH231377   5.772   1.354  16.487 -0.1548  0.3739 -0.3685
 3321TIP3    H131378   5.710   1.282  16.474 -0.2813  0.5161 -0.5555
 3321TIP3    H231379   5.808   1.339  16.574 -1.1310  0.8082  0.1282
 3322TIP3   OH231380   3.166   0.691   5.134  0.4898 -0.2167 -0.4152
 3322TIP3    H131381   3.218   0.747   5.191  1.6284 -1.3534 -0.2955
 3322TIP3    H231382   3.162   0.739   5.051 -2.2057  2.0346  0.8532
 3323TIP3   OH231383   1.054   0.610  16.195  0.2060 -0.0189  0.2366
 3323TIP3    H131384   1.131   0.607  16.252  0.3976  2.5384  0.2184
 3323TIP3    H231385   1.089   0.627  16.107 -0.3347  0.4008  0.0954
 3324TIP3   OH231386   0.088   2.433   3.177  0.0379 -0.7162 -0.1901
 3324TIP3    H131387   0.158   2.383   3.219  0.3134 -0.5860 -0.4842
 3324TIP3    H231388   0.009   2.381   3.189  0.3492 -1.2975 -0.6216
 3325TIP3   OH231389   4.388   5.286   2.115  0.0632  0.5842 -0.1807
 3325TIP3    H131390   4.317   5.285   2.179 -0.0236 -0.6846 -0.2722
 3325TIP3    H231391   4.449   5.218   2.145  0.3370  0.4166 -1.0817
 3326TIP3   OH231392   3.604   0.804  15.908  0.4867 -0.1081  0.1147
 3326TIP3    H131393   3.528   0.768  15.862  0.6084 -1.6013  0.9942
 3326TIP3    H231394   3.612   0.894  15.876 -0.2223 -0.6603 -1.7588
 3327TIP3   OH231395   0.513   1.617   5.050  0.0318 -0.0932  0.2853
 3327TIP3    H131396   0.561   1.684   5.099 -0.1322 -1.2224  2.0734
 3327TIP3    H231397   0.431   1.606   5.100  0.1522 -1.7575  0.1446
 3328TIP3   OH231398   0.341   3.998   5.647 -0.2271  0.0509  0.5659
 3328TIP3    H131399   0.268   3.937   5.659 -0.5193  0.2897  0.0395
 3328TIP3    H231400   0.299   4.081   5.625  0.1990  0.2358  0.4470
 3329TIP3   OH231401   3.954   2.953   2.279  0.0824 -0.0877 -0.3962
 3329TIP3    H131402   3.992   3.029   2.236  0.4739 -0.2691 -0.3771
 3329TIP3    H231403   3.903   2.989   2.352  2.3751  0.0538  1.2412
 3330TIP3   OH231404   2.507   2.352   0.491  0.1396  0.3096 -0.4600
 3330TIP3    H131405   2.570   2.333   0.561  2.1647  0.3673 -2.1435
 3330TIP3    H231406   2.476   2.440   0.510  1.7125  0.8758 -0.3422
 3331TIP3   OH231407   3.816   5.598   0.687  0.0114 -0.0998  0.1066
 3331TIP3    H131408   3.860   5.683   0.682  1.0301 -0.5037  1.4816
 3331TIP3    H231409   3.834   5.567   0.776 -2.6666 -0.5534  0.5769
 3332TIP3   OH231410   6.021   3.757   5.582 -0.2123  0.0715 -0.6815
 3332TIP3    H131411   5.979   3.769   5.497 -1.4779 -0.5328 -0.1556
 3332TIP3    H231412   5.954   3.717   5.637 -0.2723  2.6357  1.3237
 3333TIP3   OH231413   3.579   0.577   0.254  0.1406 -0.6058 -0.6600
 3333TIP3    H131414   3.536   0.642   0.310  1.2502 -1.0575  0.7725
 3333TIP3    H231415   3.514   0.507   0.245 -0.4709 -0.0166 -0.8747
 3334TIP3   OH231416   2.165   1.768  12.696  0.0205  0.1833 -0.4121
 3334TIP3    H131417   2.133   1.755  12.607 -0.5168  1.0751 -0.3598
 3334TIP3    H231418   2.125   1.697  12.747  1.6401 -1.3407 -1.1639
 3335TIP3   OH231419   3.350   5.120  14.252  0.1178 -0.2937 -0.0425
 3335TIP3    H131420   3.379   5.048  14.308  2.2482 -0.6754 -1.5226
 3335TIP3    H231421   3.264   5.092  14.220 -0.5794 -0.6162  1.9990
 3336TIP3   OH231422   0.366   1.393   0.725 -0.0154 -0.5625 -0.7076
 3336TIP3    H131423   0.398   1.420   0.639 -0.1791  0.1849 -0.5464
 3336TIP3    H231424   0.275   1.422   0.727  0.1571 -0.0420 -0.0668
 3337TIP3   OH231425   0.426   2.613  14.684 -0.0583 -0.3256  0.5046
 3337TIP3    H131426   0.386   2.636  14.600 -0.0348  0.1678  0.6239
 3337TIP3    H231427   0.511   2.658  14.683  0.2789 -0.9549  0.4627
 3338TIP3   OH231428   1.765   4.081   5.943 -0.8305  0.3224 -0.8800
 3338TIP3    H131429   1.824   4.022   5.897 -1.7677  1.9716 -4.6175
 3338TIP3    H231430   1.681   4.034   5.947 -0.5247 -0.1612 -0.0111
 3339TIP3   OH231431   0.564   3.460   0.540  0.2398 -0.2438  0.2153
 3339TIP3    H131432   0.574   3.551   0.512  0.2204 -0.7430 -1.5231
 3339TIP3    H231433   0.647   3.439   0.581 -0.0531  0.7932  1.4129
 3340TIP3   OH231434   5.217   2.740  16.823 -0.2821 -0.4793  0.3640
 3340TIP3    H131435   5.229   2.835  16.820  0.2428 -0.5603 -0.6460
 3340TIP3    H231436   5.127   2.728  16.854 -0.2835  0.3427  0.6967
 3341TIP3   OH231437   0.182   1.266  11.865 -0.5209 -0.4775 -0.2239
 3341TIP3    H131438   0.112   1.279  11.802 -0.4325  1.0512 -0.0322
 3341TIP3    H231439   0.210   1.354  11.889 -0.3434 -0.9990  1.7054
 3342TIP3   OH231440   0.982   3.666   5.359 -0.5298  0.9076  0.2433
 3342TIP3    H131441   0.943   3.595   5.411 -0.9648  1.0030  0.0491
 3342TIP3    H231442   1.047   3.622   5.304 -3.0910  0.0693 -2.3520
 3343TIP3   OH231443   5.716   4.599  16.191 -0.5488  0.0880 -0.4584
 3343TIP3    H131444   5.793   4.656  16.197 -1.0805  0.7219  0.5898
 3343TIP3    H231445   5.645   4.650  16.230 -0.7941 -1.7118  1.6524
 3344TIP3   OH231446   2.773   2.901   5.055  0.0078  0.0161 -0.5805
 3344TIP3    H131447   2.770   2.873   5.147 -0.5191  0.1437 -0.5588
 3344TIP3    H231448   2.782   2.996   5.059 -1.5788  0.1905 -0.6535
 3345TIP3   OH231449   6.744   5.070  13.395  0.3425  0.1113  0.4681
 3345TIP3    H131450   6.837   5.059  13.375  0.3129  0.7306 -0.0456
 3345TIP3    H231451   6.703   4.991  13.361  0.5149  0.4221 -0.4951
 3346TIP3   OH231452   1.971   4.572   2.277  0.4245  0.4750 -0.1432
 3346TIP3    H131453   1.957   4.661   2.309  0.4130  0.9097 -1.3064
 3346TIP3    H231454   1.906   4.562   2.206  1.2322 -0.0218 -0.8284
 3347TIP3   OH231455   0.230   2.923  12.274 -0.1106 -0.1449 -0.5613
 3347TIP3    H131456   0.262   2.942  12.186 -0.2926 -0.8370 -0.7803
 3347TIP3    H231457   0.305   2.941  12.331  0.5454 -1.3218 -1.0255
 3348TIP3   OH231458   3.933   5.382  12.209  0.1865  0.3126  0.4434
 3348TIP3    H131459   3.886   5.300  12.190  0.3988  0.3093 -0.1025
 3348TIP3    H231460   3.953   5.378  12.302  0.0094 -0.1601  0.4634
 3349TIP3   OH231461   0.419   5.170  12.274 -0.7808  0.2508  0.5659
 3349TIP3    H131462   0.501   5.120  12.281  0.0144  1.5542  0.9566
 3349TIP3    H231463   0.351   5.106  12.295  0.1677 -0.7437  0.7495
 3350TIP3   OH231464   5.226   5.735   3.585  0.1083 -0.2729  0.0842
 3350TIP3    H131465   5.168   5.678   3.536  0.6883 -0.4911 -0.3624
 3350TIP3    H231466   5.314   5.708   3.559  0.3913  1.0834 -0.4623
 3351TIP3   OH231467   4.242   4.622  16.951  0.2595  0.4410 -0.6512
 3351TIP3    H131468   4.303   4.629  17.025  1.3092 -3.3274 -0.9321
 3351TIP3    H231469   4.161   4.589  16.990  0.4412 -0.4545 -1.0155
 3352TIP3   OH231470   2.658   6.498  13.874 -0.0666  0.3832  0.1275
 3352TIP3    H131471   2.650   6.403  13.874 -2.0560  0.4859 -1.3762
 3352TIP3    H231472   2.595   6.528  13.809  2.8348  2.5766 -1.9362
 3353TIP3   OH231473   2.560   3.931   5.423 -0.3052  0.2197  0.2870
 3353TIP3    H131474   2.577   3.992   5.351 -1.4049  1.1691  0.8075
 3353TIP3    H231475   2.475   3.894   5.404 -0.0072 -0.5401  0.4113
 3354TIP3   OH231476   0.233   3.437   2.944  0.6383  0.0328  0.2540
 3354TIP3    H131477   0.306   3.472   2.894  0.6001 -0.6981 -0.3309
 3354TIP3    H231478   0.261   3.349   2.970 -0.2605 -0.4951 -0.5082
 3355TIP3   OH231479   5.045   4.265  13.321  0.0530 -0.2528  0.2664
 3355TIP3    H131480   5.033   4.333  13.254  1.4625  1.8797  1.9938
 3355TIP3    H231481   5.132   4.230  13.304 -0.5523 -1.4704 -0.4345
 3356TIP3   OH231482   5.739   2.481  15.368 -0.3613 -0.1355 -0.0814
 3356TIP3    H131483   5.808   2.534  15.328  0.5485  0.6023  2.3143
 3356TIP3    H231484   5.782   2.398  15.389 -0.9397 -0.6689 -0.9101
 3357TIP3   OH231485   3.437   4.104  16.667 -0.0029  0.2194 -0.6073
 3357TIP3    H131486   3.352   4.083  16.704  0.3248  0.9792  0.6049
 3357TIP3    H231487   3.471   4.176  16.720  1.3857 -0.0391 -1.0820
 3358TIP3   OH231488   6.595   6.526  15.636 -0.1298  0.3416 -0.1112
 3358TIP3    H131489   6.509   6.485  15.649  0.6511 -1.0096  1.0711
 3358TIP3    H231490   6.578   6.620  15.645 -1.6604  0.1827 -1.0117
 3359TIP3   OH231491   4.971   6.212  15.910  0.5464 -0.0921 -0.2130
 3359TIP3    H131492   4.997   6.182  15.823 -0.0694 -0.7020 -0.2019
 3359TIP3    H231493   4.908   6.282  15.894  0.1216 -0.4807 -0.2711
 3360TIP3   OH231494   4.087   0.084  10.991  0.4414  0.1588 -0.4274
 3360TIP3    H131495   4.009   0.029  10.983  0.6212 -0.3167  0.8710
 3360TIP3    H231496   4.132   0.075  10.908  0.8909 -2.3249  0.0211
 3361TIP3   OH231497   3.679   4.565   1.682 -1.0859 -0.0235 -0.2572
 3361TIP3    H131498   3.650   4.597   1.596 -3.6179 -0.4364  0.3569
 3361TIP3    H231499   3.650   4.631   1.744  1.1119  0.4811  0.2961
 3362TIP3   OH231500   0.837   0.633   1.604 -0.0822 -0.1063 -0.0010
 3362TIP3    H131501   0.873   0.651   1.691  3.2156 -2.3157 -0.6979
 3362TIP3    H231502   0.846   0.716   1.557  2.3406  0.0315  0.5568
 3363TIP3   OH231503   0.201   4.847  16.986  0.7944 -0.8273 -0.0934
 3363TIP3    H131504   0.218   4.819  16.896 -0.0550 -1.5306 -0.0594
 3363TIP3    H231505   0.239   4.778  17.040  1.3152 -0.3988  0.0897
 3364TIP3   OH231506   6.128   4.162  16.191 -0.1440  0.3346  0.6318
 3364TIP3    H131507   6.195   4.221  16.157  0.7403 -0.9079  0.1454
 3364TIP3    H231508   6.056   4.220  16.217  0.5145  1.5819 -0.2154
 3365TIP3   OH231509   5.795   3.144   3.576  0.1814 -0.6365 -0.0895
 3365TIP3    H131510   5.734   3.209   3.541  1.6779  0.0552 -1.5045
 3365TIP3    H231511   5.772   3.063   3.530 -0.5331 -0.7132  0.3838
 3366TIP3   OH231512   1.101   5.462   0.164  0.2545 -0.1035  0.0251
 3366TIP3    H131513   1.070   5.495   0.249  1.6321  0.9285  0.1717
 3366TIP3    H231514   1.050   5.510   0.099 -0.8736 -0.9657  0.2562
 3367TIP3   OH231515   0.361   2.379  12.810 -0.5778 -0.2984 -0.0789
 3367TIP3    H131516   0.291   2.388  12.745  0.2980  0.2428 -0.9851
 3367TIP3    H231517   0.325   2.418  12.890 -0.6930  1.6863 -1.0312
 3368TIP3   OH231518   5.579   4.457   5.906  0.6789  0.1951  0.4249
 3368TIP3    H131519   5.501   4.499   5.870  0.6469  1.4604  1.8443
 3368TIP3    H231520   5.636   4.530   5.933  1.8063 -0.6927  0.5496
 3369TIP3   OH231521   2.000   4.089  14.680 -0.1392  0.1687  0.2462
 3369TIP3    H131522   2.081   4.039  14.685 -0.4617 -0.2219  2.4335
 3369TIP3    H231523   1.935   4.026  14.650  0.0779  0.1351 -0.1684
 3370TIP3   OH231524   4.830   3.920   6.338 -0.2163  0.1277  0.3237
 3370TIP3    H131525   4.739   3.897   6.325 -0.2077 -0.1443  0.7382
 3370TIP3    H231526   4.848   3.985   6.270 -0.6254 -0.0543  0.0374
 3371TIP3   OH231527   2.702   0.835   0.201 -0.4130 -0.2665  0.0563
 3371TIP3    H131528   2.645   0.758   0.197 -0.5378 -0.1802  0.1722
 3371TIP3    H231529   2.645   0.909   0.182 -0.1351 -0.2741 -0.8493
 3372TIP3   OH231530   6.410   4.697   2.522  0.0692 -0.1489 -0.6246
 3372TIP3    H131531   6.336   4.645   2.491 -0.1112 -0.6794  0.6108
 3372TIP3    H231532   6.375   4.786   2.529 -0.7633 -0.5477  0.8122
 3373TIP3   OH231533   2.246   6.409  15.808  0.1295 -0.3106 -0.0127
 3373TIP3    H131534   2.174   6.470  15.792  0.5659 -0.1610 -1.5257
 3373TIP3    H231535   2.218   6.327  15.768  1.7191  0.3833 -2.8492
 3374TIP3   OH231536   3.238   2.059  15.403 -0.4042 -0.3865 -0.0677
 3374TIP3    H131537   3.323   2.053  15.447 -0.9687 -1.5571  0.9300
 3374TIP3    H231538   3.244   1.996  15.331  0.3118  1.1092 -1.3815
 3375TIP3   OH231539   0.126   1.451  15.710  0.2341  0.1235  0.4349
 3375TIP3    H131540   0.156   1.488  15.793  0.9177  0.4172  0.0672
 3375TIP3    H231541   0.206   1.438  15.659 -0.1951  0.1936 -0.2750
 3376TIP3   OH231542   5.214   3.891  14.393  0.2042  0.0996 -0.0484
 3376TIP3    H131543   5.252   3.820  14.443 -0.2073 -0.2044 -0.1581
 3376TIP3    H231544   5.284   3.921  14.336 -0.0378 -1.2493 -1.1171
 3377TIP3   OH231545   0.402   2.780  14.918 -0.5455  0.3316 -0.1049
 3377TIP3    H131546   0.478   2.832  14.894 -0.8647  0.6680 -0.3956
 3377TIP3    H231547   0.406   2.703  14.860 -0.9356  0.8044 -0.7742
 3378TIP3   OH231548   2.732   6.423  12.246  0.6162 -0.5881 -0.2930
 3378TIP3    H131549   2.674   6.499  12.238 -0.4831 -1.2384  1.0346
 3378TIP3    H231550   2.795   6.447  12.314  0.8003 -0.5357 -0.4829
 3379TIP3   OH231551   0.823   4.993  15.134  0.1185  0.0788 -0.8495
 3379TIP3    H131552   0.878   5.033  15.068  1.0893  0.7108  0.2921
 3379TIP3    H231553   0.765   4.934  15.086  0.7831  0.5273 -2.2324
 3380TIP3   OH231554   6.658   3.421   0.824  0.3482 -0.6553 -0.1180
 3380TIP3    H131555   6.654   3.335   0.783  1.2140 -1.2641  1.0477
 3380TIP3    H231556   6.567   3.443   0.843  0.1981 -1.7952  0.5441
 3381TIP3   OH231557   3.503   0.294   1.162 -1.1324 -0.4192 -0.0958
 3381TIP3    H131558   3.552   0.218   1.194 -1.3171 -0.2879  0.5147
 3381TIP3    H231559   3.570   0.356   1.134 -0.9917 -1.1926 -1.5391
 3382TIP3   OH231560   0.974   0.566  14.400  0.2560  0.7286  0.0378
 3382TIP3    H131561   1.033   0.639  14.384  0.7322  0.1059 -1.1644
 3382TIP3    H231562   0.956   0.530  14.313 -0.0348 -0.5321  0.6001
 3383TIP3   OH231563   0.194   1.844  11.748  0.3524 -0.5734 -0.0331
 3383TIP3    H131564   0.263   1.778  11.744  1.2358  0.3736 -1.3082
 3383TIP3    H231565   0.173   1.852  11.841  3.2439  0.3748  0.6407
 3384TIP3   OH231566   3.878   6.105   2.577  0.5347 -0.5364 -0.2072
 3384TIP3    H131567   3.850   6.109   2.669 -0.9922 -1.3927 -0.6109
 3384TIP3    H231568   3.896   6.012   2.562 -1.2513 -0.7504 -1.3139
 3385TIP3   OH231569   2.119   2.267  14.492 -0.0727 -0.5508 -0.1666
 3385TIP3    H131570   2.182   2.232  14.555 -0.7112 -0.6938  0.4037
 3385TIP3    H231571   2.044   2.208  14.497 -0.0162 -0.7296 -1.2815
 3386TIP3   OH231572   0.844   5.235  16.114 -0.1570  0.3140  0.1565
 3386TIP3    H131573   0.811   5.286  16.040  0.0804  0.2372 -0.0043
 3386TIP3    H231574   0.799   5.271  16.190 -0.3379  0.4524 -0.0141
 3387TIP3   OH231575   4.297   0.286   4.778  0.2278  0.0797  0.5433
 3387TIP3    H131576   4.269   0.238   4.701  0.8139 -0.6617  0.7833
 3387TIP3    H231577   4.383   0.249   4.800 -0.8692 -1.3244  2.8451
 3388TIP3   OH231578   0.363   5.744   2.327 -0.1020  0.0772 -0.2073
 3388TIP3    H131579   0.417   5.794   2.266  0.8269  0.9174  1.2341
 3388TIP3    H231580   0.411   5.663   2.342 -0.1647  0.0175 -0.3270
 3389TIP3   OH231581   5.313   6.240   6.562 -0.1797 -0.2736  0.1273
 3389TIP3    H131582   5.373   6.313   6.546  1.3941 -1.5150  0.1175
 3389TIP3    H231583   5.299   6.241   6.657  0.5154 -0.4500  0.2397
 3390TIP3   OH231584   5.475   5.374   4.531  0.0913 -0.1013  0.1302
 3390TIP3    H131585   5.452   5.285   4.557  0.9569 -0.2763  0.2933
 3390TIP3    H231586   5.468   5.425   4.611 -0.5221  0.0079  0.0129
 3391TIP3   OH231587   1.838   5.848   2.178 -0.3410  0.0165 -0.2289
 3391TIP3    H131588   1.809   5.920   2.122 -1.2453 -0.3510 -0.2427
 3391TIP3    H231589   1.760   5.794   2.192  0.8203 -2.4290 -2.3601
 3392TIP3   OH231590   4.382   4.772  11.207  0.1228  0.1291 -0.3291
 3392TIP3    H131591   4.349   4.803  11.123 -1.9018  0.7922  0.6473
 3392TIP3    H231592   4.312   4.790  11.269  1.0425 -1.5026  1.3000
 3393TIP3   OH231593   4.245   4.441   0.257  0.5928 -0.3751  0.0377
 3393TIP3    H131594   4.203   4.486   0.330 -0.9277 -1.3239 -0.1896
 3393TIP3    H231595   4.335   4.427   0.285  0.6781  1.4069  0.7217
 3394TIP3   OH231596   2.006   4.885  13.267 -0.3120 -0.1929  0.3949
 3394TIP3    H131597   2.091   4.919  13.295 -0.9644  0.9732  0.9938
 3394TIP3    H231598   2.026   4.797  13.235  1.6286  1.0931 -2.3505
 3395TIP3   OH231599   4.096   3.625  12.638  0.6877  0.0483 -0.0794
 3395TIP3    H131600   4.018   3.610  12.585  0.0526 -0.4135  0.9569
 3395TIP3    H231601   4.079   3.708  12.683  1.1022  0.2985 -0.3723
 3396TIP3   OH231602   3.875   6.534   3.777 -0.4365  0.5724 -0.0378
 3396TIP3    H131603   3.855   6.579   3.694 -1.4185 -2.7237 -1.7722
 3396TIP3    H231604   3.843   6.594   3.844 -0.7414  2.8716 -2.0792
 3397TIP3   OH231605   2.998   2.790   0.906  0.6042 -0.0410  0.1407
 3397TIP3    H131606   3.084   2.832   0.905  2.0248 -2.4269  3.5693
 3397TIP3    H231607   3.001   2.729   0.833  1.9850 -0.3145  0.3974
 3398TIP3   OH231608   6.311   2.146   1.018  0.3357  0.3968 -0.2750
 3398TIP3    H131609   6.277   2.197   0.945 -0.5585 -1.2864 -1.0767
 3398TIP3    H231610   6.356   2.072   0.977 -0.5068 -0.7764  0.8746
 3399TIP3   OH231611   0.103   0.162  12.384  0.0850 -0.3858 -0.2805
 3399TIP3    H131612   0.058   0.244  12.403  0.5924  0.3404 -1.9594
 3399TIP3    H231613   0.034   0.105  12.350 -0.0759 -0.2478 -0.1894
 3400TIP3   OH231614   0.535   0.877   2.778  0.3999  0.1318 -0.5005
 3400TIP3    H131615   0.493   0.922   2.705  0.0678  0.2216 -0.2580
 3400TIP3    H231616   0.486   0.796   2.787  1.7052 -0.8442 -1.6692
 3401TIP3   OH231617   4.603   6.748  11.307 -0.5209 -0.3549 -0.0207
 3401TIP3    H131618   4.689   6.776  11.276 -0.7597  0.5466  0.1019
 3401TIP3    H231619   4.563   6.827  11.343 -2.8033  0.1612 -3.2244
 3402TIP3   OH231620   1.092   4.178  11.190  0.1602  0.1686  0.0737
 3402TIP3    H131621   1.084   4.083  11.194 -0.0689  0.2143  1.1288
 3402TIP3    H231622   1.135   4.196  11.107  0.3252 -0.8654 -0.0720
 3403TIP3   OH231623   5.154   5.063  13.750 -0.1234 -0.4399  0.1135
 3403TIP3    H131624   5.064   5.041  13.728 -0.5336  1.2510 -0.0452
 3403TIP3    H231625   5.192   5.097  13.669  0.0709  0.5979  0.6212
 3404TIP3   OH231626   6.045   0.014  16.464 -0.7413 -0.0301 -0.2635
 3404TIP3    H131627   5.954  -0.016  16.462 -1.0521  0.8210  0.3389
 3404TIP3    H231628   6.043   0.100  16.421 -0.0209 -0.4602 -1.2121
 3405TIP3   OH231629   2.077   4.359  12.678 -0.0139  0.0026 -0.3743
 3405TIP3    H131630   2.103   4.414  12.753  0.7809 -1.0461  0.1403
 3405TIP3    H231631   1.982   4.361  12.680 -0.0296 -0.6111  1.1481
 3406TIP3   OH231632   5.668   1.328   3.371  0.1000  0.4271  0.5209
 3406TIP3    H131633   5.680   1.410   3.420  1.2790  0.9921 -0.6576
 3406TIP3    H231634   5.620   1.354   3.292  3.1051  0.6535 -1.3968
 3407TIP3   OH231635   0.823   4.010  11.704  0.4258 -0.0085 -0.1226
 3407TIP3    H131636   0.770   4.025  11.626 -0.0361 -1.7198 -0.1660
 3407TIP3    H231637   0.792   3.926  11.739  0.9371  0.4835  1.6434
 3408TIP3   OH231638   1.558   5.430  11.327  0.8531  0.1697 -0.0210
 3408TIP3    H131639   1.545   5.441  11.233  0.6970 -0.1171 -0.0367
 3408TIP3    H231640   1.469   5.428  11.363  0.9216  0.5392  0.1632
 3409TIP3   OH231641   0.220   3.010   5.052 -0.1602 -0.3133  0.2608
 3409TIP3    H131642   0.147   3.018   5.113 -0.6631  1.2350 -0.5047
 3409TIP3    H231643   0.276   3.085   5.071 -0.9208  0.8849 -1.9264
 3410TIP3   OH231644   6.482   4.772  14.404 -0.0602 -0.1290 -0.4895
 3410TIP3    H131645   6.464   4.745  14.314  0.0624 -1.6425 -0.0880
 3410TIP3    H231646   6.424   4.718  14.458  1.0092 -0.4201  0.4270
 3411TIP3   OH231647   5.443   1.049  16.011  0.2069 -0.2809  0.5371
 3411TIP3    H131648   5.471   0.975  16.066 -2.6337 -1.9339 -0.0230
 3411TIP3    H231649   5.435   1.122  16.071  2.1314 -0.6706  1.3176
 3412TIP3   OH231650   2.512   2.864  11.735 -0.3860 -0.7952 -0.1283
 3412TIP3    H131651   2.428   2.820  11.724 -0.1848 -1.4056  0.6972
 3412TIP3    H231652   2.578   2.797  11.716 -0.0594 -0.1765 -1.3410
 3413TIP3   OH231653   1.855   0.551   5.763 -0.1476  0.5804 -0.5108
 3413TIP3    H131654   1.797   0.625   5.743 -0.1224  0.3536 -1.4470
 3413TIP3    H231655   1.925   0.589   5.816 -0.5511  1.0696 -0.3148
 3414TIP3   OH231656   4.013   2.751   0.680 -0.3075  0.2960 -0.1716
 3414TIP3    H131657   4.016   2.844   0.655 -2.0708  0.1600 -1.0384
 3414TIP3    H231658   4.091   2.714   0.639  0.4277  1.3906  0.1912
 3415TIP3   OH231659   1.693   0.957   0.158 -0.5553 -0.2043  0.6197
 3415TIP3    H131660   1.701   0.864   0.138  0.9520  0.1318 -0.5138
 3415TIP3    H231661   1.670   0.998   0.074  0.2021  0.5929  0.7858
 3416TIP3   OH231662   1.051   5.642  12.780 -0.0208  0.1894  0.1202
 3416TIP3    H131663   0.960   5.672  12.773 -0.4486 -1.1174 -0.3475
 3416TIP3    H231664   1.055   5.566  12.722  0.9340 -0.7639  1.3778
 3417TIP3   OH231665   0.663   1.249   4.635 -0.2718  0.0390 -0.2516
 3417TIP3    H131666   0.586   1.239   4.691 -0.9296 -1.3852 -1.3435
 3417TIP3    H231667   0.681   1.343   4.635 -1.8576  0.3683  0.2491
 3418TIP3   OH231668   1.041   2.675  15.871 -0.4135  0.0004 -0.2573
 3418TIP3    H131669   1.058   2.726  15.791  0.0018 -0.9107 -0.7570
 3418TIP3    H231670   0.948   2.654  15.866 -0.4842  0.3040 -0.2772
 3419TIP3   OH231671   0.561   1.555   4.077 -0.1772  0.1286 -0.2747
 3419TIP3    H131672   0.606   1.508   4.148  1.8383 -0.0395 -1.5852
 3419TIP3    H231673   0.564   1.647   4.104  1.3138  0.1636 -0.4786
 3420TIP3   OH231674   4.989   2.653   4.445 -0.9149 -0.1619  0.2920
 3420TIP3    H131675   5.081   2.661   4.422 -0.9473 -1.0162 -0.1460
 3420TIP3    H231676   4.989   2.622   4.535 -0.7701 -0.6011  0.1415
 3421TIP3   OH231677   2.881   0.868   5.399 -0.0706 -0.2215  0.1019
 3421TIP3    H131678   2.911   0.781   5.373 -1.3271 -1.5075  2.5132
 3421TIP3    H231679   2.786   0.865   5.388 -0.1255  0.8750  0.1521
 3422TIP3   OH231680   2.209   4.673  13.167 -0.6647 -0.2937  0.0514
 3422TIP3    H131681   2.253   4.615  13.229 -0.9918 -2.3933 -1.5416
 3422TIP3    H231682   2.275   4.692  13.101 -1.0718 -0.3234 -0.3685
 3423TIP3   OH231683   3.765   0.862   3.404  0.7244 -0.8949  0.4659
 3423TIP3    H131684   3.837   0.810   3.369  0.3479 -1.1099 -0.0012
 3423TIP3    H231685   3.804   0.948   3.421  1.3117 -1.2755  1.1019
 3424TIP3   OH231686   5.480   0.500  11.533 -0.1618 -0.3963 -0.5552
 3424TIP3    H131687   5.492   0.594  11.550 -1.6042 -0.4097  0.8133
 3424TIP3    H231688   5.536   0.457  11.598 -0.4222 -0.4628 -0.3716
 3425TIP3   OH231689   2.813   1.742   1.328 -0.4782  0.1693 -0.8189
 3425TIP3    H131690   2.881   1.785   1.378  0.0284 -1.5366  0.0291
 3425TIP3    H231691   2.840   1.650   1.324 -2.4844 -0.4694 -0.8474
 3426TIP3   OH231692   3.342   3.832   3.526  0.6918  0.3259 -0.4709
 3426TIP3    H131693   3.257   3.836   3.571 -0.1610  2.0730 -2.1313
 3426TIP3    H231694   3.405   3.822   3.597 -0.6800  1.8548  1.0774
 3427TIP3   OH231695   4.211   5.015  15.734  0.0170 -0.0629 -0.2985
 3427TIP3    H131696   4.159   4.936  15.720  0.9332 -0.5525 -1.0104
 3427TIP3    H231697   4.285   4.986  15.787  0.4687  0.2718 -0.7381
 3428TIP3   OH231698   4.723   1.867   3.718  0.4034 -0.6192  0.7317
 3428TIP3    H131699   4.740   1.774   3.702  0.0986 -0.7020  0.8798
 3428TIP3    H231700   4.741   1.880   3.810 -0.0678 -0.6541  0.8350
 3429TIP3   OH231701   1.584   5.469  17.131  0.7259  0.0568  0.1966
 3429TIP3    H131702   1.643   5.544  17.136  0.8112 -0.1004  2.7320
 3429TIP3    H231703   1.498   5.506  17.115  0.6672  0.7991  2.0323
 3430TIP3   OH231704   0.731   4.439   5.616 -0.1607  0.6203  0.7147
 3430TIP3    H131705   0.640   4.435   5.588 -0.4159 -0.5408  1.6204
 3430TIP3    H231706   0.771   4.360   5.581  0.5550  1.2123  0.1706
 3431TIP3   OH231707   0.822   2.371   2.366 -0.1727  0.3961  0.4410
 3431TIP3    H131708   0.792   2.301   2.309 -1.3873  1.4022 -0.2179
 3431TIP3    H231709   0.907   2.342   2.399 -0.5797 -1.2921  0.0687
 3432TIP3   OH231710   3.680   4.577   3.223  0.4076  0.1703  0.2895
 3432TIP3    H131711   3.663   4.558   3.316  2.5658 -0.4754  0.6250
 3432TIP3    H231712   3.650   4.499   3.177  0.2558  0.0631  0.5675
 3433TIP3   OH231713   2.309   2.963   2.146 -0.1673 -0.3314 -0.3012
 3433TIP3    H131714   2.289   3.015   2.069 -2.4368  0.8884  0.9944
 3433TIP3    H231715   2.288   2.873   2.121  2.7771 -0.5901 -2.2296
 3434TIP3   OH231716   0.036   6.436   5.982  0.5351 -0.0254 -0.2897
 3434TIP3    H131717   0.002   6.421   6.071  1.5258  1.5392  0.3918
 3434TIP3    H231718  -0.025   6.388   5.925 -0.0360 -1.2002  1.2247
 3435TIP3   OH231719   1.771   4.892  15.673 -0.3742  0.0557  0.5662
 3435TIP3    H131720   1.820   4.870  15.753 -2.6689  1.4684  2.4614
 3435TIP3    H231721   1.680   4.899  15.701 -1.1780  1.3303 -2.0586
 3436TIP3   OH231722   4.577   6.382  13.307 -0.4126  0.5429 -0.2484
 3436TIP3    H131723   4.490   6.343  13.310 -0.3920  0.3161 -1.7790
 3436TIP3    H231724   4.597   6.389  13.214  1.3484  0.2826  0.0758
 3437TIP3   OH231725   2.812   5.067   4.524 -0.4796 -0.1217 -0.3124
 3437TIP3    H131726   2.905   5.047   4.510 -0.6894 -0.4162 -1.4230
 3437TIP3    H231727   2.793   5.034   4.612  0.1759 -1.1741 -0.5494
 3438TIP3   OH231728   2.398   6.419  16.359  0.0071  0.8269  0.5056
 3438TIP3    H131729   2.440   6.398  16.442  1.4293  0.1960 -0.3253
 3438TIP3    H231730   2.332   6.485  16.381 -0.0822  0.2222  2.2075
 3439TIP3   OH231731   5.804   1.661  16.939  0.1523 -0.0953 -0.0595
 3439TIP3    H131732   5.728   1.615  16.903  1.2448 -1.7722 -0.2943
 3439TIP3    H231733   5.789   1.753  16.916 -0.9152 -0.6353 -1.6795
 3440TIP3   OH231734   5.967   2.025  10.886 -0.4055  0.2261 -0.9011
 3440TIP3    H131735   5.931   1.937  10.894 -0.0779  0.0406 -1.4646
 3440TIP3    H231736   5.967   2.044  10.793 -3.6364  2.1512 -0.6521
 3441TIP3   OH231737   1.875   4.377  15.826 -0.6845 -0.2988  0.2969
 3441TIP3    H131738   1.930   4.318  15.774 -0.4262 -0.5045  0.7959
 3441TIP3    H231739   1.817   4.417  15.762  1.5658  1.7060 -0.6431
 3442TIP3   OH231740   0.717   2.956  11.812 -0.0811  0.1912 -0.2896
 3442TIP3    H131741   0.688   2.905  11.737 -0.9528 -1.5294  1.1303
 3442TIP3    H231742   0.788   2.904  11.850  1.5449  1.8921 -0.8613
 3443TIP3   OH231743   6.255   4.753  15.231  0.1111  0.0429  0.0579
 3443TIP3    H131744   6.184   4.780  15.172  0.3208  0.4254 -0.0186
 3443TIP3    H231745   6.213   4.693  15.293 -0.5499  1.1738  0.7471
 3444TIP3   OH231746   2.538   3.705   0.732 -0.2845  0.7741 -0.1564
 3444TIP3    H131747   2.597   3.780   0.742 -2.2795  2.1694  2.3980
 3444TIP3    H231748   2.544   3.683   0.639  2.8415  1.9517 -0.3705
 3445TIP3   OH231749   4.810   0.738   4.430  0.4208  0.7342  0.2675
 3445TIP3    H131750   4.734   0.693   4.393  1.0702 -0.8367  0.7374
 3445TIP3    H231751   4.813   0.709   4.522  1.2151  1.2764  0.4279
 3446TIP3   OH231752   4.783   5.717  16.141 -0.0958  0.2401  0.0201
 3446TIP3    H131753   4.728   5.768  16.201 -0.7223 -0.0710 -0.2764
 3446TIP3    H231754   4.798   5.777  16.067 -1.6710 -0.3057 -0.7950
 3447TIP3   OH231755   2.524   2.750   5.022  0.0186  0.0877  0.5976
 3447TIP3    H131756   2.488   2.749   4.933 -0.5925 -0.0090  0.8435
 3447TIP3    H231757   2.602   2.806   5.015  1.2521 -1.6414 -0.4728
 3448TIP3   OH231758   2.397   5.810  16.644 -0.2105 -0.2510 -0.3067
 3448TIP3    H131759   2.470   5.871  16.660  0.8256 -0.3051 -3.9399
 3448TIP3    H231760   2.322   5.867  16.626 -0.4939 -0.1801  0.9733
 3449TIP3   OH231761   6.089   3.275  12.317 -0.4016  0.2366 -0.4763
 3449TIP3    H131762   6.013   3.221  12.295 -1.0545  1.0407 -0.2191
 3449TIP3    H231763   6.165   3.220  12.294 -1.0523 -0.4609 -0.9976
 3450TIP3   OH231764   1.729   0.361   3.784 -0.2168  0.2524  0.3413
 3450TIP3    H131765   1.656   0.341   3.724 -0.7351  1.9488  0.3525
 3450TIP3    H231766   1.807   0.349   3.730 -0.6575  1.4488 -0.6262
 3451TIP3   OH231767   1.818   5.389   1.484  0.7897  0.1284 -0.2841
 3451TIP3    H131768   1.837   5.470   1.532 -0.0824 -0.2654  0.7709
 3451TIP3    H231769   1.794   5.419   1.396  2.4670  0.8596 -0.5287
 3452TIP3   OH231770   4.181   3.539  14.545 -0.0200 -0.1219  0.1136
 3452TIP3    H131771   4.218   3.531  14.633 -0.1352  1.1961  0.2969
 3452TIP3    H231772   4.230   3.610  14.504 -1.0143  0.3246 -0.3374
 3453TIP3   OH231773   1.134   6.293   2.138 -0.1916 -1.0605 -0.4847
 3453TIP3    H131774   1.060   6.233   2.130 -0.6448 -0.6510  0.4459
 3453TIP3    H231775   1.189   6.256   2.207 -0.3892 -0.5102 -0.0202
 3454TIP3   OH231776   2.263   5.371  14.891 -0.2645  0.1687 -0.4109
 3454TIP3    H131777   2.192   5.310  14.869  0.3859 -0.3226 -1.2139
 3454TIP3    H231778   2.308   5.385  14.808  1.9117 -1.2276  0.4487
 3455TIP3   OH231779   4.966   4.076   5.584  0.0361 -0.0470 -0.7455
 3455TIP3    H131780   4.926   4.026   5.513  0.0154 -0.3800 -0.5010
 3455TIP3    H231781   4.908   4.152   5.595 -0.4674 -0.4682 -0.4653
 3456TIP3   OH231782   2.196   0.127   2.170  0.7874 -0.0824 -0.3765
 3456TIP3    H131783   2.256   0.114   2.243  0.3611  0.3589  0.0633
 3456TIP3    H231784   2.116   0.163   2.210 -0.3352 -2.0285 -0.7432
 3457TIP3   OH231785   0.494   3.682  15.384 -0.1109  0.1223 -0.1995
 3457TIP3    H131786   0.438   3.647  15.315  0.3440 -1.6187  0.2698
 3457TIP3    H231787   0.527   3.605  15.430  0.3663  1.2021  1.3678
 3458TIP3   OH231788   3.367   1.725  16.134  0.1753  0.0710 -0.2211
 3458TIP3    H131789   3.390   1.807  16.178 -0.4201 -0.2560  0.7234
 3458TIP3    H231790   3.287   1.746  16.086  1.5605  0.8118 -2.3416
 3459TIP3   OH231791   3.030   2.618  14.107 -0.0988  0.2615  0.5275
 3459TIP3    H131792   2.986   2.653  14.184 -1.5251  0.5998 -0.3859
 3459TIP3    H231793   2.986   2.662  14.033  1.2829  0.0340 -0.4729
 3460TIP3   OH231794   3.324   3.117  13.248  0.3318  0.2891  0.0539
 3460TIP3    H131795   3.389   3.049  13.229 -0.1587  0.0830 -0.9509
 3460TIP3    H231796   3.318   3.168  13.167 -0.4845  0.5375  0.2567
 3461TIP3   OH231797   6.468   2.599   5.410  0.2524 -0.4565  0.2260
 3461TIP3    H131798   6.397   2.544   5.376  0.0436  0.2188 -0.4634
 3461TIP3    H231799   6.437   2.629   5.495 -0.8565  0.8172 -0.5800
 3462TIP3   OH231800   6.230   6.242  13.584  0.0000  0.8102  0.5456
 3462TIP3    H131801   6.249   6.150  13.600  0.5354  0.7406 -0.4419
 3462TIP3    H231802   6.134   6.248  13.587 -0.1840 -0.2205 -1.6238
 3463TIP3   OH231803   0.364   4.595  13.639  0.0637  0.3483 -0.0173
 3463TIP3    H131804   0.375   4.635  13.725 -2.3223  0.5497  0.2514
 3463TIP3    H231805   0.304   4.653  13.592 -1.6887 -1.6428 -0.4270
 3464TIP3   OH231806   1.488   3.486   6.635 -0.2089 -0.1974  0.1827
 3464TIP3    H131807   1.568   3.445   6.601  0.0918  0.6757 -0.1691
 3464TIP3    H231808   1.520   3.555   6.693 -0.7081 -1.3036  1.8539
 3465TIP3   OH231809   2.729   2.268  16.382  0.3840 -0.0640  0.1899
 3465TIP3    H131810   2.703   2.192  16.435 -0.4298  1.1072  1.5404
 3465TIP3    H231811   2.798   2.310  16.433  1.2080 -0.1467 -0.8089
 3466TIP3   OH231812   1.214   5.523   5.641  1.0986  0.6069 -0.2213
 3466TIP3    H131813   1.214   5.557   5.730  0.4510  1.8038 -0.6509
 3466TIP3    H231814   1.305   5.531   5.612  1.2902  0.3160  0.2727
 3467TIP3   OH231815   2.734   3.653   1.333  0.5498  0.1700  0.7065
 3467TIP3    H131816   2.675   3.723   1.360  0.9573 -0.3151  3.0474
 3467TIP3    H231817   2.692   3.615   1.255  0.3019  2.8909 -0.5937
 3468TIP3   OH231818   1.084   5.016  12.627 -0.1726 -0.0449  0.4694
 3468TIP3    H131819   1.133   5.028  12.546 -0.5476  0.7039  0.3500
 3468TIP3    H231820   1.089   4.922  12.644 -1.8536 -0.5735 -1.5449
 3469TIP3   OH231821   1.130   0.897   5.500 -0.4116 -0.1877 -0.1408
 3469TIP3    H131822   1.123   0.976   5.553  1.0046  1.0658 -1.7161
 3469TIP3    H231823   1.070   0.912   5.427  0.2968 -0.3022 -0.7538
 3470TIP3   OH231824   1.038   5.080  15.589  0.2586 -0.1267  0.0236
 3470TIP3    H131825   1.040   5.025  15.667 -0.7776 -1.6184 -0.9554
 3470TIP3    H231826   0.984   5.032  15.527  0.3853  1.4092 -1.3425
 3471TIP3   OH231827   4.097   2.274   0.124 -0.1179 -0.4042 -0.0371
 3471TIP3    H131828   4.029   2.316   0.070 -0.9041 -2.9923 -1.2244
 3471TIP3    H231829   4.075   2.300   0.213 -0.7081  1.4309 -0.6653
 3472TIP3   OH231830   0.480   5.446  10.952  0.1877  0.5424 -0.0128
 3472TIP3    H131831   0.453   5.465  10.862 -2.9216  0.0711  0.7169
 3472TIP3    H231832   0.511   5.355  10.949  0.4319  0.6390 -0.6521
 3473TIP3   OH231833   1.040   1.425   5.729  0.1412 -0.6147 -0.6672
 3473TIP3    H131834   1.095   1.414   5.807 -0.2173 -1.9820 -0.5789
 3473TIP3    H231835   1.103   1.430   5.657  0.5016  1.1733 -0.2788
 3474TIP3   OH231836   1.478   1.696  16.171 -0.4619 -0.2995 -0.1090
 3474TIP3    H131837   1.476   1.788  16.142 -0.6022 -1.0196 -2.6666
 3474TIP3    H231838   1.571   1.677  16.184 -0.5437  0.7070  2.4672
 3475TIP3   OH231839   0.390   1.441  17.319 -0.1013  0.0043  0.6166
 3475TIP3    H131840   0.346   1.411  17.240  0.5430  1.2058 -0.2279
 3475TIP3    H231841   0.363   1.532  17.329  0.0199 -0.0562  1.6587
 3476TIP3   OH231842   5.587   4.557  14.964 -0.0720  0.1694 -0.6429
 3476TIP3    H131843   5.614   4.644  14.935  0.1990  0.5851  0.7759
 3476TIP3    H231844   5.645   4.537  15.037 -1.5230 -0.2983  0.4292
 3477TIP3   OH231845   4.661   6.015   3.202 -0.2034  0.4473  0.4866
 3477TIP3    H131846   4.648   5.959   3.126  1.2187  0.2404  0.3733
 3477TIP3    H231847   4.715   6.088   3.171  1.3740 -0.2221  1.4949
 3478TIP3   OH231848   3.024   5.108  15.158 -0.5103  0.4880  0.2039
 3478TIP3    H131849   3.092   5.050  15.193 -0.9176 -0.8769 -1.1461
 3478TIP3    H231850   3.021   5.181  15.218  1.8520  0.3619  0.5468
 3479TIP3   OH231851   4.394   1.024  11.826 -0.1235  0.7149 -0.2103
 3479TIP3    H131852   4.303   1.031  11.800  0.2575  0.3922 -1.7278
 3479TIP3    H231853   4.437   1.099  11.785  0.4307  0.4324 -0.1676
 3480TIP3   OH231854   0.894   5.597  15.276  0.2527  0.0011  0.0859
 3480TIP3    H131855   0.835   5.613  15.350  0.4959 -1.4124  0.6265
 3480TIP3    H231856   0.903   5.682  15.234  1.5430  1.2911  2.7437
 3481TIP3   OH231857   2.851   3.101   0.801  0.3287 -0.2465  0.0682
 3481TIP3    H131858   2.848   3.018   0.753  1.6141 -0.7871  0.8449
 3481TIP3    H231859   2.926   3.091   0.860  0.3146  1.3602  0.3999
 3482TIP3   OH231860   3.272   2.781  16.823 -0.4599 -0.0249 -0.2992
 3482TIP3    H131861   3.177   2.792  16.831 -0.7629 -1.9195 -0.8614
 3482TIP3    H231862   3.298   2.740  16.906  0.2607  2.3908  0.7602
 3483TIP3   OH231863   6.353   2.595  15.562 -0.4261  0.2186  0.3753
 3483TIP3    H131864   6.333   2.627  15.650 -1.4112 -1.2867  0.7316
 3483TIP3    H231865   6.297   2.519  15.551  0.1262  0.0233 -1.3400
 3484TIP3   OH231866   3.870   4.791  11.406 -0.0180  0.5313  0.4808
 3484TIP3    H131867   3.811   4.716  11.419  1.2541 -0.8387 -1.1010
 3484TIP3    H231868   3.834   4.860  11.461 -3.7145  0.1452 -1.1666
 3485TIP3   OH231869   5.444   0.005  15.846  0.3632  0.3137  0.9790
 3485TIP3    H131870   5.406  -0.082  15.855  2.4919 -0.7508  0.4099
 3485TIP3    H231871   5.369   0.063  15.833 -1.0567 -1.5753  0.2703
 3486TIP3   OH231872   2.677   2.048  14.800  0.4246  0.2555 -0.3590
 3486TIP3    H131873   2.647   1.960  14.776  0.3361  0.4582 -1.0251
 3486TIP3    H231874   2.632   2.106  14.738  0.7528  0.7382 -0.1508
 3487TIP3   OH231875   4.000   0.416   0.174 -0.0249  0.1116 -0.5919
 3487TIP3    H131876   4.066   0.479   0.143  0.0971  0.4114  0.2555
 3487TIP3    H231877   4.048   0.334   0.180  0.8256  0.7261  1.8918
 3488TIP3   OH231878   0.541   1.200   2.024  0.0569 -0.4046 -0.1447
 3488TIP3    H131879   0.574   1.168   2.108 -1.2490  0.6301  0.8012
 3488TIP3    H231880   0.568   1.292   2.020  0.4105 -0.5351 -1.0303
 3489TIP3   OH231881   1.004   4.536   2.651  0.0759  0.3030 -0.5141
 3489TIP3    H131882   1.098   4.543   2.633  0.4229  0.5223  1.2096
 3489TIP3    H231883   0.997   4.461   2.711 -1.1588 -1.1892 -2.3909
 3490TIP3   OH231884   4.787   6.242  16.175 -0.3153 -0.2990  0.3135
 3490TIP3    H131885   4.753   6.204  16.094 -0.3989  1.5789 -0.5873
 3490TIP3    H231886   4.869   6.283  16.149  0.7850 -1.5158  1.6844
 3491TIP3   OH231887   2.178   2.689   5.871  0.0876 -0.1932 -0.5839
 3491TIP3    H131888   2.083   2.673   5.865  0.5231 -2.7035 -2.2136
 3491TIP3    H231889   2.187   2.749   5.945 -2.7724  0.1835 -0.4104
 3492TIP3   OH231890   5.512   2.178  16.139  0.1476  0.5149 -0.2659
 3492TIP3    H131891   5.565   2.249  16.103  1.2596 -1.0136 -1.7950
 3492TIP3    H231892   5.548   2.163  16.226 -1.2070  2.8722  0.8118
 3493TIP3   OH231893   6.213   6.202  17.224  0.5435 -0.3105  0.1302
 3493TIP3    H131894   6.235   6.282  17.177  0.6757 -1.0452 -1.0923
 3493TIP3    H231895   6.253   6.213  17.310 -1.9001  2.2154  1.0938
 3494TIP3   OH231896   3.653   0.783   4.736 -0.2220 -0.1159 -0.9604
 3494TIP3    H131897   3.719   0.851   4.746 -0.4378 -0.0640  0.2267
 3494TIP3    H231898   3.576   0.829   4.701 -0.3664  0.2597 -0.1696
 3495TIP3   OH231899   5.566   1.524  15.384  0.1013 -0.0001  0.1245
 3495TIP3    H131900   5.569   1.429  15.392  1.6667  0.0403  0.3878
 3495TIP3    H231901   5.626   1.556  15.451  2.6639  0.9628 -2.3887
 3496TIP3   OH231902   4.490   5.541   3.735 -0.1274 -0.2053 -0.2161
 3496TIP3    H131903   4.548   5.544   3.811 -1.7497  0.2869  1.0574
 3496TIP3    H231904   4.488   5.631   3.703  0.0221 -0.2779 -0.4319
 3497TIP3   OH231905   0.581   2.330  12.538  0.0040 -0.3096 -0.2154
 3497TIP3    H131906   0.641   2.327  12.613  0.4552  1.2918 -0.4683
 3497TIP3    H231907   0.534   2.247  12.541 -0.0609 -0.2393  1.8944
 3498TIP3   OH231908   1.624   6.114   3.360 -0.7863  0.6432  0.1794
 3498TIP3    H131909   1.639   6.100   3.454 -1.5555 -1.2349  0.0704
 3498TIP3    H231910   1.712   6.128   3.324 -0.1978 -1.0213  0.8611
 3499TIP3   OH231911   2.595   3.868   5.127  0.5546 -0.0353  0.3693
 3499TIP3    H131912   2.532   3.818   5.076  0.4898  1.5091 -1.1666
 3499TIP3    H231913   2.627   3.807   5.193 -0.9893 -1.4616 -0.1441
 3500TIP3   OH231914   3.941   4.872  12.531  0.4278  0.1851  0.2612
 3500TIP3    H131915   3.961   4.783  12.501 -0.9408  0.3352 -1.2525
 3500TIP3    H231916   3.995   4.929  12.476 -0.7262  0.3830 -0.7074
 3501TIP3   OH231917   6.166   1.523  12.480  0.7091  0.3735  0.0002
 3501TIP3    H131918   6.235   1.590  12.481  2.2622 -1.1470 -0.9866
 3501TIP3    H231919   6.088   1.570  12.450  2.1409  1.4405 -2.3428
 3502TIP3   OH231920   1.362   4.610   0.417  0.4505 -0.3247 -0.4255
 3502TIP3    H131921   1.434   4.672   0.426  1.1357 -1.2032  0.3359
 3502TIP3    H231922   1.307   4.647   0.348  1.6383  0.3522 -1.0392
 3503TIP3   OH231923   0.061   1.251  13.156 -0.0925 -0.7720 -0.2306
 3503TIP3    H131924   0.099   1.337  13.172 -0.0400 -0.3774 -2.2931
 3503TIP3    H231925   0.103   1.194  13.221 -0.1270  0.7294  1.1566
 3504TIP3   OH231926   4.099   0.633  12.415  0.6524  0.5531  0.3918
 3504TIP3    H131927   4.044   0.578  12.470 -0.5979 -1.0545 -2.2361
 3504TIP3    H231928   4.157   0.573  12.369  2.1204  1.8808  0.4129
 3505TIP3   OH231929   6.132   2.876  11.978 -0.4745 -0.3424 -0.2629
 3505TIP3    H131930   6.138   2.818  12.054 -0.5321 -0.5730 -0.4351
 3505TIP3    H231931   6.191   2.837  11.913  1.1110  0.9132  0.3456
 3506TIP3   OH231932   0.373   1.547  15.555  0.4274  0.0776 -0.2865
 3506TIP3    H131933   0.443   1.588  15.505  1.7206 -1.2960  0.3587
 3506TIP3    H231934   0.364   1.459  15.519 -1.2624  0.3394 -0.6211
 3507TIP3   OH231935   5.462   3.690   4.531  0.1376  0.6087  0.1949
 3507TIP3    H131936   5.486   3.708   4.622 -0.2834 -0.7829  0.6120
 3507TIP3    H231937   5.543   3.705   4.482  0.6801  0.2815  0.9612
 3508TIP3   OH231938   0.315   3.662  13.220  0.3051 -0.0221 -0.0720
 3508TIP3    H131939   0.376   3.724  13.260 -0.3841 -0.1728  1.2583
 3508TIP3    H231940   0.234   3.712  13.208  0.3731 -0.0951 -0.9317
 3509TIP3   OH231941   3.436   1.565  13.690 -0.4670  0.4439 -0.5302
 3509TIP3    H131942   3.345   1.534  13.685  0.1095 -2.3838  2.4923
 3509TIP3    H231943   3.475   1.538  13.607 -1.9608  0.1621 -1.1792
 3510TIP3   OH231944   3.062   4.490  13.881  0.1844 -0.0612  0.4732
 3510TIP3    H131945   3.145   4.451  13.908 -0.5718 -1.6697  0.5776
 3510TIP3    H231946   3.014   4.504  13.963 -0.7331 -1.7608  0.2811
 3511TIP3   OH231947   5.129   0.712   4.536  0.0735 -0.8918  0.4397
 3511TIP3    H131948   5.108   0.727   4.444 -1.0882 -1.2561  0.6226
 3511TIP3    H231949   5.157   0.620   4.540 -0.3666 -1.0223  0.5281
 3512TIP3   OH231950   6.686   0.025   5.803  0.3516 -0.0321  0.2870
 3512TIP3    H131951   6.613  -0.033   5.824 -0.7374  0.7114 -1.2971
 3512TIP3    H231952   6.725  -0.013   5.724 -0.6682  1.5896 -1.0536
 3513TIP3   OH231953   6.716   2.375  14.357 -0.9411 -0.4191  0.0114
 3513TIP3    H131954   6.731   2.466  14.380 -3.0494  0.4226 -1.6041
 3513TIP3    H231955   6.759   2.325  14.426  0.7644  1.7530  0.6464
 3514TIP3   OH231956   0.061   6.624   2.818 -0.6187  0.7066 -0.4968
 3514TIP3    H131957   0.119   6.647   2.891  0.5494 -1.5797 -0.5898
 3514TIP3    H231958  -0.027   6.631   2.854 -0.0680 -0.4450  1.2300
 3515TIP3   OH231959   3.581   2.887  11.390  0.6828  0.5622  0.2526
 3515TIP3    H131960   3.674   2.871  11.374  0.3548  0.1657 -1.4468
 3515TIP3    H231961   3.550   2.807  11.431  0.5640 -0.4151 -1.6427
 3516TIP3   OH231962   2.816   6.081   4.390  0.7491 -0.3040  0.2158
 3516TIP3    H131963   2.780   6.028   4.318 -1.0397  1.0980  0.0150
 3516TIP3    H231964   2.780   6.042   4.469 -1.4128  1.1083  0.0147
 3517TIP3   OH231965   0.387   2.258   5.638 -0.1175 -0.1340  0.2320
 3517TIP3    H131966   0.292   2.254   5.625 -0.1206 -0.0530  0.2336
 3517TIP3    H231967   0.413   2.166   5.646 -0.1324 -0.1806 -0.2446
 3518TIP3   OH231968   4.832   3.444   3.667  0.4424 -0.3120  0.0277
 3518TIP3    H131969   4.911   3.391   3.673  1.9776  1.9215  1.5905
 3518TIP3    H231970   4.822   3.481   3.755 -2.1055 -0.1483 -0.2624
 3519TIP3   OH231971   6.502   1.324  11.021 -0.1250  0.5657 -0.4853
 3519TIP3    H131972   6.541   1.363  11.100  0.4292  0.7829 -0.8607
 3519TIP3    H231973   6.486   1.399  10.963  2.1576  0.1718 -1.7465
 3520TIP3   OH231974   3.609   2.167  16.050  0.0060  0.3690  0.0929
 3520TIP3    H131975   3.563   2.104  16.106  0.6376  1.3530  1.7954
 3520TIP3    H231976   3.544   2.235  16.033  0.1069  0.5463  0.4270
 3521TIP3   OH231977   5.046   4.007   2.329 -0.1492  0.3938 -0.2228
 3521TIP3    H131978   5.119   3.998   2.391 -0.3265 -0.5523 -0.1394
 3521TIP3    H231979   5.011   4.095   2.347 -0.8673 -0.2279  1.7921
 3522TIP3   OH231980   5.413   0.407  17.312 -0.0908  0.1937 -0.7587
 3522TIP3    H131981   5.408   0.447  17.399 -0.7043 -0.7163 -0.3518
 3522TIP3    H231982   5.471   0.463  17.262 -1.0061  1.6421 -0.2495
 3523TIP3   OH231983   3.936   2.494   5.464  0.4137 -0.0092  0.1253
 3523TIP3    H131984   3.936   2.553   5.539  0.5825 -0.0578  0.1640
 3523TIP3    H231985   4.024   2.457   5.462  1.2975  1.9638 -1.6235
 3524TIP3   OH231986   6.380   3.187   0.004 -0.2283  0.6999 -0.1843
 3524TIP3    H131987   6.417   3.262   0.050  0.0500  0.0819  0.6256
 3524TIP3    H231988   6.315   3.225  -0.055  0.1475  1.6022 -0.0378
 3525TIP3   OH231989   3.062   6.703   5.465 -0.4431  0.1773  0.0053
 3525TIP3    H131990   3.114   6.628   5.437  0.5196  0.7493  0.2320
 3525TIP3    H231991   3.112   6.742   5.536 -0.2194  1.8536 -1.0235
 3526TIP3   OH231992   0.882   4.386  12.261 -0.4820 -0.2119  0.1065
 3526TIP3    H131993   0.883   4.480  12.282  0.4107 -0.5291  1.6146
 3526TIP3    H231994   0.856   4.344  12.343  0.6280 -1.3744 -0.1124
 3527TIP3   OH231995   1.700   6.423   6.244 -0.0395 -0.1146 -0.2247
 3527TIP3    H131996   1.661   6.508   6.262 -0.4590 -0.4428  0.4746
 3527TIP3    H231997   1.692   6.375   6.326  1.4056 -0.3714 -0.2019
 3528TIP3   OH231998   3.284   4.755   0.740  0.2770  0.6049  0.4622
 3528TIP3    H131999   3.247   4.841   0.720 -0.2984  0.0389 -1.0332
 3528TIP3    H232000   3.229   4.722   0.811 -0.9009  0.5772 -0.4374
 3529TIP3   OH232001   4.441   6.231  13.625  0.5535 -0.0160  0.5714
 3529TIP3    H132002   4.512   6.168  13.617  0.2542 -0.1268 -2.4406
 3529TIP3    H232003   4.480   6.314  13.598  0.0100  0.3137  0.7807
 3530TIP3   OH232004   1.586   1.144  15.341 -0.5841 -0.1751 -0.4390
 3530TIP3    H132005   1.598   1.197  15.420 -1.1678 -1.9472  0.9134
 3530TIP3    H232006   1.637   1.189  15.274 -1.1397  2.1357  0.5760
 3531TIP3   OH232007   1.788   6.237   5.746  0.2755  0.2093  0.2958
 3531TIP3    H132008   1.782   6.188   5.828  0.4677  0.1489  0.2768
 3531TIP3    H232009   1.810   6.170   5.681  0.4396  0.3049  0.2520
 3532TIP3   OH232010   5.338   2.668   4.322  0.3354  0.0465  0.2703
 3532TIP3    H132011   5.328   2.713   4.239  0.3885 -0.3094  0.0677
 3532TIP3    H232012   5.309   2.579   4.305  0.2096  0.0073  0.6706
 3533TIP3   OH232013   5.095   5.813  17.323 -0.4019  0.2490  0.5464
 3533TIP3    H132014   5.004   5.840  17.322 -0.4625  0.0411  0.4370
 3533TIP3    H232015   5.123   5.816  17.231 -0.2664  0.4200  0.5920
 3534TIP3   OH232016   2.518   2.211  11.762 -0.1425 -0.2675  0.0531
 3534TIP3    H132017   2.558   2.280  11.708 -2.9407 -0.1287 -2.0762
 3534TIP3    H232018   2.471   2.258  11.830 -0.8741 -0.1384 -0.5367
 3535TIP3   OH232019   1.752   5.164   2.445 -0.6902 -0.3024 -0.2979
 3535TIP3    H132020   1.770   5.075   2.416 -0.3363 -0.1381 -0.5986
 3535TIP3    H232021   1.707   5.154   2.528  1.0234 -0.7256  0.6173
 3536TIP3   OH232022   5.223   4.707   2.764 -0.7017  0.6531 -0.9734
 3536TIP3    H132023   5.228   4.620   2.802 -0.1746 -0.4327 -3.3256
 3536TIP3    H232024   5.241   4.766   2.837  0.9484 -1.2781  0.3133
 3537TIP3   OH232025   5.580   2.144   1.541  0.2756  0.0255  0.4892
 3537TIP3    H132026   5.599   2.210   1.607  1.2036  0.2831 -0.0125
 3537TIP3    H232027   5.522   2.082   1.584 -0.4707  1.0754  1.0274
 3538TIP3   OH232028   5.690   5.376   1.237  0.4046 -0.5039  0.5335
 3538TIP3    H132029   5.715   5.285   1.252 -0.2761 -0.8907 -0.5092
 3538TIP3    H232030   5.605   5.370   1.193  0.4122  0.6358  0.3321
 3539TIP3   OH232031   0.881   1.850   5.024  0.4441  0.2226 -0.3722
 3539TIP3    H132032   0.932   1.870   5.103  0.3488  1.7232 -0.6548
 3539TIP3    H232033   0.941   1.867   4.952 -0.0594  0.7535 -0.6736
 3540TIP3   OH232034   4.270   2.419   1.294  0.1854  0.5725 -0.1393
 3540TIP3    H132035   4.197   2.361   1.274  0.3298 -0.0145  0.9534
 3540TIP3    H232036   4.331   2.365   1.343  1.7459  0.8364 -1.6806
 3541TIP3   OH232037   1.111   2.322  11.684  0.4867 -0.1573  0.4572
 3541TIP3    H132038   1.032   2.302  11.634  1.2765 -0.2065 -0.8388
 3541TIP3    H232039   1.178   2.336  11.617  1.6030 -0.2279  1.5211
 3542TIP3   OH232040   1.818   5.224   0.480  0.0137 -0.4753 -0.1698
 3542TIP3    H132041   1.769   5.180   0.550  0.1585 -1.0425 -0.4149
 3542TIP3    H232042   1.775   5.309   0.470 -0.8500 -0.9193 -0.3035
 3543TIP3   OH232043   3.908   1.553  13.190 -0.3847  0.0636 -0.0123
 3543TIP3    H132044   3.843   1.537  13.258 -0.3407 -1.1160 -0.2334
 3543TIP3    H232045   3.874   1.629  13.143  0.1116  1.5908  1.9487
 3544TIP3   OH232046   4.525   6.268  15.598 -0.1573  0.3905  0.4903
 3544TIP3    H132047   4.477   6.320  15.533 -2.0056 -1.0249  0.6608
 3544TIP3    H232048   4.601   6.234  15.550  1.0325  3.0068  0.3281
 3545TIP3   OH232049   2.365   6.714  11.484 -0.5072 -0.1237  0.1156
 3545TIP3    H132050   2.291   6.689  11.539 -0.8507 -0.7100 -0.5793
 3545TIP3    H232051   2.379   6.637  11.428 -0.6013  0.6869 -1.0572
 3546TIP3   OH232052   1.498   2.424  12.399 -0.3915  0.0359 -0.1134
 3546TIP3    H132053   1.559   2.498  12.400  0.9399 -1.0436  0.1574
 3546TIP3    H232054   1.432   2.448  12.334  1.5858  0.2125 -2.1368
 3547TIP3   OH232055   5.983   0.965  14.531 -0.5537 -0.0261  0.5351
 3547TIP3    H132056   5.923   1.018  14.479 -0.3792  0.2418  0.6089
 3547TIP3    H232057   5.960   0.984  14.621 -0.5693 -0.1680  0.5626
 3548TIP3   OH232058   1.721   0.185   1.398  0.1117  0.0691  0.1081
 3548TIP3    H132059   1.767   0.135   1.466  0.1189  2.1671  1.7440
 3548TIP3    H232060   1.752   0.147   1.316  1.0379 -1.7670  1.2239
 3549TIP3   OH232061   1.222   0.188  17.255 -0.0275 -0.8991 -0.1983
 3549TIP3    H132062   1.281   0.115  17.272 -0.5505 -1.1208  0.7611
 3549TIP3    H232063   1.134   0.153  17.270 -0.2658  0.0172  0.6910
 3550TIP3   OH232064   5.754   4.293  17.029 -0.0095  0.1666 -0.1302
 3550TIP3    H132065   5.737   4.345  16.951 -0.5660 -0.6025 -0.5306
 3550TIP3    H232066   5.698   4.216  17.020  0.8230 -0.5293  0.4301
 3551TIP3   OH232067   1.132   2.738   2.899 -0.6553 -0.2652 -0.1037
 3551TIP3    H132068   1.143   2.651   2.860  0.8545 -0.6371  1.0472
 3551TIP3    H232069   1.056   2.775   2.854 -0.7823 -1.8161 -1.2594
 3552TIP3   OH232070   1.772   1.690   2.734 -0.5015  0.1050  0.0215
 3552TIP3    H132071   1.781   1.782   2.710 -0.4320 -0.1310 -0.9025
 3552TIP3    H232072   1.712   1.654   2.668 -0.9412 -0.3992  0.6820
 3553TIP3   OH232073   4.182   5.534   0.850  0.2572 -0.3710 -0.6053
 3553TIP3    H132074   4.095   5.569   0.870  0.1041  0.2564 -2.1640
 3553TIP3    H232075   4.182   5.447   0.888 -0.5934  0.0857  0.5036
 3554TIP3   OH232076   3.848   3.336  15.693  0.4622 -0.2084 -0.3138
 3554TIP3    H132077   3.824   3.248  15.667  0.2528 -0.1774 -0.2281
 3554TIP3    H232078   3.880   3.377  15.613  1.5417 -0.6900 -0.1422
 3555TIP3   OH232079   4.740   4.778  15.028  0.2645  0.0695 -0.5183
 3555TIP3    H132080   4.748   4.797  15.121  0.4793  1.7508 -0.8586
 3555TIP3    H232081   4.681   4.846  14.994 -1.3296 -1.6054 -1.2894
 3556TIP3   OH232082   1.268   3.491   0.783  0.0777  0.2120 -0.0374
 3556TIP3    H132083   1.185   3.534   0.762  1.0590  1.2624 -2.1020
 3556TIP3    H232084   1.250   3.398   0.773 -1.1054  0.3592  0.5786
 3557TIP3   OH232085   4.553   1.718  17.272  0.3222 -0.1842  0.7205
 3557TIP3    H132086   4.592   1.677  17.350  0.3578 -1.8270 -0.1229
 3557TIP3    H232087   4.587   1.667  17.199 -1.7294 -0.3041 -0.2019
 3558TIP3   OH232088   5.584   1.021   2.783 -0.0387 -0.5066  0.1822
 3558TIP3    H132089   5.620   0.962   2.717  0.4100  0.0498 -0.0802
 3558TIP3    H232090   5.511   0.973   2.821 -1.1022 -0.3839 -1.5767
 3559TIP3   OH232091   2.426   0.974  15.616 -1.1234 -0.2506  0.7473
 3559TIP3    H132092   2.499   0.956  15.557 -2.4417 -1.1102 -0.7175
 3559TIP3    H232093   2.451   0.933  15.699 -0.1663 -1.0087  0.1060
 3560TIP3   OH232094   6.728   2.073   4.659  0.0137 -0.4100 -0.3590
 3560TIP3    H132095   6.817   2.108   4.658 -0.9257  2.3068  1.2192
 3560TIP3    H232096   6.706   2.061   4.567  1.9784 -1.1533 -0.7780
 3561TIP3   OH232097   0.924   5.950  15.528 -0.3364  0.3026  0.8970
 3561TIP3    H132098   0.874   6.029  15.549 -0.9980  0.7606 -2.0014
 3561TIP3    H232099   0.859   5.880  15.526 -0.0839  0.0453  1.5234
 3562TIP3   OH232100   3.645   6.531  14.033 -0.2841  0.1461  0.1580
 3562TIP3    H132101   3.638   6.461  14.097  1.1399 -0.1873 -0.0102
 3562TIP3    H232102   3.555   6.560  14.019 -1.2514 -3.1172 -1.4050
 3563TIP3   OH232103   5.261   2.408   0.865  0.4482 -0.1702  0.0214
 3563TIP3    H132104   5.270   2.488   0.915  0.7853  0.9927 -1.8034
 3563TIP3    H232105   5.180   2.419   0.815 -1.3031 -2.4064  2.1130
 3564TIP3   OH232106   3.551   0.800   3.875 -0.3229  0.4275  0.4593
 3564TIP3    H132107   3.508   0.749   3.807  1.2707  1.2644 -1.2723
 3564TIP3    H232108   3.542   0.891   3.846  0.7927  0.7697  1.0955
 3565TIP3   OH232109   3.428   2.508  16.517  0.2921  0.2123 -0.2582
 3565TIP3    H132110   3.385   2.442  16.464 -0.9778 -1.0047  2.1077
 3565TIP3    H232111   3.386   2.590  16.493 -2.1711 -0.6806  0.6756
 3566TIP3   OH232112   0.861   2.671   3.313  0.6364 -0.2324 -0.2472
 3566TIP3    H132113   0.948   2.649   3.281  0.8312 -2.0517  1.3963
 3566TIP3    H232114   0.862   2.650   3.406 -0.9936  1.5466  0.2493
 3567TIP3   OH232115   0.465   2.538   3.557  0.3278 -0.1905  0.1274
 3567TIP3    H132116   0.478   2.608   3.494 -0.7295  0.6708  0.8425
 3567TIP3    H232117   0.395   2.569   3.615 -0.4785 -2.0004  0.2100
 3568TIP3   OH232118   3.491   5.104  13.039 -0.0733 -0.2181 -0.8133
 3568TIP3    H132119   3.453   5.048  12.971 -0.8832  2.1930 -2.4936
 3568TIP3    H232120   3.586   5.095  13.028 -0.1954 -0.8454 -1.3925
 3569TIP3   OH232121   3.995   4.477   3.621  0.3301  0.2426 -0.1232
 3569TIP3    H132122   4.035   4.530   3.689 -2.5771  0.2059  1.8122
 3569TIP3    H232123   3.985   4.537   3.547  0.3610  1.3648  0.7445
 3570TIP3   OH232124   3.505   1.650  15.211 -0.1835 -0.0313  0.1716
 3570TIP3    H132125   3.541   1.714  15.273 -0.4810  0.4640 -0.1554
 3570TIP3    H232126   3.506   1.567  15.259 -0.9408  0.4434  1.0661
 3571TIP3   OH232127   4.120   1.831   4.360  0.0914 -0.3796 -0.3051
 3571TIP3    H132128   4.112   1.739   4.386 -0.2566 -0.3722 -0.3860
 3571TIP3    H232129   4.115   1.829   4.264  0.0682 -0.2739 -0.3061
 3572TIP3   OH232130   3.377   0.842  15.455 -0.2325  0.2527 -1.0458
 3572TIP3    H132131   3.296   0.793  15.436  0.2354 -1.0594  0.2090
 3572TIP3    H232132   3.378   0.912  15.389 -1.4675 -0.7904 -2.2353
 3573TIP3   OH232133   4.296   5.053   3.849 -0.8056  0.4481 -0.3837
 3573TIP3    H132134   4.295   5.019   3.760  1.6489  1.0360 -0.7138
 3573TIP3    H232135   4.278   5.146   3.840  2.4421  1.1583 -0.7352
 3574TIP3   OH232136   1.536   3.063  14.588  0.1886  0.7209  0.6427
 3574TIP3    H132137   1.627   3.033  14.581 -0.6671 -2.3805  1.1411
 3574TIP3    H232138   1.491   3.020  14.515 -1.3435 -0.0013  1.9609
 3575TIP3   OH232139   6.602   2.495  17.307 -0.0792 -0.0174  0.2348
 3575TIP3    H132140   6.651   2.543  17.374 -0.7007 -0.8783  1.3465
 3575TIP3    H232141   6.670   2.451  17.255  0.4875  1.7902 -0.6465
 3576TIP3   OH232142   3.694   1.679   5.571  0.4731  0.6264  0.1605
 3576TIP3    H132143   3.722   1.598   5.614 -0.9950  0.2488  0.4627
 3576TIP3    H232144   3.695   1.745   5.641 -0.8782  0.2509  0.5672
 3577TIP3   OH232145   5.414   4.129   6.717  0.0447  0.0672 -0.0160
 3577TIP3    H132146   5.335   4.078   6.695 -1.2728  1.5568  1.0190
 3577TIP3    H232147   5.382   4.197   6.776  1.9232  1.4490 -0.5133
 3578TIP3   OH232148   6.373   0.083  13.919  0.3987 -0.4145  0.6977
 3578TIP3    H132149   6.335   0.088  13.832 -1.8201 -2.5218  1.4428
 3578TIP3    H232150   6.329   0.152  13.969  0.6750 -0.1086  0.5271
 3579TIP3   OH232151   3.066   5.302   1.886  0.6084  0.5470  0.4457
 3579TIP3    H132152   3.014   5.254   1.822  0.0381  0.5874  0.8708
 3579TIP3    H232153   3.144   5.248   1.898  0.2784  0.0575  0.4215
 3580TIP3   OH232154   2.299   6.469  16.891  0.2760  0.2776  0.6266
 3580TIP3    H132155   2.370   6.454  16.953  1.1304 -0.3818 -0.4747
 3580TIP3    H232156   2.227   6.504  16.944  1.2657  0.5335  1.8302
 3581TIP3   OH232157   6.446   0.721   3.334 -0.2511  0.4935 -0.4677
 3581TIP3    H132158   6.423   0.720   3.241  0.2512  2.2819 -0.6530
 3581TIP3    H232159   6.386   0.659   3.375 -0.6008 -0.1856 -1.9504
 3582TIP3   OH232160   2.093   0.987   0.252 -0.7420  0.3314  0.5745
 3582TIP3    H132161   2.107   1.018   0.162 -1.5571 -0.6393  0.0933
 3582TIP3    H232162   2.079   1.067   0.302 -1.1517  0.8475 -0.3263
 3583TIP3   OH232163   1.381   5.897  15.645  0.2009 -0.1417  0.0390
 3583TIP3    H132164   1.464   5.918  15.603 -1.4127  2.8338 -2.0907
 3583TIP3    H232165   1.370   5.963  15.713 -0.4635 -0.4142  0.2121
 3584TIP3   OH232166   6.542   6.136   6.584  0.1035  0.1922  0.0326
 3584TIP3    H132167   6.547   6.231   6.571  1.1404  0.1294 -0.1591
 3584TIP3    H232168   6.609   6.101   6.525 -1.8652 -0.8601 -1.7133
 3585TIP3   OH232169   2.057   4.347  14.534 -0.5493  0.0746 -0.2538
 3585TIP3    H132170   2.142   4.354  14.491 -0.4119 -0.8004 -0.1342
 3585TIP3    H232171   2.050   4.256  14.560 -0.6386  0.5842  1.6167
 3586TIP3   OH232172   0.543   6.518  14.982 -0.1250 -0.1133  0.5422
 3586TIP3    H132173   0.567   6.490  15.070  0.9932 -2.0459 -0.3222
 3586TIP3    H232174   0.457   6.479  14.967  1.0190 -2.4608 -0.3063
 3587TIP3   OH232175   2.079   1.047   3.872  0.3850  0.1998  0.2830
 3587TIP3    H132176   1.989   1.018   3.887  0.4869  0.0889  0.6782
 3587TIP3    H232177   2.070   1.122   3.813  0.0586 -0.0324  0.0340
 3588TIP3   OH232178   4.091   4.180   1.352 -0.3874  0.0788 -0.3867
 3588TIP3    H132179   4.088   4.085   1.344 -1.1655 -0.3613  3.2762
 3588TIP3    H232180   4.164   4.197   1.412 -1.6736  1.5556  0.8599
 3589TIP3   OH232181   5.708   4.509   5.123 -0.1226  0.4183  0.1019
 3589TIP3    H132182   5.649   4.472   5.058  1.7348  0.9468 -2.0055
 3589TIP3    H232183   5.669   4.594   5.146 -0.7607  0.2609 -0.3875
 3590TIP3   OH232184   1.420   0.594  13.914 -0.1501  0.2917 -0.0520
 3590TIP3    H132185   1.460   0.610  14.000 -1.5076  0.2031  0.6251
 3590TIP3    H232186   1.326   0.604  13.929 -0.4551 -0.2740 -1.4229
 3591TIP3   OH232187   2.923   3.695  16.437  1.0708  0.1520 -0.1146
 3591TIP3    H132188   2.971   3.634  16.382  1.5563  0.0054  0.4624
 3591TIP3    H232189   2.902   3.645  16.516 -0.3807  0.0943 -0.5112
 3592TIP3   OH232190   0.875   4.436   1.043  0.5861  0.8712  0.7544
 3592TIP3    H132191   0.781   4.441   1.028  0.4212  1.9521  1.9426
 3592TIP3    H232192   0.913   4.489   0.972  0.4296 -0.7251 -0.5640
 3593TIP3   OH232193   2.223   1.483  11.013  0.1986  0.0280 -0.0451
 3593TIP3    H132194   2.300   1.512  11.062  0.5466 -0.5761 -0.2218
 3593TIP3    H232195   2.148   1.507  11.068  0.5600 -0.1449  0.5219
 3594TIP3   OH232196   0.751   2.648   0.916  0.0250  0.2370  0.1590
 3594TIP3    H132197   0.762   2.578   0.980  1.7138  0.3437  0.0140
 3594TIP3    H232198   0.717   2.604   0.838  3.8367 -1.0488 -0.9698
 3595TIP3   OH232199   5.758   1.156   5.766 -0.1954 -0.1134  0.2015
 3595TIP3    H132200   5.718   1.243   5.761 -1.2633 -0.6656 -2.5553
 3595TIP3    H232201   5.713   1.113   5.838 -0.2739  1.2806  1.0253
 3596TIP3   OH232202   3.098   1.672   0.324  0.6461  0.1856  0.2536
 3596TIP3    H132203   3.187   1.636   0.333  1.4206  1.8765 -0.2520
 3596TIP3    H232204   3.101   1.755   0.372 -0.1436  1.1045 -1.2277
 3597TIP3   OH232205   4.865   4.332   5.575 -0.3644  0.5248  0.1196
 3597TIP3    H132206   4.800   4.359   5.510  0.4125 -1.4117 -1.5645
 3597TIP3    H232207   4.824   4.352   5.659 -2.0021  1.8101 -0.9167
 3598TIP3   OH232208   2.263   5.625   1.493  0.8311  0.0004  0.3747
 3598TIP3    H132209   2.213   5.616   1.412  1.8250 -0.9907 -0.1528
 3598TIP3    H232210   2.316   5.704   1.479  2.6728 -1.3730 -0.9287
 3599TIP3   OH232211   0.439   5.144  12.579 -0.6047 -0.0042  0.6152
 3599TIP3    H132212   0.399   5.083  12.642  2.3422 -0.3810  2.2954
 3599TIP3    H232213   0.505   5.092  12.534  0.8938  1.5258  0.9584
 3600TIP3   OH232214   0.012   5.822  16.395  0.0397  0.3071 -0.1165
 3600TIP3    H132215  -0.062   5.831  16.455 -0.2735 -0.5285 -0.3660
 3600TIP3    H232216   0.037   5.912  16.374 -2.2804  0.6662 -1.7195
 3601TIP3   OH232217   6.353   4.299   5.013 -0.0435  0.5528 -0.7072
 3601TIP3    H132218   6.316   4.283   5.100 -0.2026  0.7825 -0.7329
 3601TIP3    H232219   6.283   4.342   4.964 -0.8093 -1.6936 -1.7216
 3602TIP3   OH232220   0.952   2.886   3.572  0.6423  0.2203  0.7288
 3602TIP3    H132221   1.015   2.869   3.502  1.4109  1.5276  1.0713
 3602TIP3    H232222   0.956   2.808   3.628  0.0379 -0.8255 -0.6302
 3603TIP3   OH232223   1.292   4.161  11.847  0.1692 -0.0715 -0.1044
 3603TIP3    H132224   1.234   4.090  11.872  1.3271 -1.1328 -0.3303
 3603TIP3    H232225   1.246   4.241  11.874 -0.8759 -0.9270  0.7124
 3604TIP3   OH232226   3.379   3.556  14.784  0.0204 -0.4436  0.2437
 3604TIP3    H132227   3.289   3.588  14.771  1.1691  2.1244 -2.4757
 3604TIP3    H232228   3.395   3.565  14.877 -2.0589  0.4534  0.5633
 3605TIP3   OH232229   4.045   3.648  16.357 -0.5372 -0.1748 -0.0339
 3605TIP3    H132230   4.080   3.581  16.416 -0.2113 -0.3511 -0.4232
 3605TIP3    H232231   4.004   3.599  16.286 -3.2875 -0.0519  1.2996
 3606TIP3   OH232232   0.147   5.627  15.066 -0.1329  0.1872  0.4935
 3606TIP3    H132233   0.242   5.619  15.059 -0.0785  0.5856  0.7475
 3606TIP3    H232234   0.126   5.584  15.149  0.1279  2.2948  1.7205
 3607TIP3   OH232235   6.452   0.406  12.852 -0.1315  0.0635 -0.2558
 3607TIP3    H132236   6.404   0.478  12.811 -1.0344  0.0667  0.7870
 3607TIP3    H232237   6.386   0.354  12.897  0.8875  0.4846  1.8659
 3608TIP3   OH232238   5.890   6.552  15.685  0.2460  0.0008 -0.0173
 3608TIP3    H132239   5.800   6.584  15.677 -0.5610 -1.9916  0.3971
 3608TIP3    H232240   5.902   6.493  15.611  0.6666 -0.9221  0.7653
 3609TIP3   OH232241   1.211   5.205  14.303 -0.0748  0.5013  0.2262
 3609TIP3    H132242   1.192   5.200  14.209 -1.0691  0.4566  0.4146
 3609TIP3    H232243   1.136   5.253  14.340 -1.1391 -1.8809  1.3869
 3610TIP3   OH232244   5.766   3.231  10.873 -0.0748 -0.5956 -0.2782
 3610TIP3    H132245   5.718   3.311  10.895  1.8776  0.4394  0.4657
 3610TIP3    H232246   5.728   3.202  10.790  0.7585  2.5152 -1.9028
 3611TIP3   OH232247   0.669   5.848   2.786 -0.1489 -0.1034 -0.2045
 3611TIP3    H132248   0.641   5.756   2.794  0.7301 -0.3124  0.5988
 3611TIP3    H232249   0.764   5.844   2.776  0.0074  0.7530  0.7461
 3612TIP3   OH232250   5.979   2.561  11.685 -0.0206 -0.1483  0.5213
 3612TIP3    H132251   6.006   2.470  11.676  0.1579  0.0859 -1.7292
 3612TIP3    H232252   5.886   2.561  11.660  0.2604  0.4373 -0.5666
 3613TIP3   OH232253   6.103   3.913  16.056  0.7429  0.1485  0.0269
 3613TIP3    H132254   6.179   3.855  16.052  0.7212  0.0333  1.0672
 3613TIP3    H232255   6.136   3.994  16.095  0.5260  0.4283 -0.3588
 3614TIP3   OH232256   1.806   5.610  12.278 -0.4142  0.1990 -0.1865
 3614TIP3    H132257   1.821   5.520  12.308 -0.2705 -0.7052 -2.7030
 3614TIP3    H232258   1.819   5.664  12.356  3.7561 -1.5493  0.6044
 3615TIP3   OH232259   4.131   0.214   1.637 -0.1474  0.0501 -0.7953
 3615TIP3    H132260   4.038   0.191   1.631 -0.3568  0.2453  1.1907
 3615TIP3    H232261   4.175   0.148   1.583 -1.3397 -0.7140 -0.8676
 3616TIP3   OH232262   6.611   0.583   0.804 -0.0957 -0.6736 -0.1788
 3616TIP3    H132263   6.610   0.503   0.857  0.5370 -0.0280  0.8070
 3616TIP3    H232264   6.681   0.636   0.840 -0.0484  0.0500 -1.2800
 3617TIP3   OH232265   4.737   4.630   3.638  0.0721  0.2191 -0.2345
 3617TIP3    H132266   4.727   4.595   3.726  1.5394 -0.1069 -0.1622
 3617TIP3    H232267   4.712   4.722   3.646  0.1884  0.1903  0.5262
 3618TIP3   OH232268   4.556   6.392   4.177  0.0937  0.2883  0.2436
 3618TIP3    H132269   4.510   6.468   4.140  2.3646  2.1056  0.9605
 3618TIP3    H232270   4.644   6.398   4.141  0.6725 -1.3185  1.3184
 3619TIP3   OH232271   3.242   1.666   5.518 -0.2114  0.8755 -0.1682
 3619TIP3    H132272   3.311   1.599   5.519 -1.8494 -0.9375 -0.4952
 3619TIP3    H232273   3.277   1.736   5.464  2.2375  1.0609  1.5485
 3620TIP3   OH232274   0.550   2.280   3.633  0.1177  0.3091 -0.1627
 3620TIP3    H132275   0.492   2.249   3.703  0.0334 -0.0313 -0.3827
 3620TIP3    H232276   0.516   2.367   3.611  1.3840  1.3380  1.6467
 3621TIP3   OH232277   5.745   2.039  15.703  0.4752 -0.0545 -0.8411
 3621TIP3    H132278   5.799   1.970  15.743  0.4688  0.1040 -0.5526
 3621TIP3    H232279   5.672   2.049  15.764  0.9559  0.8603 -0.3855
 3622TIP3   OH232280   3.271   0.608  16.084  0.0571  0.0828  0.0302
 3622TIP3    H132281   3.217   0.683  16.061 -0.7085 -0.8123 -1.2427
 3622TIP3    H232282   3.360   0.642  16.089 -0.3634  1.1887  0.0987
 3623TIP3   OH232283   1.051   3.081   5.903  0.2034  0.2142 -0.0292
 3623TIP3    H132284   1.000   3.063   5.983 -1.0267 -1.5843 -1.1430
 3623TIP3    H232285   1.140   3.096   5.934 -0.7189  2.3524  1.9069
 3624TIP3   OH232286   3.553   3.425   5.959 -0.3868  0.1584  0.6086
 3624TIP3    H132287   3.473   3.403   5.911 -0.6307  1.5701  0.3047
 3624TIP3    H232288   3.523   3.451   6.046 -0.1797 -0.0097  0.7326
 3625TIP3   OH232289   5.873   5.599  14.706  0.5489  0.3830 -0.7929
 3625TIP3    H132290   5.815   5.654  14.758  2.6362  2.4934 -0.5205
 3625TIP3    H232291   5.956   5.646  14.704  2.0259 -2.0366 -1.9083
 3626TIP3   OH232292   3.544   5.282   5.532 -0.6021  0.3719  0.4716
 3626TIP3    H132293   3.460   5.319   5.504 -0.0532  0.4739 -1.0998
 3626TIP3    H232294   3.539   5.190   5.506 -0.1313  0.4323  0.1636
 3627TIP3   OH232295   1.980   0.308   2.651 -0.3514  0.1626  0.2841
 3627TIP3    H132296   1.987   0.239   2.717 -0.3186 -1.2256 -1.1095
 3627TIP3    H232297   2.003   0.264   2.568 -0.0500  1.9191 -0.6095
 3628TIP3   OH232298   6.378   6.567  11.326  0.7374 -0.1332  0.0777
 3628TIP3    H132299   6.338   6.558  11.240 -0.8831 -1.8201  0.9387
 3628TIP3    H232300   6.376   6.662  11.343 -3.7378 -0.0451  0.3063
 3629TIP3   OH232301   3.010   5.340  13.295 -0.1697 -0.1849 -0.0946
 3629TIP3    H132302   2.974   5.346  13.206  1.2203 -0.5607 -0.7238
 3629TIP3    H232303   3.082   5.276  13.287  0.4889  0.3638  1.1238
 3630TIP3   OH232304   6.615   2.841   2.637 -0.1482 -0.2915 -0.1547
 3630TIP3    H132305   6.568   2.759   2.622 -0.9431  0.2156 -0.4902
 3630TIP3    H232306   6.548   2.902   2.669  0.9342 -0.5301  2.8920
 3631TIP3   OH232307   6.064   4.255  15.141 -0.2536 -0.5295 -0.1919
 3631TIP3    H132308   6.063   4.179  15.083  0.4968 -0.0495 -0.8616
 3631TIP3    H232309   6.146   4.300  15.120 -1.7478  1.8197 -1.6253
 3632TIP3   OH232310   1.010   1.274  16.983  0.5115  0.0312  0.6046
 3632TIP3    H132311   1.084   1.280  16.922  0.9891  1.3337  1.2680
 3632TIP3    H232312   0.934   1.303  16.933  0.7490  0.2906  0.3950
 3633TIP3   OH232313   2.450   1.228  11.472  0.3396 -0.4776  0.5349
 3633TIP3    H132314   2.532   1.186  11.499  0.0150 -1.9926 -0.6819
 3633TIP3    H232315   2.475   1.319  11.453  1.1091 -0.0982  3.0724
 3634TIP3   OH232316   3.225   3.407   5.536 -0.1723 -0.4241  0.0879
 3634TIP3    H132317   3.277   3.445   5.607  0.2446 -2.8021  1.1464
 3634TIP3    H232318   3.245   3.461   5.460  2.2824 -0.0244  0.9313
 3635TIP3   OH232319   5.067   1.567  16.551  0.7276 -0.6226  0.4922
 3635TIP3    H132320   5.037   1.483  16.516  1.1721 -1.2635  1.5882
 3635TIP3    H232321   5.101   1.545  16.638  1.9496  0.4969  0.3257
 3636TIP3   OH232322   2.337   4.914  14.083 -0.3478  0.5678 -0.6015
 3636TIP3    H132323   2.337   4.819  14.083 -1.2757  0.5378 -2.0571
 3636TIP3    H232324   2.307   4.939  13.996 -2.1701  2.1754  0.3966
 3637TIP3   OH232325   5.898   3.696  16.016  0.3412 -0.1282 -0.1485
 3637TIP3    H132326   5.956   3.758  15.972 -0.3069  0.6657  0.0957
 3637TIP3    H232327   5.957   3.635  16.061  0.9870  0.9892  0.5547
 3638TIP3   OH232328   4.320   6.608   2.752  0.3967 -0.0294 -0.3272
 3638TIP3    H132329   4.242   6.640   2.705  2.0834  1.3283 -2.4008
 3638TIP3    H232330   4.355   6.539   2.696  0.0903 -1.4834  1.1911
 3639TIP3   OH232331   4.629   2.403  11.839 -0.8248  0.8237 -0.4873
 3639TIP3    H132332   4.561   2.471  11.840 -2.8921 -1.0517 -2.0264
 3639TIP3    H232333   4.616   2.354  11.920 -0.1936  1.4502  0.0017
 3640TIP3   OH232334   0.137   6.460  16.564 -0.1451  0.0051 -0.1853
 3640TIP3    H132335   0.054   6.438  16.520 -0.3028 -0.9640  0.5717
 3640TIP3    H232336   0.123   6.549  16.597 -1.0422 -0.2972  0.2788
 3641TIP3   OH232337   4.693   1.210   1.983  0.2237 -0.0312  0.0452
 3641TIP3    H132338   4.707   1.301   1.955 -0.0053  0.1760  0.5915
 3641TIP3    H232339   4.671   1.217   2.076  0.1242 -0.6431  0.0690
 3642TIP3   OH232340   2.280   2.441  16.012  0.2794 -0.3976  0.3081
 3642TIP3    H132341   2.336   2.383  15.961 -0.7504  0.2704 -1.6597
 3642TIP3    H232342   2.243   2.502  15.949 -2.3749 -0.5591  1.5385
 3643TIP3   OH232343   1.367   5.501  14.460  0.0828 -0.3903 -0.4547
 3643TIP3    H132344   1.419   5.437  14.412  0.0932 -0.6899 -0.0529
 3643TIP3    H232345   1.377   5.582  14.411  2.9052  0.1828  0.8899
 3644TIP3   OH232346   3.445   4.826  13.202 -0.2430  0.0781 -0.6433
 3644TIP3    H132347   3.398   4.846  13.121 -0.7159  3.1973  0.2747
 3644TIP3    H232348   3.392   4.866  13.271  0.8895 -1.2427  1.0664
 3645TIP3   OH232349   6.468   6.396  11.735 -0.0914 -0.3161 -0.2698
 3645TIP3    H132350   6.392   6.339  11.721  1.0133 -2.2336  1.1241
 3645TIP3    H232351   6.466   6.416  11.828  0.6835  0.2635 -0.3734
 3646TIP3   OH232352   0.101   3.482   4.818 -0.1622 -0.5317  0.2157
 3646TIP3    H132353   0.043   3.533   4.762 -1.1450 -0.9853  0.7942
 3646TIP3    H232354   0.095   3.524   4.904  2.6211  1.2122 -0.2949
 3647TIP3   OH232355   6.348   1.139   0.747 -0.8033  0.0928  0.2662
 3647TIP3    H132356   6.267   1.180   0.717 -0.4344  2.1947  1.9502
 3647TIP3    H232357   6.350   1.055   0.701 -3.9320 -0.0532  0.1683
 3648TIP3   OH232358   6.599   0.028  11.193  0.6899  0.0596  0.3850
 3648TIP3    H132359   6.532   0.028  11.261 -0.7330  0.7352 -0.9622
 3648TIP3    H232360   6.563   0.083  11.124  1.2951 -1.9701 -1.6773
 3649TIP3   OH232361   2.135   4.552  15.095  0.4720 -0.1143 -0.4765
 3649TIP3    H132362   2.213   4.498  15.083  1.9965  1.9557 -0.4335
 3649TIP3    H232363   2.132   4.608  15.018  0.5035  1.5335  0.6645
 3650TIP3   OH232364   2.255   3.769   1.037  0.0327 -0.6061  0.3128
 3650TIP3    H132365   2.174   3.720   1.021 -0.2008 -0.1930  0.1988
 3650TIP3    H232366   2.241   3.811   1.122 -0.1617  0.0199 -0.0181
 3651TIP3   OH232367   0.503   4.555  12.986  0.0341 -0.4853  0.0959
 3651TIP3    H132368   0.510   4.479  12.928 -1.3885 -0.0057 -0.7432
 3651TIP3    H232369   0.557   4.622  12.945 -1.6141  0.1214 -1.1797
 3652TIP3   OH232370   4.442   0.654   0.745 -0.0526 -0.4723  0.0768
 3652TIP3    H132371   4.528   0.669   0.706 -0.3106  0.7589 -0.0650
 3652TIP3    H232372   4.388   0.621   0.673  0.5499 -2.2926  0.4105
 3653TIP3   OH232373   5.629   1.433   2.395 -0.3501  0.5151  0.2850
 3653TIP3    H132374   5.678   1.515   2.400  0.2353  0.1053  1.8203
 3653TIP3    H232375   5.630   1.400   2.484 -3.2623  0.3831  0.3495
 3654TIP3   OH232376   0.510   1.467  15.074  0.2005  0.3321  0.4389
 3654TIP3    H132377   0.557   1.427  15.001 -2.8167 -0.2135 -1.3843
 3654TIP3    H232378   0.461   1.539  15.034 -1.4277  0.1087  1.9206
 3655TIP3   OH232379   4.898   2.009  11.031 -0.3679 -0.5360 -0.0540
 3655TIP3    H132380   4.937   2.076  11.088 -0.2170 -1.5765  1.1308
 3655TIP3    H232381   4.925   2.033  10.943  3.8869 -1.6645  0.6989
 3656TIP3   OH232382   2.043   0.033   3.459 -0.8977 -0.5891 -0.0683
 3656TIP3    H132383   2.002  -0.050   3.437 -2.5045  0.3544 -0.8148
 3656TIP3    H232384   1.970   0.093   3.475  0.1580  1.0444 -1.0161
 3657TIP3   OH232385   5.713   2.146   4.511  0.1214  0.2002  0.6967
 3657TIP3    H132386   5.786   2.086   4.502 -0.1985 -0.2981  1.2980
 3657TIP3    H232387   5.690   2.141   4.604 -1.3682 -0.5016  0.3249
 3658TIP3   OH232388   0.759   4.746   6.360  0.1995 -0.1092  0.5777
 3658TIP3    H132389   0.664   4.749   6.356  0.2267 -0.5941 -1.0574
 3658TIP3    H232390   0.784   4.829   6.400 -0.8950  0.1564  0.7392
 3659TIP3   OH232391   4.268   4.156   2.787  0.4638 -0.1221  0.7159
 3659TIP3    H132392   4.340   4.104   2.752  0.1123 -1.8697  2.3741
 3659TIP3    H232393   4.228   4.197   2.710  1.7872 -0.9869 -0.4861
 3660TIP3   OH232394   4.394   2.216   0.109 -0.0930 -0.1530 -0.1047
 3660TIP3    H132395   4.299   2.222   0.096 -0.4655 -2.2725  1.1099
 3660TIP3    H232396   4.417   2.129   0.079  1.8494  0.9585 -2.0654
 3661TIP3   OH232397   1.152   3.906   3.897  0.3621 -0.5135  0.0629
 3661TIP3    H132398   1.130   3.854   3.820  2.5409 -0.9965 -0.2967
 3661TIP3    H232399   1.101   3.866   3.968  0.0511 -1.5155 -0.6925
 3662TIP3   OH232400   4.409   5.254   4.492 -0.5898  0.1383  0.0930
 3662TIP3    H132401   4.398   5.345   4.518  1.4380  0.0539  1.5241
 3662TIP3    H232402   4.390   5.204   4.571  1.6892 -0.4160  0.3484
 3663TIP3   OH232403   6.413   0.023  11.946 -0.0986 -0.2114  0.5550
 3663TIP3    H132404   6.399  -0.015  11.859 -3.1744 -0.6419  1.1307
 3663TIP3    H232405   6.413   0.118  11.931  1.3304 -0.2824 -0.0949
 3664TIP3   OH232406   2.106   4.648   3.734 -0.4044  0.5837 -0.0869
 3664TIP3    H132407   2.143   4.633   3.821  1.4059 -2.3658 -1.1792
 3664TIP3    H232408   2.123   4.740   3.715  1.1061  0.7624  1.8481
 3665TIP3   OH232409   4.580   5.905  12.065 -0.1997 -0.7662  0.1776
 3665TIP3    H132410   4.602   5.872  12.153 -1.5198 -1.2093  0.3697
 3665TIP3    H232411   4.500   5.858  12.042 -0.2749 -0.1039 -0.9603
 3666TIP3   OH232412   3.733   2.198  14.450 -0.4051 -0.8312  0.1296
 3666TIP3    H132413   3.778   2.261  14.507 -1.6961 -0.5699  0.8878
 3666TIP3    H232414   3.801   2.170  14.387  0.0407  1.8383 -0.6974
 3667TIP3   OH232415   1.883   1.862  13.957  0.0729 -0.2154  0.5836
 3667TIP3    H132416   1.842   1.836  14.040 -0.6884 -0.1873  0.2290
 3667TIP3    H232417   1.906   1.780  13.915 -1.1489 -0.3032  0.0448
 3668TIP3   OH232418   3.849   1.361  12.952  0.1502 -0.1086 -0.2255
 3668TIP3    H132419   3.923   1.418  12.969 -0.5222  1.3453 -1.8642
 3668TIP3    H232420   3.836   1.365  12.858 -0.6918 -2.0616 -0.2577
 3669TIP3   OH232421   5.082   6.760   1.744  0.4584 -0.1011  0.0314
 3669TIP3    H132422   5.082   6.693   1.812 -0.8571  0.0450  0.1932
 3669TIP3    H232423   5.068   6.842   1.790 -0.8872 -0.0480 -0.4284
 3670TIP3   OH232424   5.364   3.169   0.059 -0.1998 -0.1250 -0.5968
 3670TIP3    H132425   5.435   3.224   0.025  0.6575 -1.4147 -0.9796
 3670TIP3    H232426   5.369   3.089   0.008 -2.2743 -0.0823 -0.9648
 3671TIP3   OH232427   5.837   3.619   5.741  0.2453  0.0608 -0.4039
 3671TIP3    H132428   5.861   3.679   5.811  0.5546  0.7482 -1.0805
 3671TIP3    H232429   5.856   3.532   5.776  1.9630  0.4763 -0.2277
 3672TIP3   OH232430   6.284   2.412   0.326  0.8789 -0.0909 -0.0361
 3672TIP3    H132431   6.366   2.389   0.283  0.5617 -1.2597 -0.0395
 3672TIP3    H232432   6.239   2.329   0.338  0.2921  0.3834  1.1961
 3673TIP3   OH232433   2.878   2.248  14.678 -0.4576  0.0562  0.1696
 3673TIP3    H132434   2.966   2.213  14.689 -0.2017 -0.3791 -2.6697
 3673TIP3    H232435   2.821   2.174  14.701  0.0204 -0.9242 -1.6433
 3674TIP3   OH232436   1.612   2.011   2.906  0.0864  0.3865  0.3702
 3674TIP3    H132437   1.557   1.933   2.911 -1.0111  1.1438  0.5371
 3674TIP3    H232438   1.622   2.028   2.812  1.1068 -0.4699  0.3104
 3675TIP3   OH232439   2.632   1.997  14.350 -0.1999  0.5968 -0.3042
 3675TIP3    H132440   2.604   1.910  14.375 -0.5858  0.4444 -1.2159
 3675TIP3    H232441   2.728   1.995  14.358 -0.3613  1.1876  3.0164
 3676TIP3   OH232442   4.974   0.007   5.472  0.1884  0.3656 -0.1243
 3676TIP3    H132443   5.005  -0.064   5.417 -2.5866 -0.3366 -0.9422
 3676TIP3    H232444   4.943  -0.035   5.552 -0.1241  0.8244  0.0035
 3677TIP3   OH232445   6.153   2.039   2.185 -0.1730  0.0013 -0.4711
 3677TIP3    H132446   6.089   2.048   2.255 -0.7887  0.3832 -1.0718
 3677TIP3    H232447   6.238   2.035   2.230 -0.5739  0.0626  0.2969
 3678TIP3   OH232448   0.995   4.682   4.448 -0.4032 -0.5225  0.0175
 3678TIP3    H132449   0.965   4.598   4.415  1.0372 -1.0341 -0.0744
 3678TIP3    H232450   0.916   4.736   4.454 -0.9779 -0.9809 -2.5027
 3679TIP3   OH232451   0.113   1.655   5.109  0.3513  0.1199 -0.0586
 3679TIP3    H132452   0.102   1.566   5.143  0.1110 -0.3392 -1.2750
 3679TIP3    H232453   0.183   1.646   5.043  0.4812  0.8808 -0.0290
 3680TIP3   OH232454   0.251   4.049   6.491  0.4690 -0.4761  0.2365
 3680TIP3    H132455   0.189   4.119   6.471  0.8457 -0.4084 -0.7804
 3680TIP3    H232456   0.201   3.968   6.477  0.6961 -0.4281 -0.9690
 3681TIP3   OH232457   5.727   6.696   4.966  0.3980  0.5185 -0.3455
 3681TIP3    H132458   5.727   6.632   5.037 -1.3952 -0.1879 -0.9341
 3681TIP3    H232459   5.819   6.719   4.955  0.8902 -0.6340  1.0590
 3682TIP3   OH232460   5.408   5.839   2.838  0.1524  0.3145  0.6434
 3682TIP3    H132461   5.473   5.883   2.783  0.1117 -2.2567 -1.7114
 3682TIP3    H232462   5.334   5.823   2.778 -0.6747 -1.0159  1.9651
 3683TIP3   OH232463   1.588   1.942  11.315 -0.3811  0.1775 -0.4304
 3683TIP3    H132464   1.646   1.867  11.305 -1.5651 -0.9017  0.5468
 3683TIP3    H232465   1.500   1.907  11.303 -1.0333  1.1793  1.0174
 3684TIP3   OH232466   4.307   3.028   2.820  0.1611 -0.0710 -0.1145
 3684TIP3    H132467   4.397   3.020   2.851  0.3651 -1.1646 -0.9341
 3684TIP3    H232468   4.313   3.015   2.726 -0.9099 -0.6501 -0.1182
 3685TIP3   OH232469   3.096   0.937  12.416 -0.0151 -0.0867  0.1317
 3685TIP3    H132470   3.161   0.959  12.349 -0.0499  0.5254  0.2920
 3685TIP3    H232471   3.066   1.022  12.449 -0.4255 -0.3757  0.5120
 3686TIP3   OH232472   4.680   6.065  13.913  0.1992  0.4288  0.1326
 3686TIP3    H132473   4.624   6.143  13.914  0.9729  1.0219 -1.1435
 3686TIP3    H232474   4.703   6.053  13.821 -3.3106 -3.8346 -0.5431
 3687TIP3   OH232475   4.853   4.516   0.887 -0.0092 -0.1245  0.4329
 3687TIP3    H132476   4.798   4.525   0.809  0.0486  0.9751  0.5023
 3687TIP3    H232477   4.859   4.422   0.901  0.7833 -0.4148 -1.4812
 3688TIP3   OH232478   1.064   6.455  14.553  0.3260 -0.2220 -0.0382
 3688TIP3    H132479   1.141   6.423  14.505 -0.5823 -2.0498 -0.3798
 3688TIP3    H232480   1.003   6.482  14.485 -0.0836 -0.6696  0.1403
 3689TIP3   OH232481   3.519   0.525   5.654  0.1294  0.2926 -0.0084
 3689TIP3    H132482   3.569   0.595   5.697  0.3539  0.2774 -0.2391
 3689TIP3    H232483   3.585   0.461   5.627 -0.0177  0.2517 -0.2806
 3690TIP3   OH232484   6.486   3.499  12.873  0.0308  0.6445 -0.2285
 3690TIP3    H132485   6.451   3.587  12.880 -0.1947  0.6873 -1.5515
 3690TIP3    H232486   6.476   3.476  12.780  0.5494 -0.5737 -0.0139
 3691TIP3   OH232487   1.531   4.031   5.743 -0.0189  0.2304  0.4189
 3691TIP3    H132488   1.580   4.113   5.738 -1.0511  0.7919 -1.2124
 3691TIP3    H232489   1.579   3.970   5.686  0.0766  0.0528  0.6847
 3692TIP3   OH232490   3.186   4.030  15.039  0.7938 -0.3701 -0.1702
 3692TIP3    H132491   3.186   4.124  15.057 -0.3475 -0.6760  1.6198
 3692TIP3    H232492   3.138   4.022  14.956  1.7158  0.6790 -0.8300
 3693TIP3   OH232493   1.655   3.688  17.108 -0.0979 -0.4607 -0.1654
 3693TIP3    H132494   1.582   3.642  17.150 -0.6182 -0.2283 -0.7945
 3693TIP3    H232495   1.616   3.769  17.076  0.7385  0.2628  0.6247
 3694TIP3   OH232496   4.189   4.496  16.575  0.1346 -0.7181 -0.2719
 3694TIP3    H132497   4.109   4.445  16.566 -0.1409 -0.0877 -1.5748
 3694TIP3    H232498   4.224   4.470  16.660 -3.1206  1.3510  1.9419
 3695TIP3   OH232499   2.595   2.392  14.437  0.7284 -0.3335  0.3867
 3695TIP3    H132500   2.561   2.387  14.348  0.6477 -0.5235  0.4282
 3695TIP3    H232501   2.545   2.463  14.478  0.7909 -0.2221  0.2715
 3696TIP3   OH232502   2.723   3.908   0.754 -0.3092  0.6264 -0.1318
 3696TIP3    H132503   2.766   3.971   0.811 -0.7559  2.1871 -1.4397
 3696TIP3    H232504   2.792   3.875   0.697  0.3105 -1.5612  1.7372
 3697TIP3   OH232505   4.151   1.196   0.017 -0.1477  0.4202  0.0606
 3697TIP3    H132506   4.208   1.244  -0.043  0.2113 -0.7630 -0.5837
 3697TIP3    H232507   4.181   1.221   0.104  1.0374  0.2090 -0.2692
 3698TIP3   OH232508   0.503   3.477  15.045  0.3606 -0.5334  0.1968
 3698TIP3    H132509   0.579   3.498  15.100  0.2730  0.7710 -0.1495
 3698TIP3    H232510   0.428   3.497  15.101  0.2543 -1.7504  0.5116
 3699TIP3   OH232511   2.535   0.820   6.280 -0.1243 -0.1268  0.5605
 3699TIP3    H132512   2.556   0.829   6.373  1.2320 -1.1267  0.3730
 3699TIP3    H232513   2.615   0.787   6.240 -0.2407  1.5446 -1.2105
 3700TIP3   OH232514   2.790   5.428  17.029  0.0915 -0.3298  0.0415
 3700TIP3    H132515   2.712   5.390  16.989  0.8495  0.0669 -1.9580
 3700TIP3    H232516   2.796   5.386  17.115 -1.7862 -1.0474 -0.1285
 3701TIP3   OH232517   5.130   2.633   6.550  0.1962 -0.2419  0.8437
 3701TIP3    H132518   5.059   2.668   6.496 -0.7789 -0.4898  1.9151
 3701TIP3    H232519   5.210   2.655   6.502 -0.5345  1.0476  0.1609
 3702TIP3   OH232520   3.380   0.607  13.671 -0.2269 -0.3193  0.0353
 3702TIP3    H132521   3.472   0.602  13.645 -0.1457 -0.5215  0.3576
 3702TIP3    H232522   3.342   0.670  13.610 -0.1140 -1.0082 -0.7804
 3703TIP3   OH232523   5.384   6.236   1.761 -0.7903  0.4447 -0.6404
 3703TIP3    H132524   5.438   6.157   1.767  0.0007  0.8639 -1.7717
 3703TIP3    H232525   5.315   6.224   1.826 -2.6918 -2.6716 -2.9746
 3704TIP3   OH232526   1.368   5.898  12.895  0.1742  0.5475  0.1326
 3704TIP3    H132527   1.378   5.861  12.982 -1.6910  1.0438  0.6039
 3704TIP3    H232528   1.353   5.823  12.838 -0.2228  0.3214  0.5254
 3705TIP3   OH232529   4.913   3.597   4.296  0.3690 -0.2734 -0.1023
 3705TIP3    H132530   4.910   3.534   4.368  0.6484 -2.3352 -1.8069
 3705TIP3    H232531   4.828   3.641   4.299 -0.5921 -2.0525  0.0451
 3706TIP3   OH232532   0.292   3.341   2.423 -0.3420  0.6327  0.0589
 3706TIP3    H132533   0.343   3.407   2.377  3.2606 -0.7470  1.7053
 3706TIP3    H232534   0.260   3.283   2.354  0.6738  1.3544 -1.0537
 3707TIP3   OH232535   6.566   2.077  12.945  0.3727 -0.5193 -0.0464
 3707TIP3    H132536   6.567   2.044  12.855 -1.3016 -0.0695 -0.2548
 3707TIP3    H232537   6.483   2.125  12.953  1.2142  0.8192  1.2541
 3708TIP3   OH232538   3.116   4.802   3.265  0.1073  0.0148 -0.3923
 3708TIP3    H132539   3.111   4.872   3.330  1.3917 -0.1780 -0.0534
 3708TIP3    H232540   3.059   4.830   3.194 -0.8185  0.5277  0.5431
 3709TIP3   OH232541   4.105   5.590   2.637  0.6055 -0.1751  0.8467
 3709TIP3    H132542   4.086   5.682   2.620  3.0107  0.1790 -0.2875
 3709TIP3    H232543   4.046   5.566   2.709 -1.0752  1.8122  0.2268
 3710TIP3   OH232544   4.441   4.348   4.959  0.5234  0.1221  0.3221
 3710TIP3    H132545   4.509   4.400   5.000  0.9594  0.7398 -1.1191
 3710TIP3    H232546   4.443   4.374   4.867 -0.9163 -0.6578  0.0404
 3711TIP3   OH232547   0.120   5.518  16.965  0.5510 -0.7594  0.3744
 3711TIP3    H132548   0.113   5.565  16.882  0.7790 -1.3191  0.0290
 3711TIP3    H232549   0.036   5.473  16.975  0.1455  0.1076  0.9500
 3712TIP3   OH232550   6.415   0.459  16.628 -0.4232  0.9945  0.1502
 3712TIP3    H132551   6.351   0.435  16.694  0.8248  1.0600  1.4469
 3712TIP3    H232552   6.458   0.377  16.604  1.6541  1.3764  2.2238
 3713TIP3   OH232553   0.977   4.190   3.330 -0.2645 -0.0936  0.2444
 3713TIP3    H132554   0.888   4.212   3.303  0.0285 -0.0350 -0.7408
 3713TIP3    H232555   0.985   4.096   3.312  0.1763  0.0953 -0.6472
 3714TIP3   OH232556   5.017   6.133  12.249  0.0168 -0.2654 -0.5228
 3714TIP3    H132557   5.054   6.065  12.193  0.3287  1.0585 -1.9961
 3714TIP3    H232558   4.923   6.115  12.250 -0.2189  0.4589 -2.7049
 3715TIP3   OH232559   5.981   4.093   1.194  0.3007  0.1178 -0.5662
 3715TIP3    H132560   5.909   4.052   1.147  0.0878 -0.0877 -0.0709
 3715TIP3    H232561   5.972   4.187   1.176 -2.4519  0.6392  2.5154
 3716TIP3   OH232562   2.526   3.947  17.305  0.1807  0.5048 -0.3846
 3716TIP3    H132563   2.611   3.931  17.347  0.1616 -0.9017 -0.8226
 3716TIP3    H232564   2.469   3.879  17.340 -1.1724  2.2246  0.9079
 3717TIP3   OH232565   6.222   0.112  12.327  0.1256  0.2735  0.2585
 3717TIP3    H132566   6.191   0.024  12.303  1.9540  0.1325 -1.9437
 3717TIP3    H232567   6.303   0.096  12.376  0.8468  0.6880 -0.7550
 3718TIP3   OH232568   0.568   2.281  16.724 -0.5382 -0.1052  0.4064
 3718TIP3    H132569   0.542   2.259  16.813 -1.4707  1.5666  0.5927
 3718TIP3    H232570   0.631   2.352  16.734 -0.3827 -0.1411 -0.2513
 3719TIP3   OH232571   5.144   4.436  16.432  0.3033  0.7697 -0.3732
 3719TIP3    H132572   5.187   4.485  16.503 -1.3092  1.1884  0.3755
 3719TIP3    H232573   5.151   4.344  16.458  0.1160  0.8909  0.1192
 3720TIP3   OH232574   4.134   3.973   0.510 -0.2784 -0.0190 -0.1203
 3720TIP3    H132575   4.229   3.976   0.499 -0.4571  0.1564 -1.8995
 3720TIP3    H232576   4.121   3.938   0.598  1.4283 -0.6368 -0.0816
 3721TIP3   OH232577   3.374   2.778  16.496 -0.4253  0.0962 -0.3407
 3721TIP3    H132578   3.297   2.826  16.526 -0.7510 -0.4385 -0.3005
 3721TIP3    H232579   3.420   2.754  16.577 -0.9568 -0.7791 -0.2860
 3722TIP3   OH232580   0.592   5.435  14.075 -0.2399  0.0719  0.3499
 3722TIP3    H132581   0.576   5.344  14.100  2.9722 -0.5593  0.5680
 3722TIP3    H232582   0.616   5.431  13.982  0.9911  0.4789  0.6234
 3723TIP3   OH232583   1.482   5.846  13.657 -0.1687  0.2238  0.4524
 3723TIP3    H132584   1.527   5.803  13.585  1.7138  1.2378  0.9613
 3723TIP3    H232585   1.403   5.884  13.617  0.2501 -0.2070 -0.8148
 3724TIP3   OH232586   0.766   0.043   5.684  0.3262 -0.3261 -0.5992
 3724TIP3    H132587   0.823  -0.012   5.630  1.0642  0.1754 -0.3522
 3724TIP3    H232588   0.801   0.034   5.773 -0.6140 -0.8102 -0.2655
 3725TIP3   OH232589   1.891   0.130  11.136 -0.5977 -0.4958  0.0774
 3725TIP3    H132590   1.825   0.112  11.069 -2.0763 -0.4571  1.4653
 3725TIP3    H232591   1.902   0.046  11.181 -0.9904 -0.0719  0.9684
 3726TIP3   OH232592   0.422   6.201   3.944  0.8266 -0.1043  0.1171
 3726TIP3    H132593   0.406   6.145   4.020  0.3197 -2.7324 -1.7858
 3726TIP3    H232594   0.516   6.220   3.948  1.0505 -1.2445  0.7456
 3727TIP3   OH232595   3.398   2.589   5.973  0.2823 -0.6950 -0.3159
 3727TIP3    H132596   3.448   2.604   6.054 -0.2335 -0.5262 -0.0259
 3727TIP3    H232597   3.455   2.534   5.920  1.8007  1.3540 -0.9571
 3728TIP3   OH232598   1.345   0.415  11.413 -0.5315 -1.0469  0.3899
 3728TIP3    H132599   1.349   0.479  11.484 -0.3781 -1.4804  0.7839
 3728TIP3    H232600   1.354   0.466  11.333 -0.6385 -0.5567  0.6872
 3729TIP3   OH232601   0.460   6.113   2.862  0.2482  0.1052  0.9910
 3729TIP3    H132602   0.541   6.065   2.852  0.8889  1.0990  1.2522
 3729TIP3    H232603   0.396   6.048   2.890  0.8232 -0.7802  0.2717
 3730TIP3   OH232604   4.144   2.504  15.121 -0.0681  0.1491 -0.1992
 3730TIP3    H132605   4.122   2.534  15.209  0.5735 -2.3747  0.9249
 3730TIP3    H232606   4.061   2.503  15.074 -1.0097 -1.3252  1.3726
 3731TIP3   OH232607   3.102   6.059  12.558 -0.1123  0.2135 -0.0219
 3731TIP3    H132608   3.116   6.118  12.631  2.5440  0.2779 -0.5005
 3731TIP3    H232609   3.128   5.973  12.592  2.0441  0.3862 -1.0570
 3732TIP3   OH232610   1.175   6.161  15.416 -0.5231 -0.7294 -0.1326
 3732TIP3    H132611   1.257   6.110  15.412 -0.4185 -0.5975  0.2969
 3732TIP3    H232612   1.117   6.117  15.354 -1.2097 -2.7589  1.8572
 3733TIP3   OH232613   6.759   0.133  15.255 -0.3602  0.4591 -0.0858
 3733TIP3    H132614   6.719   0.072  15.193 -0.4995 -1.0164  1.3793
 3733TIP3    H232615   6.686   0.161  15.311 -0.0009  0.6464  0.2950
 3734TIP3   OH232616   0.352   0.844  14.800 -0.4340  0.7059 -0.3063
 3734TIP3    H132617   0.362   0.754  14.831 -0.0221  0.8593  0.0104
 3734TIP3    H232618   0.257   0.855  14.789 -0.4764  0.1718 -0.5435
 3735TIP3   OH232619   1.867   1.920   4.991 -0.5835  0.5331  0.3977
 3735TIP3    H132620   1.903   2.006   5.014  1.7179 -0.1601 -0.2749
 3735TIP3    H232621   1.927   1.886   4.925 -1.9725 -1.2129 -0.0539
 3736TIP3   OH232622   5.582   0.709  17.251  0.0850  0.1376  0.2677
 3736TIP3    H132623   5.487   0.700  17.262  0.0601  1.3069  1.2412
 3736TIP3    H232624   5.596   0.700  17.157 -0.9601 -0.2514  0.1324
 3737TIP3   OH232625   1.437   2.416  11.403  0.2932 -0.3498  0.1702
 3737TIP3    H132626   1.409   2.350  11.339  0.7108  1.2361 -1.7324
 3737TIP3    H232627   1.410   2.380  11.488  0.7019 -3.0519 -0.7590
 3738TIP3   OH232628   2.355   4.323   4.695  0.8728 -0.3544 -0.0062
 3738TIP3    H132629   2.364   4.242   4.744  0.2831  0.4908  1.5859
 3738TIP3    H232630   2.262   4.328   4.674  0.5634  0.7016  1.4372
 3739TIP3   OH232631   2.635   6.416   4.636 -0.2367  0.8060  0.2527
 3739TIP3    H132632   2.627   6.343   4.697 -1.7053  2.4265  2.1625
 3739TIP3    H232633   2.707   6.391   4.578  0.6441 -1.2648  2.0655
 3740TIP3   OH232634   1.717   1.389  12.571 -0.1386 -0.0525 -0.3040
 3740TIP3    H132635   1.796   1.435  12.544 -1.1458  0.8297 -1.9081
 3740TIP3    H232636   1.703   1.416  12.662  1.0558  0.2688 -0.2060
 3741TIP3   OH232637   0.095   2.537   6.109  0.2769  0.4504  0.1609
 3741TIP3    H132638   0.161   2.547   6.040  0.6038  0.1890  0.4305
 3741TIP3    H232639   0.011   2.554   6.065  0.4155 -0.4145 -0.4703
 3742TIP3   OH232640   2.734   1.741  15.468  0.5041 -0.6037  0.5598
 3742TIP3    H132641   2.824   1.753  15.497  0.8338  0.1314 -0.6870
 3742TIP3    H232642   2.689   1.704  15.544  1.5555  0.2337  1.6284
 3743TIP3   OH232643   0.932   0.079  12.044 -0.7685 -0.1002  0.7523
 3743TIP3    H132644   0.860   0.109  12.100 -0.2137  1.4686  0.6699
 3743TIP3    H232645   0.888   0.028  11.975 -2.0223  2.0961 -0.1770
 3744TIP3   OH232646   5.177   3.610  17.106  0.6500 -0.3112  0.3405
 3744TIP3    H132647   5.094   3.654  17.088  0.6340  0.3014  1.7181
 3744TIP3    H232648   5.162   3.565  17.190  0.8228 -2.5933 -0.7865
 3745TIP3   OH232649   5.895   2.615   4.422  0.3994 -0.0168 -0.1688
 3745TIP3    H132650   5.965   2.676   4.444  0.6162  0.0919 -1.1074
 3745TIP3    H232651   5.823   2.639   4.481  1.2215 -0.3036  0.9916
 3746TIP3   OH232652   6.069   5.526   5.133  0.5390  0.3339 -0.0815
 3746TIP3    H132653   6.125   5.447   5.133  1.0664  0.6391 -2.0823
 3746TIP3    H232654   6.130   5.598   5.147  0.3861  0.5396 -0.4674
 3747TIP3   OH232655   0.914   0.970  13.500 -0.2456  0.3877  0.3032
 3747TIP3    H132656   0.847   1.020  13.546 -0.2950 -0.3487  1.0638
 3747TIP3    H232657   0.869   0.935  13.423 -0.1758  1.5933 -0.3036
 3748TIP3   OH232658   3.841   3.454  12.198 -0.1419 -0.7238  0.0216
 3748TIP3    H132659   3.933   3.466  12.174  0.1014  0.0676  1.2422
 3748TIP3    H232660   3.836   3.363  12.227  0.2117 -0.8278 -0.2304
 3749TIP3   OH232661   3.238   4.902  11.794 -0.5604  0.0661 -0.4620
 3749TIP3    H132662   3.295   4.884  11.719  0.7333 -2.0592  0.9399
 3749TIP3    H232663   3.294   4.888  11.871 -0.7364  5.5054  1.0959
 3750TIP3   OH232664   4.649   2.894   0.242 -0.1322  0.2209 -0.2578
 3750TIP3    H132665   4.657   2.973   0.295 -1.4015  0.3839 -0.2774
 3750TIP3    H232666   4.640   2.823   0.306 -3.3300  0.5814 -0.1138
 3751TIP3   OH232667   5.062   5.526  16.773  0.0801 -0.1535 -0.2487
 3751TIP3    H132668   5.095   5.529  16.683  0.3069 -0.4579 -0.1728
 3751TIP3    H232669   4.976   5.485  16.765 -0.4077  0.8662 -0.4781
 3752TIP3   OH232670   5.005   5.771  14.792 -0.0069 -0.5472 -0.4464
 3752TIP3    H132671   4.999   5.772  14.888 -0.6972  1.5179 -0.4455
 3752TIP3    H232672   5.098   5.762  14.774  0.1548 -0.7782  0.4223
 3753TIP3   OH232673   6.231   1.614   4.156  0.0025 -0.0948  0.6337
 3753TIP3    H132674   6.309   1.669   4.153  0.9955 -1.4898 -0.2633
 3753TIP3    H232675   6.236   1.560   4.077 -0.6442 -1.8550  1.7175
 3754TIP3   OH232676   0.885   2.208  15.701  0.0455 -0.2159  0.3490
 3754TIP3    H132677   0.917   2.286  15.657  2.0829 -0.5448  1.1311
 3754TIP3    H232678   0.858   2.239  15.788 -0.1186 -0.2224  0.3009
 3755TIP3   OH232679   0.024   3.693  11.457 -0.5885 -0.3418 -0.1218
 3755TIP3    H132680   0.017   3.785  11.482 -1.1815 -0.5124  0.3621
 3755TIP3    H232681   0.039   3.695  11.362  2.2377  0.3376  0.2510
 3756TIP3   OH232682   0.137   1.437   1.612 -0.9098  0.6295  0.1404
 3756TIP3    H132683   0.099   1.350   1.601 -0.8558  0.5397  0.6402
 3756TIP3    H232684   0.154   1.467   1.523  0.5469 -0.5355 -0.0270
 3757TIP3   OH232685   0.560   1.633  14.841  0.1350 -0.0469  0.2969
 3757TIP3    H132686   0.655   1.639  14.831  0.5364 -1.7650  2.3883
 3757TIP3    H232687   0.533   1.574  14.771  0.4822  1.0114 -0.7543
 3758TIP3   OH232688   1.879   0.413   1.066  0.0465 -0.1069  0.8860
 3758TIP3    H132689   1.959   0.431   1.016 -0.7145 -0.4476 -0.5028
 3758TIP3    H232690   1.901   0.438   1.156  1.0595  1.7322  0.1830
 3759TIP3   OH232691   1.690   1.191  13.261 -0.4056  0.2073  0.0953
 3759TIP3    H132692   1.596   1.200  13.246 -0.4057 -0.4356 -0.3286
 3759TIP3    H232693   1.699   1.106  13.306  0.0245 -0.0471 -0.4592
 3760TIP3   OH232694   2.262   0.514   0.776  0.5243 -0.3428  0.2780
 3760TIP3    H132695   2.220   0.438   0.737 -0.2556  0.4618 -0.4841
 3760TIP3    H232696   2.201   0.543   0.844  0.0917  0.4967 -0.4571
 3761TIP3   OH232697   1.702   5.031  11.546  0.3527 -0.0015  0.1959
 3761TIP3    H132698   1.617   5.075  11.546  1.0727  1.4291  0.0371
 3761TIP3    H232699   1.682   4.941  11.518 -1.2085  0.0567  0.9843
 3762TIP3   OH232700   1.713   5.171  13.543  0.0499 -0.6673 -0.1046
 3762TIP3    H132701   1.705   5.084  13.504  0.3664 -1.6221  1.8220
 3762TIP3    H232702   1.629   5.186  13.587 -1.2282  1.4109 -2.9252
 3763TIP3   OH232703   5.626   2.431   0.199 -0.0838  0.0749  0.2565
 3763TIP3    H132704   5.580   2.370   0.141 -1.5251  0.8323  0.5510
 3763TIP3    H232705   5.710   2.447   0.156 -1.3106  1.0250 -1.9470
 3764TIP3   OH232706   4.154   6.433   2.367 -0.1548 -0.0640  0.3199
 3764TIP3    H132707   4.232   6.487   2.377  0.3560 -0.6287 -0.5028
 3764TIP3    H232708   4.114   6.433   2.454  0.5759  0.5076  0.6682
 3765TIP3   OH232709   2.787   0.181   1.840 -0.0684 -0.5417 -0.2472
 3765TIP3    H132710   2.718   0.144   1.896 -0.1318  0.4599  0.3682
 3765TIP3    H232711   2.849   0.109   1.827  0.1852 -0.6927  1.5163
 3766TIP3   OH232712   2.531   4.161   5.074 -0.0119 -0.2317 -0.0504
 3766TIP3    H132713   2.437   4.181   5.073  0.2378  1.0068 -0.6744
 3766TIP3    H232714   2.536   4.071   5.106 -1.3378  0.0778  1.1245
 3767TIP3   OH232715   5.636   4.608  14.230 -0.2462  0.3359  0.3096
 3767TIP3    H132716   5.546   4.637  14.215 -0.2571  0.7902  1.2316
 3767TIP3    H232717   5.674   4.603  14.142 -1.3021 -0.3028 -0.1194
 3768TIP3   OH232718   4.199   5.077  16.797  0.3488 -0.0220 -0.1985
 3768TIP3    H132719   4.230   5.037  16.715  2.2498 -1.3749  1.0887
 3768TIP3    H232720   4.166   5.003  16.849 -0.9956  0.8400  0.2237
 3769TIP3   OH232721   0.831   4.651  15.112  0.0774  0.0337  0.2940
 3769TIP3    H132722   0.882   4.683  15.187 -0.0852  0.4464  0.2291
 3769TIP3    H232723   0.861   4.704  15.038 -1.0720  0.8954  0.4221
 3770TIP3   OH232724   3.087   5.371  14.101  0.3176  0.2102  0.7005
 3770TIP3    H132725   3.052   5.332  14.020  2.1433  1.5731 -0.8230
 3770TIP3    H232726   3.015   5.363  14.164 -0.9468 -1.4815 -0.8354
 3771TIP3   OH232727   6.072   1.196   3.347  0.2686 -0.2807 -0.5255
 3771TIP3    H132728   6.034   1.192   3.260 -2.5387  3.4442  0.2748
 3771TIP3    H232729   6.017   1.140   3.401 -2.7638  2.9710  0.0774
 3772TIP3   OH232730   4.233   2.635   3.185 -0.6419 -0.8115  0.6211
 3772TIP3    H132731   4.168   2.619   3.116 -0.8820 -1.6216  1.0299
 3772TIP3    H232732   4.280   2.713   3.155 -2.5221  0.4680  0.8625
 3773TIP3   OH232733   2.194   5.265   0.485 -0.2486 -0.0700  0.3007
 3773TIP3    H132734   2.139   5.339   0.513  2.0515  0.9126  2.6436
 3773TIP3    H232735   2.214   5.218   0.566  1.0865 -1.2753 -0.6807
 3774TIP3   OH232736   0.275   4.664  15.590  0.6696 -0.3380  1.0026
 3774TIP3    H132737   0.363   4.626  15.586  0.3686 -0.9019 -1.3183
 3774TIP3    H232738   0.220   4.592  15.621  0.8798 -0.2428  1.6106
 3775TIP3   OH232739   3.738   3.520   0.542 -0.3368  0.6306  0.2815
 3775TIP3    H132740   3.740   3.537   0.448 -1.1566  0.0998  0.1585
 3775TIP3    H232741   3.665   3.459   0.554  0.7414 -0.5501  1.0594
 3776TIP3   OH232742   1.455   3.375  13.100 -0.0447 -0.2802 -0.5084
 3776TIP3    H132743   1.457   3.447  13.037  3.2079  0.2320  0.0415
 3776TIP3    H232744   1.456   3.296  13.046 -0.2849  0.1131 -1.0962
 3777TIP3   OH232745   5.674   6.623   0.647  0.1905 -0.1666  0.1279
 3777TIP3    H132746   5.646   6.621   0.556  0.8346  0.9420 -0.1179
 3777TIP3    H232747   5.691   6.716   0.665 -4.6313  0.4790  2.8722
 3778TIP3   OH232748   5.886   1.855  14.778  0.0139  0.2635 -0.2664
 3778TIP3    H132749   5.980   1.838  14.779  0.1424  0.8721  1.2028
 3778TIP3    H232750   5.850   1.792  14.715  1.3033 -0.5217 -0.2393
 3779TIP3   OH232751   1.264   3.535  16.062 -0.2453 -0.1341 -0.1607
 3779TIP3    H132752   1.176   3.567  16.042  0.4221  1.0048 -1.4078
 3779TIP3    H232753   1.290   3.487  15.983  0.2332 -0.5449  0.2414
 3780TIP3   OH232754   4.739   2.259  17.236  0.1566  0.1023 -0.0008
 3780TIP3    H132755   4.755   2.329  17.173 -0.6073 -0.0149 -0.3315
 3780TIP3    H232756   4.645   2.242  17.231  0.4326 -1.4391 -0.4310
 3781TIP3   OH232757   5.911   4.407  14.035 -0.3789  0.5389  0.0666
 3781TIP3    H132758   5.905   4.316  14.062  0.5592  0.1445 -0.9599
 3781TIP3    H232759   5.953   4.452  14.108  0.6481 -0.1805 -0.0657
 3782TIP3   OH232760   3.664   3.552  12.407  0.1646 -0.1648  0.2784
 3782TIP3    H132761   3.745   3.597  12.385 -0.1759  0.6874  0.7188
 3782TIP3    H232762   3.689   3.460  12.417  0.8711 -0.0879 -0.6476
 3783TIP3   OH232763   3.730   2.310  15.543 -0.3787  0.3867  0.4649
 3783TIP3    H132764   3.680   2.296  15.623  0.2385 -1.0866  0.6337
 3783TIP3    H232765   3.821   2.301  15.570 -0.1033  1.2861 -0.1517
 3784TIP3   OH232766   2.660   2.862  16.120  0.1875  0.3868  0.3482
 3784TIP3    H132767   2.706   2.941  16.146 -2.3243  2.1184 -0.1001
 3784TIP3    H232768   2.623   2.827  16.201  0.9801 -0.1576  0.4912
 3785TIP3   OH232769   2.049   3.400   4.697  0.0219  0.2981 -0.4464
 3785TIP3    H132770   2.123   3.347   4.726 -0.2460 -0.2214 -0.7022
 3785TIP3    H232771   1.972   3.355   4.733 -0.0623  2.3338  2.2371
 3786TIP3   OH232772   3.221   4.730  17.049 -0.0940  0.2355  0.0739
 3786TIP3    H132773   3.160   4.791  17.090 -2.0650  0.0227 -2.3013
 3786TIP3    H232774   3.216   4.749  16.956  2.1945 -1.0175 -0.4050
 3787TIP3   OH232775   1.529   0.514   4.174  0.3701  0.5003 -0.2409
 3787TIP3    H132776   1.459   0.496   4.236 -1.3607  2.0363 -1.6172
 3787TIP3    H232777   1.588   0.574   4.221 -0.0821  0.4370  0.4164
 3788TIP3   OH232778   4.355   3.516  12.059  0.0698 -0.4675 -0.1235
 3788TIP3    H132779   4.322   3.435  12.096 -0.5160  0.4460  1.4349
 3788TIP3    H232780   4.416   3.550  12.124 -1.1057  1.2643  0.1329
 3789TIP3   OH232781   0.662   0.654  11.395 -0.6162 -0.3555  0.1331
 3789TIP3    H132782   0.673   0.641  11.301 -0.6611  0.2946  0.0270
 3789TIP3    H232783   0.749   0.641  11.432 -0.6397 -0.8091  0.0241
 3790TIP3   OH232784   0.125   5.738  11.757  0.3092  0.5910  0.1525
 3790TIP3    H132785   0.138   5.830  11.778 -0.1696  0.9125 -0.9052
 3790TIP3    H232786   0.035   5.719  11.786 -0.5290  1.1624 -1.9107
 3791TIP3   OH232787   2.568   6.426  11.543 -0.2669  0.7754 -0.7108
 3791TIP3    H132788   2.514   6.489  11.589 -0.3443  0.0107  0.2713
 3791TIP3    H232789   2.655   6.435  11.582  0.1467  1.4217 -1.7173
 3792TIP3   OH232790   2.505   4.524   1.483  0.0447  0.5565  0.3850
 3792TIP3    H132791   2.564   4.589   1.520 -0.2891  2.1852 -1.7429
 3792TIP3    H232792   2.549   4.494   1.403 -1.8825  1.7898 -1.2414
 3793TIP3   OH232793   4.514   5.112  12.877  0.2267 -0.0595  0.1425
 3793TIP3    H132794   4.531   5.201  12.907 -0.3046 -0.1492  0.7256
 3793TIP3    H232795   4.432   5.117  12.830  0.1468 -0.2583  0.2581
 3794TIP3   OH232796   4.914   0.721  12.583  0.3558  0.1017 -0.2701
 3794TIP3    H132797   4.934   0.710  12.490  0.0871 -0.0138 -0.3164
 3794TIP3    H232798   4.932   0.813  12.601  0.4541  0.1136 -0.4253
 3795TIP3   OH232799   1.052   1.196   6.067 -0.0498 -0.3244 -0.1659
 3795TIP3    H132800   1.029   1.123   6.125 -1.4834  0.5358  0.4092
 3795TIP3    H232801   1.038   1.274   6.121  1.2314  0.3982 -0.8415
 3796TIP3   OH232802   6.587   0.185  14.908 -0.0945  0.0759  0.0863
 3796TIP3    H132803   6.544   0.199  14.823 -0.8110  2.0586  0.6975
 3796TIP3    H232804   6.530   0.230  14.971  1.3674  0.2456  1.3584
 3797TIP3   OH232805   6.215   2.409   0.582 -0.9315  0.0251 -0.1456
 3797TIP3    H132806   6.246   2.429   0.493  2.6399 -2.0529  0.4147
 3797TIP3    H232807   6.121   2.426   0.579 -1.0313 -0.1239 -4.3669
 3798TIP3   OH232808   1.095   3.136  16.072  0.9237 -0.1053  0.4676
 3798TIP3    H132809   1.113   3.059  16.126  1.7874 -1.4547 -1.6340
 3798TIP3    H232810   1.168   3.196  16.090  0.5900 -0.0156  1.6200
 3799TIP3   OH232811   1.233   4.733   5.172  0.6947  0.5278  0.1041
 3799TIP3    H132812   1.152   4.754   5.219  0.8062 -0.1602  0.6326
 3799TIP3    H232813   1.293   4.705   5.241  0.2745 -2.3457 -0.5713
 3800TIP3   OH232814   5.406   6.136   3.821 -0.0543  0.3210  0.6631
 3800TIP3    H132815   5.394   6.107   3.911  1.4781 -0.3100  0.7028
 3800TIP3    H232816   5.333   6.097   3.773 -0.3562 -0.1221  1.4602
 3801TIP3   OH232817   3.725   0.530   4.788  0.1432  0.1162  0.1617
 3801TIP3    H132818   3.701   0.616   4.752  0.4639 -0.5663 -1.7885
 3801TIP3    H232819   3.817   0.519   4.764  0.2642 -0.5502  0.8912
 3802TIP3   OH232820   5.846   5.605  13.667 -0.1750  0.2898 -0.5073
 3802TIP3    H132821   5.812   5.538  13.607 -2.3602  1.3906 -0.5804
 3802TIP3    H232822   5.783   5.608  13.738  2.0581 -0.5546  1.6480
 3803TIP3   OH232823   1.139   4.050  12.489 -0.3668 -0.2648  0.3549
 3803TIP3    H132824   1.090   4.054  12.571 -0.4077 -1.8444  0.4431
 3803TIP3    H232825   1.202   4.122  12.495  0.4466 -1.0697  2.3230
 3804TIP3   OH232826   3.269   5.529  13.543  0.2526 -0.2028 -0.1301
 3804TIP3    H132827   3.177   5.555  13.551  0.2400 -0.5663  1.0556
 3804TIP3    H232828   3.300   5.573  13.464 -0.3289  1.7010  0.6512
 3805TIP3   OH232829   4.517   2.456  14.206  0.3049 -0.2816 -0.1625
 3805TIP3    H132830   4.484   2.366  14.211  0.3923 -0.3265 -0.4060
 3805TIP3    H232831   4.544   2.467  14.115  4.1607 -1.3540  0.6869
 3806TIP3   OH232832   3.195   5.120   1.639 -0.1257 -0.3725  0.1111
 3806TIP3    H132833   3.160   5.207   1.620 -1.7421 -0.8492  0.7478
 3806TIP3    H232834   3.285   5.136   1.669 -0.3953  1.0719  0.2127
 3807TIP3   OH232835   4.818   3.378   4.000 -0.0762 -0.5084 -0.1677
 3807TIP3    H132836   4.750   3.381   4.067 -0.0849  1.0952 -0.2073
 3807TIP3    H232837   4.793   3.304   3.944 -0.8787 -0.9471  0.7440
 3808TIP3   OH232838   4.626   5.578  15.074 -0.0133  0.2843 -0.3555
 3808TIP3    H132839   4.582   5.559  14.991 -0.5764 -1.4175  0.3027
 3808TIP3    H232840   4.559   5.620  15.128  0.2815  1.1604 -0.6529
 3809TIP3   OH232841   4.617   4.304   4.108 -0.1394 -0.2712  0.3382
 3809TIP3    H132842   4.670   4.384   4.114 -0.9821  0.2761  0.7317
 3809TIP3    H232843   4.543   4.328   4.052 -0.9033 -0.4716  1.2225
 3810TIP3   OH232844   0.099   6.048  15.082  0.1063 -0.0520 -0.2449
 3810TIP3    H132845   0.076   6.004  15.164 -1.5414  2.2866  0.6504
 3810TIP3    H232846   0.015   6.080  15.048  0.8665 -0.2691 -2.4494
 3811TIP3   OH232847   3.617   2.239  16.764 -0.0987 -0.1780  0.0330
 3811TIP3    H132848   3.687   2.305  16.763 -1.4372  1.3047 -1.0628
 3811TIP3    H232849   3.635   2.184  16.688  0.5492 -0.5655  0.4604
 3812TIP3   OH232850   6.212   5.703   5.722  0.0227  0.1979  0.4120
 3812TIP3    H132851   6.282   5.691   5.786  0.4128 -0.7884 -0.1695
 3812TIP3    H232852   6.135   5.664   5.763  0.2348 -0.2907  0.3561
 3813TIP3   OH232853   3.765   4.822  11.764 -0.4503 -0.1976 -0.0835
 3813TIP3    H132854   3.776   4.917  11.762  0.3935 -0.2702  0.4328
 3813TIP3    H232855   3.849   4.789  11.796 -1.0053 -1.0715  0.5067
 3814TIP3   OH232856   5.906   5.827   5.205 -0.4085 -0.3987  0.2322
 3814TIP3    H132857   5.818   5.863   5.198 -0.4221 -0.6120 -0.8261
 3814TIP3    H232858   5.908   5.786   5.292 -0.9660  0.6005  0.7310
 3815TIP3   OH232859   2.615   0.624  11.645 -0.0759 -0.2414 -0.2331
 3815TIP3    H132860   2.522   0.604  11.649 -0.0438 -0.4886 -0.6653
 3815TIP3    H232861   2.622   0.712  11.681 -0.6704  0.3649 -1.5259
 3816TIP3   OH232862   4.825   2.281   4.881 -0.0678  0.2504 -0.2136
 3816TIP3    H132863   4.783   2.199   4.853  0.3853  0.5434 -1.8689
 3816TIP3    H232864   4.896   2.253   4.939 -0.1009 -0.5184 -0.5293
 3817TIP3   OH232865   5.211   1.466   4.790 -0.2872 -0.2908  0.3006
 3817TIP3    H132866   5.306   1.464   4.778 -0.0940  0.6533  1.3869
 3817TIP3    H232867   5.178   1.392   4.740  1.0140 -0.5693 -0.1786
 3818TIP3   OH232868   0.816   4.906  12.719  0.1980 -0.0512 -0.2169
 3818TIP3    H132869   0.907   4.910  12.747  0.0308 -0.8794  0.5030
 3818TIP3    H232870   0.775   4.845  12.780 -0.7116 -0.1222 -0.8759
 3819TIP3   OH232871   2.167   5.432  15.438  0.5260 -0.1211  0.2274
 3819TIP3    H132872   2.175   5.430  15.534 -2.4813  1.3460  0.6283
 3819TIP3    H232873   2.106   5.362  15.418 -0.0284  0.5352 -0.4303
 3820TIP3   OH232874   6.325   1.557   1.372 -0.3319  0.2429 -0.4582
 3820TIP3    H132875   6.386   1.618   1.414  0.4837  0.1497 -1.4610
 3820TIP3    H232876   6.294   1.604   1.294  0.5672 -0.7165 -1.4297
 3821TIP3   OH232877   4.363   0.449   2.796  0.4446  0.4343  0.0154
 3821TIP3    H132878   4.351   0.405   2.880 -0.5341  0.4796 -0.0847
 3821TIP3    H232879   4.345   0.541   2.813 -0.3865  0.3516 -0.3592
 3822TIP3   OH232880   3.295   5.173  16.659  0.0741 -0.0542 -0.3936
 3822TIP3    H132881   3.327   5.107  16.721 -0.6321 -1.0467 -1.0597
 3822TIP3    H232882   3.210   5.200  16.695  0.5369  0.8148  0.0911
 3823TIP3   OH232883   2.082   3.237  13.193  0.2990 -0.0943  1.0978
 3823TIP3    H132884   2.111   3.317  13.149 -0.0924  0.0225  1.0469
 3823TIP3    H232885   2.163   3.197  13.224  0.5494  0.0219  0.6164
 3824TIP3   OH232886   3.939   5.379   2.365  0.0403 -0.0793 -0.4397
 3824TIP3    H132887   3.858   5.335   2.391 -0.6550  1.1988 -0.3871
 3824TIP3    H232888   3.958   5.344   2.277  1.0424 -2.5401  0.6628
 3825TIP3   OH232889   6.146   0.975   0.130  0.1157 -0.2298 -0.1882
 3825TIP3    H132890   6.063   0.937   0.157 -0.0557  1.8324  2.6580
 3825TIP3    H232891   6.209   0.944   0.195  1.1792 -0.1937 -1.1674
 3826TIP3   OH232892   5.026   3.700   1.745 -0.5097 -0.3524 -0.4766
 3826TIP3    H132893   5.087   3.627   1.757  0.8926  0.1123 -3.6962
 3826TIP3    H232894   5.071   3.775   1.784  0.4072 -0.2853 -1.6102
 3827TIP3   OH232895   6.373   1.570   4.375 -0.3299 -0.3220  0.1847
 3827TIP3    H132896   6.361   1.639   4.440 -0.3949  0.6637 -0.8451
 3827TIP3    H232897   6.304   1.586   4.311  0.6882 -0.3129 -0.9363
 3828TIP3   OH232898   0.306   3.980   1.230 -0.1481  0.1029 -0.1862
 3828TIP3    H132899   0.217   3.996   1.197 -0.2515  1.2517  0.5743
 3828TIP3    H232900   0.333   4.064   1.267 -0.0475 -1.0545  2.6507
 3829TIP3   OH232901   5.628   5.300   5.188 -0.7252 -0.0463  0.1365
 3829TIP3    H132902   5.606   5.372   5.247  0.4973  0.7306 -0.3167
 3829TIP3    H232903   5.721   5.284   5.204 -0.6056 -0.4491 -0.9047
 3830TIP3   OH232904   5.830   3.405  14.155 -0.3049  0.3480 -0.2118
 3830TIP3    H132905   5.892   3.478  14.161  0.9462 -0.6892 -0.2225
 3830TIP3    H232906   5.869   3.345  14.092  0.0158 -1.5396  1.6600
 3831TIP3   OH232907   0.504   0.614  13.119  0.0708 -0.2548 -0.8311
 3831TIP3    H132908   0.513   0.653  13.206 -1.0085  0.1743 -0.8997
 3831TIP3    H232909   0.416   0.639  13.091 -0.6657 -2.7199 -0.8919
 3832TIP3   OH232910   4.792   3.253   3.029  0.5735 -0.2282 -0.1452
 3832TIP3    H132911   4.841   3.197   3.090 -1.0007 -1.1519  0.3271
 3832TIP3    H232912   4.771   3.331   3.080 -2.4663 -1.8098  1.3183
 3833TIP3   OH232913   5.883   2.510   5.883 -1.0475 -1.2972 -0.2628
 3833TIP3    H132914   5.951   2.469   5.936 -0.6070  0.1418  0.3258
 3833TIP3    H232915   5.819   2.440   5.869 -0.8424 -1.9230  1.6015
 3834TIP3   OH232916   3.324   5.229  11.408 -0.2415  0.2458 -0.0423
 3834TIP3    H132917   3.333   5.322  11.387 -2.7747  0.6235  0.2444
 3834TIP3    H232918   3.366   5.220  11.493  1.0414  0.8549 -0.5763
 3835TIP3   OH232919   6.620   6.667  13.359  0.5533 -0.3345  0.1656
 3835TIP3    H132920   6.560   6.686  13.431 -5.0707 -1.1503 -3.6603
 3835TIP3    H232921   6.655   6.752  13.334 -2.6107  1.0569  0.0122
 3836TIP3   OH232922   0.857   6.438  16.657  0.7380 -0.1056 -0.4915
 3836TIP3    H132923   0.789   6.441  16.590  0.5750  2.4643 -0.3130
 3836TIP3    H232924   0.854   6.348  16.691  0.2221 -1.2065 -3.2495
 3837TIP3   OH232925   5.046   2.230   3.101 -0.0898  0.4428  0.0733
 3837TIP3    H132926   4.952   2.239   3.113 -0.1958 -0.3919 -0.0714
 3837TIP3    H232927   5.070   2.151   3.149  0.1787 -0.5324 -1.5624
 3838TIP3   OH232928   5.805   4.218  15.557 -0.2835  0.2004  0.4134
 3838TIP3    H132929   5.879   4.195  15.613  0.0400 -0.6140 -0.3203
 3838TIP3    H232930   5.809   4.313  15.548  2.6722 -0.0376 -2.2797
 3839TIP3   OH232931   4.470   3.376  10.924  0.1705 -0.2973 -0.1255
 3839TIP3    H132932   4.390   3.372  10.872 -0.2279  0.2342  0.4463
 3839TIP3    H232933   4.492   3.284  10.939  0.3771 -0.4693 -1.3470
 3840TIP3   OH232934   6.297   6.489   1.393  0.0865 -0.2231 -0.4717
 3840TIP3    H132935   6.206   6.461   1.406 -0.3603  1.3331 -0.0843
 3840TIP3    H232936   6.342   6.465   1.474  0.1373 -1.3568 -0.8164
 3841TIP3   OH232937   0.367   3.545  16.576  0.6206 -0.2018  0.0995
 3841TIP3    H132938   0.304   3.501  16.633  0.3641  0.2437  0.1753
 3841TIP3    H232939   0.445   3.490  16.578  0.4143 -0.4874  0.4263
 3842TIP3   OH232940   4.799   4.260   6.371  0.8898 -0.2812 -0.2541
 3842TIP3    H132941   4.725   4.310   6.336  1.3801  0.4056 -0.3415
 3842TIP3    H232942   4.863   4.327   6.397  0.5298 -0.7538  2.0005
 3843TIP3   OH232943   1.136   3.950   0.684  0.2301 -1.0846  0.2363
 3843TIP3    H132944   1.197   3.968   0.755 -0.7648 -0.7818  1.0459
 3843TIP3    H232945   1.175   3.877   0.636  2.6727  0.8748 -1.0503
 3844TIP3   OH232946   1.557   6.221   2.473  0.0707 -0.0087 -0.3357
 3844TIP3    H132947   1.637   6.175   2.497 -0.4781 -1.9701 -2.0240
 3844TIP3    H232948   1.580   6.274   2.397  0.8726  3.3017  1.9729
 3845TIP3   OH232949   5.388   6.028  14.491  0.0817 -0.2396  0.9441
 3845TIP3    H132950   5.352   6.002  14.407  1.4298  1.4373 -0.2322
 3845TIP3    H232951   5.425   5.948  14.528 -1.6435 -1.2480  0.5727
 3846TIP3   OH232952   6.558   5.742  12.120  0.3271 -0.3191 -0.0710
 3846TIP3    H132953   6.635   5.790  12.091  0.0448  1.1064  1.3435
 3846TIP3    H232954   6.493   5.810  12.139  0.1693 -1.1174  2.8212
 3847TIP3   OH232955   5.647   1.071   5.057  0.3490  0.8857 -0.1375
 3847TIP3    H132956   5.606   1.005   5.002  1.1762  0.2341 -0.0043
 3847TIP3    H232957   5.578   1.100   5.116  0.0021  0.0459 -0.1163
 3848TIP3   OH232958   5.102   0.054  12.213  0.0558 -0.7735 -0.8769
 3848TIP3    H132959   5.030  -0.009  12.223  0.4495 -1.1165 -0.0487
 3848TIP3    H232960   5.142   0.058  12.300  0.6286 -0.0855 -1.1609
 3849TIP3   OH232961   0.897   3.442   2.492  0.4269 -0.2851 -0.3817
 3849TIP3    H132962   0.899   3.523   2.543  0.3353 -0.5574  0.0566
 3849TIP3    H232963   0.975   3.394   2.519 -0.5101 -1.2104  0.8107
 3850TIP3   OH232964   2.398   5.140  16.028 -0.2506  0.6395 -0.3187
 3850TIP3    H132965   2.422   5.174  15.941  0.7522 -0.1915 -0.3705
 3850TIP3    H232966   2.476   5.152  16.081 -1.6852  3.8275  1.3708
 3851TIP3   OH232967   2.420   3.431  12.106  0.2393 -0.0025  0.4497
 3851TIP3    H132968   2.393   3.415  12.016 -2.9331 -1.2890  1.5150
 3851TIP3    H232969   2.356   3.494  12.140 -0.2367 -1.4766  2.4949
 3852TIP3   OH232970   5.188   4.398  13.760  0.2194  0.2157  0.0401
 3852TIP3    H132971   5.249   4.324  13.764  1.4736  1.1787 -0.4227
 3852TIP3    H232972   5.131   4.378  13.686  0.2686 -0.4841  0.1843
 3853TIP3   OH232973   5.783   3.365  16.533 -0.2739 -0.1057 -0.2400
 3853TIP3    H132974   5.692   3.366  16.506 -0.8286 -1.5975  1.3708
 3853TIP3    H232975   5.793   3.282  16.580  1.5413  0.6602  0.8326
 3854TIP3   OH232976   3.126   2.951  11.431  0.1210  0.3188  0.0150
 3854TIP3    H132977   3.041   2.917  11.457 -0.0644  0.7909  0.0277
 3854TIP3    H232978   3.188   2.903  11.486  0.0125 -1.2738 -1.2014
 3855TIP3   OH232979   6.690   1.909   3.798 -0.3063 -0.0203 -0.3742
 3855TIP3    H132980   6.678   1.977   3.732  1.2634 -0.8050 -1.5102
 3855TIP3    H232981   6.745   1.951   3.865  0.5958 -0.1254 -1.0339
 3856TIP3   OH232982   3.758   0.987   5.061 -0.0484  0.1175  0.0613
 3856TIP3    H132983   3.739   1.051   5.129 -1.3350  1.4259 -1.4405
 3856TIP3    H232984   3.702   0.912   5.082  0.9361 -0.2705  1.4340
 3857TIP3   OH232985   5.756   3.996   2.386  0.4178 -0.0329 -0.0437
 3857TIP3    H132986   5.668   4.012   2.352  0.2516  0.6247  0.6790
 3857TIP3    H232987   5.746   3.997   2.481  1.0595 -0.8246  0.0481
 3858TIP3   OH232988   1.696   3.009   1.934 -0.0051 -0.0231 -0.0066
 3858TIP3    H132989   1.601   3.016   1.934  0.1188  4.8307  0.2793
 3858TIP3    H232990   1.717   2.978   1.846 -1.7807 -1.2907 -0.0415
 3859TIP3   OH232991   2.949   3.821   1.810 -0.4845 -0.0215 -0.3926
 3859TIP3    H132992   2.982   3.866   1.732 -1.3641  1.3065 -0.0389
 3859TIP3    H232993   3.023   3.820   1.871 -0.3263  0.6102 -0.5646
 3860TIP3   OH232994   2.663   2.621   1.813  0.1541  0.0062 -0.2083
 3860TIP3    H132995   2.681   2.693   1.873  0.4862  0.5963 -1.0114
 3860TIP3    H232996   2.640   2.663   1.730 -0.8545 -0.7843 -0.3630
 3861TIP3   OH232997   3.700   5.207  15.659  0.3433 -0.1973  0.0665
 3861TIP3    H132998   3.605   5.199  15.664  0.3362  0.3218  0.9083
 3861TIP3    H232999   3.718   5.300  15.676  0.9904 -0.2564 -0.2410
 3862TIP3   OH233000   3.905   2.277   2.757 -0.1764  0.3745 -0.2773
 3862TIP3    H133001   3.970   2.334   2.717 -1.3086  1.3832 -0.7102
 3862TIP3    H233002   3.823   2.298   2.713 -0.5007 -2.1734 -1.0443
 3863TIP3   OH233003   5.276   0.111   5.645 -0.3339  0.2045  0.2244
 3863TIP3    H133004   5.217   0.165   5.593  1.1533  1.5487 -0.1611
 3863TIP3    H233005   5.289   0.032   5.592 -1.6825 -0.0798  0.2834
 3864TIP3   OH233006   4.985   5.472   1.792  0.9052  0.0251 -0.4471
 3864TIP3    H133007   4.975   5.510   1.879  2.4185 -1.1180  0.2653
 3864TIP3    H233008   4.975   5.378   1.805 -0.4850 -0.0627 -1.8035
 3865TIP3   OH233009   3.428   5.782  14.958 -0.1800 -0.3518  0.1027
 3865TIP3    H133010   3.523   5.796  14.959 -0.5263  2.6496 -0.2917
 3865TIP3    H233011   3.413   5.723  14.884  1.3822 -0.9697  0.2534
 3866TIP3   OH233012   1.717   2.940   0.517  0.1754 -0.1956  0.4352
 3866TIP3    H133013   1.736   2.864   0.572  1.3774 -1.2350 -1.2932
 3866TIP3    H233014   1.634   2.919   0.475  0.1726 -0.2445  0.4651
 3867TIP3   OH233015   2.777   1.398  15.333  0.0222 -0.0498  0.3007
 3867TIP3    H133016   2.712   1.469  15.334 -0.5456 -0.5687  0.9598
 3867TIP3    H233017   2.729   1.321  15.304  0.1715 -0.5895  1.4285
 3868TIP3   OH233018   4.311   0.877  13.688  0.1700  0.5947 -0.2095
 3868TIP3    H133019   4.361   0.795  13.687 -1.2149 -0.4436  2.6853
 3868TIP3    H233020   4.237   0.860  13.630 -0.1550 -0.2846  0.4361
 3869TIP3   OH233021   6.507   1.961   2.947  0.4180  0.2247 -0.3048
 3869TIP3    H133022   6.472   2.006   3.024 -0.4563  0.6409 -0.9317
 3869TIP3    H233023   6.432   1.951   2.888  1.2300  0.6382 -1.4442
 3870TIP3   OH233024   4.869   5.685   3.641 -0.0416  0.0044  0.1314
 3870TIP3    H133025   4.938   5.635   3.598  0.5320 -0.0421  1.0754
 3870TIP3    H233026   4.913   5.727   3.715 -1.1637 -0.5304  1.1180
 3871TIP3   OH233027   3.754   0.537  14.596  0.0218 -0.4934 -0.5680
 3871TIP3    H133028   3.705   0.571  14.522 -0.7825 -0.3149  0.0349
 3871TIP3    H233029   3.845   0.536  14.566 -0.2083  0.1799 -1.3259
 3872TIP3   OH233030   5.104   0.675  14.241  0.0759 -0.0812  0.1861
 3872TIP3    H133031   5.044   0.748  14.230  1.0348  0.8735  1.0164
 3872TIP3    H233032   5.068   0.625  14.314  0.3517  0.5674  0.7771
 3873TIP3   OH233033   1.541   6.427  10.813  0.5691 -0.2486  0.3303
 3873TIP3    H133034   1.498   6.476  10.884  0.7664 -0.0611  0.3207
 3873TIP3    H233035   1.589   6.357  10.857  0.2873 -0.4346  0.3448
 3874TIP3   OH233036   6.737   0.634  10.771 -0.3028  0.1854  0.0839
 3874TIP3    H133037   6.687   0.552  10.775 -1.0149  0.6190  3.4427
 3874TIP3    H233038   6.826   0.606  10.752 -0.7979 -1.1834 -0.3986
 3875TIP3   OH233039   5.169   1.600   0.867  0.8722 -0.1455 -0.1714
 3875TIP3    H133040   5.134   1.627   0.952 -0.6060 -0.6362 -0.5953
 3875TIP3    H233041   5.208   1.680   0.831 -1.0129  0.7965 -0.2393
 3876TIP3   OH233042   4.161   1.445  12.115  0.3567  0.1184 -0.0881
 3876TIP3    H133043   4.165   1.495  12.033  2.2574 -1.1495 -0.8298
 3876TIP3    H233044   4.247   1.403  12.122  0.9317  1.5204  3.4739
 3877TIP3   OH233045   0.029   2.570   0.817  0.2656  0.0835 -0.3551
 3877TIP3    H133046   0.030   2.493   0.760  1.9548 -0.7485  0.7506
 3877TIP3    H233047  -0.031   2.547   0.888 -0.3617  0.3761 -0.7827
 3878TIP3   OH233048   0.358   0.845   2.182  0.0454 -0.3227 -0.3325
 3878TIP3    H133049   0.308   0.781   2.130 -0.2599 -0.9673  0.7248
 3878TIP3    H233050   0.446   0.841   2.145 -0.2856 -0.3650 -1.1560
 3879TIP3   OH233051   3.771   4.411  14.982 -0.1697  0.1259  0.3750
 3879TIP3    H133052   3.819   4.360  14.915 -3.8084 -0.5505 -1.9857
 3879TIP3    H233053   3.814   4.497  14.981 -0.5817  0.5006 -3.7043
 3880TIP3   OH233054   2.449   3.085   0.958 -0.0264 -0.1182  0.0056
 3880TIP3    H133055   2.521   3.125   0.910 -0.5611  2.1998  1.0322
 3880TIP3    H233056   2.370   3.128   0.925 -0.8568 -1.6385 -0.1156
 3881TIP3   OH233057   1.795   6.017   3.167 -0.6997 -0.0570 -0.0281
 3881TIP3    H133058   1.867   6.029   3.106 -1.2806 -0.5200 -0.8187
 3881TIP3    H233059   1.732   6.085   3.144  0.1006  1.3241  1.6387
 3882TIP3   OH233060   3.401   5.353   4.937  0.3190  0.5889  0.3359
 3882TIP3    H133061   3.318   5.399   4.921  0.8976  0.8571 -2.3620
 3882TIP3    H233062   3.380   5.261   4.921  0.2475  0.4659  1.0848
 3883TIP3   OH233063   3.977   0.410   4.719  0.0643  0.7165 -0.1771
 3883TIP3    H133064   4.032   0.488   4.712  0.2471  0.7201  1.0757
 3883TIP3    H233065   4.040   0.338   4.733 -0.1724  0.5532  0.0581
 3884TIP3   OH233066   5.053   5.416   0.322 -0.2139  0.1392  0.2282
 3884TIP3    H133067   5.081   5.359   0.394  1.2592 -0.4807 -0.7861
 3884TIP3    H233068   5.125   5.479   0.313 -0.2232  0.0029 -0.8948
 3885TIP3   OH233069   6.018   0.725  11.773  0.3579 -0.4478  0.0684
 3885TIP3    H133070   5.934   0.716  11.818 -0.0749 -0.3979 -0.7105
 3885TIP3    H233071   5.997   0.717  11.680  1.4231 -1.9397 -0.0805
 3886TIP3   OH233072   6.077   2.137   5.152 -0.4528 -0.2851 -0.5625
 3886TIP3    H133073   6.142   2.070   5.133  0.1156  0.6747 -2.2326
 3886TIP3    H233074   6.126   2.220   5.145 -0.7037  0.3604  3.0554
 3887TIP3   OH233075   0.436   3.183  16.660 -0.1011 -0.1344 -0.1423
 3887TIP3    H133076   0.364   3.124  16.638  0.1896 -0.0604 -1.3757
 3887TIP3    H233077   0.494   3.130  16.716 -0.4560 -0.6193 -0.2250
 3888TIP3   OH233078   5.971   1.591  12.947  0.0757  0.1375  0.4871
 3888TIP3    H133079   5.979   1.683  12.972  0.1757  0.9839 -2.2971
 3888TIP3    H233080   5.967   1.592  12.851  2.0923 -2.8804  0.2081
 3889TIP3   OH233081   5.477   3.887  15.164 -0.1197  0.0596 -0.3856
 3889TIP3    H133082   5.560   3.844  15.186 -1.2359 -2.6954 -1.1076
 3889TIP3    H233083   5.489   3.978  15.192  2.2372 -0.7871  1.8026
 3890TIP3   OH233084   0.265   2.656   5.872  0.1908 -0.2306 -0.7887
 3890TIP3    H133085   0.226   2.675   5.787 -3.0221 -0.2542  0.5016
 3890TIP3    H233086   0.293   2.741   5.905 -0.6180  0.1230 -0.9853
 3891TIP3   OH233087   2.990   0.858   1.531  0.1160  0.0450  0.5844
 3891TIP3    H133088   3.003   0.905   1.613 -2.8029  2.5037 -0.1590
 3891TIP3    H233089   2.996   0.925   1.464 -0.4583 -1.3617 -0.9431
 3892TIP3   OH233090   4.043   6.298   5.871 -0.4995  0.0400  0.2107
 3892TIP3    H133091   4.044   6.222   5.929  0.1013 -0.2282 -0.1416
 3892TIP3    H233092   3.972   6.352   5.904  0.7086  0.5836  2.0969
 3893TIP3   OH233093   1.944   3.757   5.297 -0.0612 -0.3358 -0.0849
 3893TIP3    H133094   1.985   3.827   5.348 -2.7016  2.4074 -1.4157
 3893TIP3    H233095   2.018   3.714   5.253  1.6925  1.8798  0.4881
 3894TIP3   OH233096   3.314   4.645   5.061 -0.7079  0.2788  0.6590
 3894TIP3    H133097   3.240   4.665   5.004 -1.5944 -3.1739  0.4303
 3894TIP3    H233098   3.389   4.640   5.002 -1.0617 -0.2211  0.2443
 3895TIP3   OH233099   2.578   6.082   5.051 -0.1571 -0.2585  1.3256
 3895TIP3    H133100   2.599   6.103   5.142  2.0482 -2.0119  1.3293
 3895TIP3    H233101   2.635   6.007   5.030 -1.0580 -0.3228 -1.2970
 3896TIP3   OH233102   1.405   3.607  15.121  0.1320 -0.4352 -0.3507
 3896TIP3    H133103   1.330   3.611  15.063 -0.3358  2.1761  0.2999
 3896TIP3    H233104   1.472   3.661  15.078  0.5518 -0.2954  0.4485
 3897TIP3   OH233105   0.892   6.570   3.883  0.1456 -0.3835  0.4463
 3897TIP3    H133106   0.899   6.648   3.938  1.3599  0.9219 -1.4648
 3897TIP3    H233107   0.798   6.552   3.879 -0.0837  0.4523  1.6064
 3898TIP3   OH233108   5.087   6.509  11.680  0.2994 -0.3277  0.1330
 3898TIP3    H133109   5.131   6.465  11.607 -0.1667 -0.3379 -0.1436
 3898TIP3    H233110   5.152   6.572  11.713  1.0303 -1.2940  0.6122
 3899TIP3   OH233111   2.472   3.942   1.753 -0.1327 -0.1993 -0.0736
 3899TIP3    H133112   2.552   3.962   1.802  1.2330 -0.8204 -1.9311
 3899TIP3    H233113   2.403   3.990   1.800  1.8734  3.4338 -0.4357
 3900TIP3   OH233114   4.565   3.085   5.807 -0.2234 -0.4590  0.2747
 3900TIP3    H133115   4.649   3.128   5.821 -1.3666  1.9660  0.2372
 3900TIP3    H233116   4.534   3.064   5.896 -1.0800  1.8928  0.6167
 3901TIP3   OH233117   4.768   3.786  14.097  0.4046 -0.3425  0.1410
 3901TIP3    H133118   4.814   3.707  14.069 -0.2020 -0.5380 -0.3326
 3901TIP3    H233119   4.682   3.756  14.125 -0.4110  0.2967 -1.5103
 3902TIP3   OH233120   0.455   4.538  12.044  0.1758  0.4286  0.2633
 3902TIP3    H133121   0.472   4.606  11.979  1.7182  0.5710  0.7782
 3902TIP3    H233122   0.538   4.492  12.054 -0.8077 -1.5060  0.0010
 3903TIP3   OH233123   5.716   4.921   0.939  0.1967  0.0222 -0.1413
 3903TIP3    H133124   5.664   4.904   0.860  0.2090 -0.4751 -0.0453
 3903TIP3    H233125   5.807   4.914   0.909  0.2383  1.7530 -0.5005
 3904TIP3   OH233126   5.918   5.433   1.452  0.1784  0.2864 -0.2619
 3904TIP3    H133127   5.840   5.461   1.404 -0.1452 -2.0960 -1.2245
 3904TIP3    H233128   5.991   5.466   1.400 -0.0958  2.4070  0.5720
 3905TIP3   OH233129   3.473   2.186  10.416 -0.5119 -1.0119 -0.4183
 3905TIP3    H133130   3.567   2.201  10.431 -0.5629 -1.4567  0.3969
 3905TIP3    H233131   3.445   2.134  10.490 -1.6913  0.1436 -0.0163
 3906TIP3   OH233132   2.205   2.820  12.068  0.0438 -0.4784 -0.4325
 3906TIP3    H133133   2.295   2.817  12.100 -0.2931 -2.5247  0.4485
 3906TIP3    H233134   2.211   2.865  11.983  1.6534  0.6725  0.2406
 3907TIP3   OH233135   0.522   0.526  12.865  0.0813 -0.3774 -0.5765
 3907TIP3    H133136   0.428   0.539  12.854  0.5395  2.1378 -2.3461
 3907TIP3    H233137   0.536   0.538  12.959 -1.0739  1.9655 -0.6308
 3908TIP3   OH233138   5.865   1.918   1.899 -0.3555 -0.0431 -0.6183
 3908TIP3    H133139   5.890   1.900   1.808  1.0559 -0.6357 -0.1503
 3908TIP3    H233140   5.775   1.886   1.906  0.7565 -3.7328 -0.8353
 3909TIP3   OH233141   3.938   3.467  15.447 -0.1601 -0.1161 -0.2616
 3909TIP3    H133142   3.913   3.519  15.371  0.9931 -0.8805 -1.1904
 3909TIP3    H233143   3.894   3.383  15.433  0.6331 -0.5048 -0.4709
 3910TIP3   OH233144   1.699   0.032  16.278  0.1372 -0.1275  0.2614
 3910TIP3    H133145   1.759   0.058  16.208 -1.2086 -1.3901 -1.4925
 3910TIP3    H233146   1.690   0.109  16.333  0.6469  1.2120 -1.4477
 3911TIP3   OH233147   2.086   2.599  13.692 -0.0549  0.2947 -0.4066
 3911TIP3    H133148   2.035   2.646  13.758 -0.1881 -0.5915  0.1311
 3911TIP3    H233149   2.093   2.661  13.619 -3.3218 -0.1034 -1.2036
 3912TIP3   OH233150   1.837   1.039   4.158  0.3678 -0.2099 -0.2274
 3912TIP3    H133151   1.877   1.114   4.115  0.7690 -0.6453 -0.6153
 3912TIP3    H233152   1.825   0.974   4.089 -0.1226 -0.4514  0.0744
 3913TIP3   OH233153   2.368   2.916   3.214 -0.7583 -0.4353  0.2589
 3913TIP3    H133154   2.303   2.850   3.236 -1.1395 -0.1138  0.0985
 3913TIP3    H233155   2.401   2.890   3.128 -0.2398 -0.9312  0.5953
 3914TIP3   OH233156   2.228   3.178   3.114 -0.0795  0.2737  0.2979
 3914TIP3    H133157   2.262   3.108   3.169  1.3136  1.0310  0.4281
 3914TIP3    H233158   2.172   3.133   3.050 -0.4946 -0.7664  1.3603
 3915TIP3   OH233159   4.844   6.470   1.184 -0.3289 -0.9410  0.0035
 3915TIP3    H133160   4.806   6.406   1.124 -1.4311  0.8905 -1.3978
 3915TIP3    H233161   4.938   6.450   1.185 -0.2695 -1.1183 -2.3315
 3916TIP3   OH233162   3.247   2.414  11.282 -0.4464 -0.4909  0.2274
 3916TIP3    H133163   3.161   2.400  11.242 -1.0798  1.3398  0.8273
 3916TIP3    H233164   3.284   2.489  11.235  0.5317 -0.8466  0.4152
 3917TIP3   OH233165   6.441   3.789  13.478  0.1385 -0.0987 -0.3236
 3917TIP3    H133166   6.528   3.803  13.440  0.4578 -1.5139 -0.1915
 3917TIP3    H233167   6.446   3.826  13.565  0.0005  1.4948 -0.9611
 3918TIP3   OH233168   0.085   1.338  14.176  0.3168  0.2582 -0.2658
 3918TIP3    H133169   0.042   1.336  14.262  0.6865  1.4024 -0.0404
 3918TIP3    H233170   0.054   1.419  14.136 -0.2943 -0.5389 -1.4634
 3919TIP3   OH233171   0.080   6.297  13.528 -0.1965 -0.3163  0.4610
 3919TIP3    H133172  -0.009   6.263  13.536 -0.3054 -0.2725 -0.4323
 3919TIP3    H233173   0.077   6.352  13.449  0.4631  0.1877  0.7818
 3920TIP3   OH233174   3.303   0.083  10.878 -0.2582 -0.8388  0.2556
 3920TIP3    H133175   3.288   0.062  10.786  1.0570 -0.3042 -0.0947
 3920TIP3    H233176   3.215   0.094  10.914 -0.7829 -0.6210 -1.0345
 3921TIP3   OH233177   2.986   2.550   5.504 -0.1391  0.1434 -0.2300
 3921TIP3    H133178   2.944   2.636   5.503  1.4897  0.9776 -1.0558
 3921TIP3    H233179   2.923   2.491   5.463 -1.4296  0.8427  0.6993
 3922TIP3   OH233180   4.863   3.278  16.638 -0.3717 -0.5590  0.0346
 3922TIP3    H133181   4.876   3.187  16.611  0.3425  0.1358 -2.2571
 3922TIP3    H233182   4.804   3.314  16.572  0.2458  0.9048  0.2347
 3923TIP3   OH233183   0.411   0.196  13.767  0.1878 -0.0515 -0.3172
 3923TIP3    H133184   0.506   0.212  13.774  0.7812 -3.4645  1.3186
 3923TIP3    H233185   0.373   0.284  13.764  3.3888  1.4787 -1.5593
 3924TIP3   OH233186   2.200   5.553   2.058  0.1717 -1.0675 -0.3427
 3924TIP3    H133187   2.131   5.534   1.995 -0.1463 -1.5318  0.1310
 3924TIP3    H233188   2.208   5.648   2.058 -1.9360 -0.8074  1.1101
 3925TIP3   OH233189   0.488   2.191   0.250 -0.1633  0.0235 -0.1211
 3925TIP3    H133190   0.499   2.273   0.201 -0.2698  0.3180  0.3403
 3925TIP3    H233191   0.507   2.215   0.341 -0.1875 -0.4680  0.0148
 3926TIP3   OH233192   1.273   3.103   4.617  0.0375 -0.0682  0.7694
 3926TIP3    H133193   1.289   3.144   4.531 -1.3518  1.9750  1.3926
 3926TIP3    H233194   1.177   3.107   4.627  0.1767 -0.3267  2.3745
 3927TIP3   OH233195   5.228   5.722  13.244  0.2689 -0.6774 -0.0495
 3927TIP3    H133196   5.266   5.676  13.168  1.9466  1.4767 -0.6241
 3927TIP3    H233197   5.300   5.775  13.278 -1.5777  1.7465  0.3659
 3928TIP3   OH233198   4.746   5.152  15.432  0.5492  0.2402  0.5763
 3928TIP3    H133199   4.737   5.146  15.527 -0.2307 -0.9217  0.4462
 3928TIP3    H233200   4.744   5.061  15.403 -0.9419  0.6494 -0.7037
 3929TIP3   OH233201   0.611   4.992   5.484 -0.0199 -0.0919 -0.1410
 3929TIP3    H133202   0.608   4.900   5.511 -2.4480  0.1165  0.5155
 3929TIP3    H233203   0.630   4.989   5.390  0.5604 -1.2141 -0.0038
 3930TIP3   OH233204   1.981   2.688  11.339 -0.3775  0.3029 -0.0875
 3930TIP3    H133205   1.963   2.742  11.262 -2.2906  0.8471  0.6852
 3930TIP3    H233206   2.024   2.748  11.401 -0.4790  0.3625 -0.0728
 3931TIP3   OH233207   3.991   5.872  14.950  0.0435  0.1924  0.4874
 3931TIP3    H133208   4.028   5.917  15.027  1.1381 -0.5455  0.4277
 3931TIP3    H233209   4.038   5.911  14.876 -1.2670  1.1601  0.1227
 3932TIP3   OH233210   4.424   2.042  13.915  0.4547 -0.2524  0.2455
 3932TIP3    H133211   4.466   1.978  13.858 -0.5276 -1.2326  0.5792
 3932TIP3    H233212   4.435   2.125  13.870  0.5246 -0.8633 -0.9103
 3933TIP3   OH233213   1.425   4.504  12.400  0.1149  0.3093  0.5444
 3933TIP3    H133214   1.423   4.594  12.433 -0.2074  0.3245  0.4805
 3933TIP3    H233215   1.367   4.505  12.324  1.4109  0.4480 -0.4848
 3934TIP3   OH233216   0.509   6.358   6.391 -0.0167  0.2285  0.3495
 3934TIP3    H133217   0.526   6.269   6.422  2.1383  0.0062 -1.2221
 3934TIP3    H233218   0.428   6.384   6.434 -0.4997 -2.3510  1.1366
 3935TIP3   OH233219   2.647   5.126  16.585 -0.2799 -0.2857  0.7344
 3935TIP3    H133220   2.698   5.181  16.525  1.6537 -2.1122  0.5553
 3935TIP3    H233221   2.660   5.166  16.671  0.4531 -0.0201  0.5099
 3936TIP3   OH233222   6.734   5.411   2.567  0.1260 -0.0204  0.0489
 3936TIP3    H133223   6.709   5.481   2.508  0.3733  0.6811  0.7541
 3936TIP3    H233224   6.695   5.435   2.651  0.2549 -0.6959  0.3078
 3937TIP3   OH233225   5.733   1.217  16.009 -0.2005 -0.1323  0.1296
 3937TIP3    H133226   5.733   1.123  16.028 -2.9686 -0.2862 -0.2755
 3937TIP3    H233227   5.647   1.234  15.971  0.7874  2.3116 -1.2571
 3938TIP3   OH233228   4.571   5.182   5.694 -0.0323  0.2256 -0.0810
 3938TIP3    H133229   4.643   5.237   5.664 -1.0929  1.0287 -1.3005
 3938TIP3    H233230   4.507   5.244   5.730 -0.1332 -0.4686  0.9904
 3939TIP3   OH233231   1.460   1.432   0.819 -0.0339  0.3926 -0.1982
 3939TIP3    H133232   1.464   1.523   0.847  0.1581  0.4442 -0.3883
 3939TIP3    H233233   1.389   1.394   0.870 -0.7239  0.8772 -0.7798
 3940TIP3   OH233234   5.680   1.058  13.193  0.2656 -1.0555 -0.4994
 3940TIP3    H133235   5.746   1.049  13.262 -0.6629  0.5301  0.6907
 3940TIP3    H233236   5.597   1.036  13.236 -1.0979  4.6702  0.5952
 3941TIP3   OH233237   4.398   2.824   4.967  0.4882 -0.6439  0.9876
 3941TIP3    H133238   4.383   2.850   5.058 -0.6598  0.7252  0.4444
 3941TIP3    H233239   4.323   2.860   4.919  0.5512 -2.1864 -0.3604
 3942TIP3   OH233240   5.833   3.780   1.195 -0.1127  0.3425  0.6995
 3942TIP3    H133241   5.884   3.827   1.262  0.5579 -1.0693  1.2253
 3942TIP3    H233242   5.819   3.845   1.126  1.1994  1.1820  1.1734
 3943TIP3   OH233243   4.590   5.452  13.783  0.1704 -0.6368  0.6872
 3943TIP3    H133244   4.504   5.433  13.821 -0.1724  0.6309  0.5953
 3943TIP3    H233245   4.581   5.540  13.748  1.4797 -0.5404  0.5666
 3944TIP3   OH233246   2.987   3.120  14.595 -0.0507 -1.0400  0.5910
 3944TIP3    H133247   3.074   3.102  14.630  0.4866  1.1612  0.5009
 3944TIP3    H233248   2.981   3.215  14.592 -2.3092 -1.1388  0.1754
 3945TIP3   OH233249   5.059   3.155  15.946  0.7695 -0.0505  0.4706
 3945TIP3    H133250   5.105   3.196  15.872 -0.5557 -0.4021 -0.6007
 3945TIP3    H233251   5.075   3.213  16.020  0.5511  1.3778 -0.5573
 3946TIP3   OH233252   2.775   0.653  14.418  0.0692 -0.6534 -0.2211
 3946TIP3    H133253   2.699   0.673  14.365 -0.0314 -1.5219 -0.4200
 3946TIP3    H233254   2.850   0.681  14.365 -0.1111  0.7175  0.2067
 3947TIP3   OH233255   0.046   2.559   1.290  0.5032  0.2793 -0.7090
 3947TIP3    H133256   0.136   2.577   1.262  0.2854  0.1040 -1.5497
 3947TIP3    H233257   0.054   2.532   1.382  1.2171  1.0839 -0.5176
 3948TIP3   OH233258   1.283   2.116  14.410 -0.2484  0.0539  0.7240
 3948TIP3    H133259   1.350   2.166  14.363  0.1317  0.1367  1.3423
 3948TIP3    H233260   1.223   2.183  14.443 -0.7661 -0.0334 -0.0074
 3949TIP3   OH233261   3.638   2.110  13.024 -0.0401 -0.6433  0.1528
 3949TIP3    H133262   3.691   2.188  13.040 -0.2243 -0.4158 -0.3095
 3949TIP3    H233263   3.605   2.122  12.935 -0.2835 -1.1255  0.1754
 3950TIP3   OH233264   1.343   6.325  12.918  0.7707  0.1594 -0.3510
 3950TIP3    H133265   1.425   6.322  12.967  0.5087  0.0160  0.0884
 3950TIP3    H233266   1.298   6.244  12.941  1.2020 -0.5456 -1.8470
 3951TIP3   OH233267   1.917   2.101   3.513  0.2105 -0.2626  0.7373
 3951TIP3    H133268   1.936   2.117   3.605  0.7747  0.6374  0.4743
 3951TIP3    H233269   1.946   2.180   3.468 -0.5533 -0.4681 -0.1530
 3952TIP3   OH233270   4.482   5.499  12.213 -0.2008  0.0728 -0.0096
 3952TIP3    H133271   4.389   5.511  12.234 -0.1092 -1.4525  1.4487
 3952TIP3    H233272   4.507   5.581  12.169 -2.5498 -0.0529 -1.7552
 3953TIP3   OH233273   1.893   1.251   3.597 -0.1954 -1.0010 -0.2248
 3953TIP3    H133274   1.919   1.265   3.506  0.2492  3.5787  0.3484
 3953TIP3    H233275   1.976   1.254   3.646 -0.6749  1.1036  0.5854
 3954TIP3   OH233276   0.778   3.636   3.669 -0.4191  0.3054 -0.4738
 3954TIP3    H133277   0.696   3.656   3.713  0.5330  0.3548  1.3620
 3954TIP3    H233278   0.846   3.657   3.733  1.0316  0.1666 -1.9005
 3955TIP3   OH233279   5.266   0.965  16.745 -0.1558 -0.2043 -0.1824
 3955TIP3    H133280   5.243   1.021  16.819 -0.7158  1.2226 -1.3861
 3955TIP3    H233281   5.184   0.923  16.719  0.1186 -1.0210  0.2526
 3956TIP3   OH233282   3.428   3.590  12.532  0.0108  0.3839  0.1871
 3956TIP3    H133283   3.499   3.571  12.470  2.4082 -0.7284  3.0687
 3956TIP3    H233284   3.450   3.676  12.568 -0.8655  0.6161  0.1982
 3957TIP3   OH233285   4.757   0.552   4.737  0.4126  0.4061  0.4464
 3957TIP3    H133286   4.774   0.464   4.706  0.4978  1.2963 -2.2906
 3957TIP3    H233287   4.841   0.584   4.770  0.5689 -0.2333  0.6703
 3958TIP3   OH233288   4.545   0.238  11.072  0.5482 -0.1772  0.0533
 3958TIP3    H133289   4.480   0.182  11.115 -1.0319  1.1274 -0.5227
 3958TIP3    H233290   4.550   0.316  11.128  1.0746  0.0631 -0.3165
 3959TIP3   OH233291   1.086   5.817  14.809 -0.5374 -0.1389  0.7498
 3959TIP3    H133292   1.018   5.877  14.778  1.1716  1.7268  0.3831
 3959TIP3    H233293   1.120   5.776  14.730 -0.1366  0.1656  0.7641
 3960TIP3   OH233294   5.978   5.050   2.713  0.5571  0.0400  0.2701
 3960TIP3    H133295   5.951   5.042   2.622  0.1441  3.1132  0.0348
 3960TIP3    H233296   6.047   4.985   2.723  0.2854 -0.6970 -2.0766
 3961TIP3   OH233297   2.820   2.542  17.255 -0.3499 -0.1742  0.6291
 3961TIP3    H133298   2.792   2.608  17.192 -2.0099  0.1505  1.6578
 3961TIP3    H233299   2.901   2.506  17.218 -0.3794  1.1752 -0.8238
 3962TIP3   OH233300   0.750   3.138  12.025  0.0306  0.1011  0.5638
 3962TIP3    H133301   0.768   3.073  12.093 -0.9538  0.7123  1.4384
 3962TIP3    H233302   0.726   3.086  11.948 -0.2347 -0.5807  1.0953
 3963TIP3   OH233303   1.566   0.200  16.521  0.3198  0.2251 -0.3604
 3963TIP3    H133304   1.580   0.295  16.524  1.1526  0.1018  2.2223
 3963TIP3    H233305   1.498   0.188  16.455 -0.8163  2.7716  0.2144
 3964TIP3   OH233306   4.699   6.187   1.813 -0.5722  0.0065  0.1736
 3964TIP3    H133307   4.679   6.122   1.745 -1.0547 -0.2708  0.5776
 3964TIP3    H233308   4.743   6.137   1.882 -1.1508  0.0651  0.5880
 3965TIP3   OH233309   0.613   5.469   5.246  0.4936 -0.1061 -0.4446
 3965TIP3    H133310   0.547   5.461   5.177 -1.2028 -1.7950  1.2688
 3965TIP3    H233311   0.615   5.383   5.288  1.1345  0.9658  1.8753
 3966TIP3   OH233312   3.129   1.778   5.283 -0.3187 -0.1960  0.2442
 3966TIP3    H133313   3.130   1.705   5.345  0.8520 -0.5580 -0.1797
 3966TIP3    H233314   3.050   1.763   5.230  1.1205 -2.5605 -1.4299
 3967TIP3   OH233315   1.891   5.246   5.779 -0.0877  0.0728  1.0353
 3967TIP3    H133316   1.870   5.276   5.691  0.1063  1.1011  1.3281
 3967TIP3    H233317   1.806   5.222   5.817 -0.3789  1.1275  1.0961
 3968TIP3   OH233318   1.546   4.364  11.294  0.4600  0.3263 -0.0841
 3968TIP3    H133319   1.527   4.443  11.344 -0.0090 -0.7718  1.5379
 3968TIP3    H233320   1.462   4.317  11.291  0.9685 -0.6058 -0.1159
 3969TIP3   OH233321   3.383   1.726   3.859 -0.4205  0.1959  0.1589
 3969TIP3    H133322   3.385   1.667   3.935  1.1435 -1.2694 -0.9532
 3969TIP3    H233323   3.314   1.789   3.880 -0.1270 -0.2214  2.7400
 3970TIP3   OH233324   2.878   0.630   5.839  0.4601 -0.3824  1.0618
 3970TIP3    H133325   2.921   0.715   5.835  0.7553 -0.4692  2.1671
 3970TIP3    H233326   2.947   0.567   5.821 -0.0188 -0.3642 -1.1201
 3971TIP3   OH233327   4.739   1.880   3.237 -0.5471  0.0114  0.3464
 3971TIP3    H133328   4.756   1.959   3.287  0.1353 -0.2307  0.5052
 3971TIP3    H233329   4.793   1.812   3.278 -1.6522 -0.7150  0.6527
 3972TIP3   OH233330   3.982   3.493   3.915  0.5476 -0.3154 -0.1937
 3972TIP3    H133331   3.986   3.402   3.943 -0.9070  0.3187  2.4971
 3972TIP3    H233332   4.048   3.538   3.967  0.0073  0.4332 -0.1266
 3973TIP3   OH233333   4.758   0.773   3.086 -0.2085  0.3517 -0.2355
 3973TIP3    H133334   4.765   0.865   3.059 -0.3838  1.0996  2.0630
 3973TIP3    H233335   4.676   0.743   3.048 -0.8460  1.5691  0.1296
 3974TIP3   OH233336   1.571   3.876   3.562 -0.0973 -0.2157  1.0681
 3974TIP3    H133337   1.478   3.891   3.542 -0.1126  0.2674  1.4565
 3974TIP3    H233338   1.575   3.785   3.589 -0.1741 -0.7046 -0.5053
 3975TIP3   OH233339   5.951   1.891   5.920 -0.0415 -0.4897  0.1235
 3975TIP3    H133340   5.944   1.858   6.009 -2.3952 -2.9059 -0.8158
 3975TIP3    H233341   5.999   1.823   5.873 -1.3322 -0.6517 -1.0150
 3976TIP3   OH233342   0.069   0.534   4.957 -0.4908  0.2498 -0.6196
 3976TIP3    H133343   0.026   0.474   5.018  0.8721  0.5002  0.6740
 3976TIP3    H233344   0.024   0.522   4.874 -1.0089 -1.7069 -0.1056
 3977TIP3   OH233345   4.114   3.642   2.054 -0.1539 -0.1226 -0.0950
 3977TIP3    H133346   4.031   3.647   2.006 -0.0717  1.8342 -0.1106
 3977TIP3    H233347   4.119   3.551   2.084 -1.4010 -0.7596 -1.6642
 3978TIP3   OH233348   0.730   6.047  12.506 -0.1935 -0.1331 -0.1315
 3978TIP3    H133349   0.700   6.111  12.571  1.0875 -0.7107  1.0979
 3978TIP3    H233350   0.762   6.100  12.433 -1.9880  0.5238 -0.4714
 3979TIP3   OH233351   0.900   2.942  13.391  0.7292  0.6014  0.0559
 3979TIP3    H133352   0.886   2.909  13.303  1.6455 -0.0643  0.1441
 3979TIP3    H233353   0.820   2.919  13.439  0.8414 -0.3938 -0.2107
 3980TIP3   OH233354   4.557   3.419  13.158 -0.1505 -0.0124  0.0711
 3980TIP3    H133355   4.578   3.327  13.141 -1.3497  0.0275 -1.9484
 3980TIP3    H233356   4.641   3.464  13.154  0.6651 -1.1100  2.4336
 3981TIP3   OH233357   3.999   5.648   5.620  0.2116 -0.3926  0.0375
 3981TIP3    H133358   3.914   5.640   5.577  0.7125 -0.5040 -0.9608
 3981TIP3    H233359   3.988   5.719   5.683 -0.2010  0.6227 -1.1450
 3982TIP3   OH233360   3.102   3.305   0.222 -0.3109  0.1333  0.5322
 3982TIP3    H133361   3.084   3.378   0.162 -0.0385 -0.1460  0.1007
 3982TIP3    H233362   3.193   3.318   0.249 -1.0021  1.3831  2.4882
 3983TIP3   OH233363   1.865   1.697  10.514  0.1304  0.3771 -0.3804
 3983TIP3    H133364   1.788   1.649  10.482  1.1095 -0.9686 -0.8052
 3983TIP3    H233365   1.845   1.789  10.496 -0.9360 -0.0346 -1.4467
 3984TIP3   OH233366   3.264   2.157   2.145 -0.0213 -0.4795 -0.1896
 3984TIP3    H133367   3.207   2.083   2.120  1.4805 -1.3585 -1.1763
 3984TIP3    H233368   3.275   2.147   2.240 -1.4557 -0.3059  0.0203
 3985TIP3   OH233369   4.967   2.760  16.964  0.7643  0.1358  1.1214
 3985TIP3    H133370   4.923   2.833  16.920  0.3365 -0.0644  1.2051
 3985TIP3    H233371   4.987   2.793  17.052 -1.1895 -0.4588  1.8425
 3986TIP3   OH233372   1.156   3.386   1.933 -0.9272 -0.2715  0.1057
 3986TIP3    H133373   1.249   3.381   1.956 -0.8497 -1.3017 -0.3847
 3986TIP3    H233374   1.140   3.479   1.919  0.0893 -0.1042 -0.0360
 3987TIP3   OH233375   1.080   3.982   1.347  0.2407  0.1114 -0.4081
 3987TIP3    H133376   1.077   3.887   1.333  1.1450 -0.0176  0.2154
 3987TIP3    H233377   1.067   3.993   1.441 -2.1821  0.7655 -0.7584
 3988TIP3   OH233378   2.563   2.921  12.991  0.3407 -0.1765  0.1226
 3988TIP3    H133379   2.499   2.976  12.946  0.3661  0.3553  0.7133
 3988TIP3    H233380   2.590   2.857  12.926 -1.5368 -1.0566  0.1311
 3989TIP3   OH233381   3.252   5.930   4.312 -0.6528 -0.5296  0.5071
 3989TIP3    H133382   3.212   5.857   4.360 -2.0463 -0.3063 -0.2418
 3989TIP3    H233383   3.210   6.008   4.348  1.4267  0.0327  1.8894
 3990TIP3   OH233384   3.179   3.067   4.609  0.4981  0.2241 -0.2785
 3990TIP3    H133385   3.161   3.063   4.515  1.7520  2.2104 -0.6766
 3990TIP3    H233386   3.133   3.145   4.639 -0.1438 -0.5652  0.8435
 3991TIP3   OH233387   2.054   5.659   2.333 -0.8556 -0.0908 -0.4926
 3991TIP3    H133388   2.068   5.571   2.300  2.5682  0.2328 -0.2589
 3991TIP3    H233389   2.066   5.716   2.257  1.1881  0.3354  0.0889
 3992TIP3   OH233390   1.282   3.693  11.535 -0.2171 -0.3306 -0.2668
 3992TIP3    H133391   1.282   3.705  11.440  1.0859  1.8933 -0.0524
 3992TIP3    H233392   1.342   3.620  11.549 -0.2641 -0.5567 -1.1350
 3993TIP3   OH233393   2.095   5.173   4.139  0.1902 -0.0918  0.1171
 3993TIP3    H133394   2.163   5.232   4.169  2.5031 -2.1070 -0.8451
 3993TIP3    H233395   2.033   5.230   4.092  0.9203  1.8586  1.3863
 3994TIP3   OH233396   1.299   3.406  12.309 -0.3325 -0.1532 -0.7021
 3994TIP3    H133397   1.273   3.332  12.363 -0.5276  2.4250  3.1180
 3994TIP3    H233398   1.221   3.427  12.256 -1.2368 -0.9601  0.2776
 3995TIP3   OH233399   1.532   6.666   6.204  0.6094  0.2784 -0.3405
 3995TIP3    H133400   1.591   6.741   6.213 -2.0193  2.3923  0.7611
 3995TIP3    H233401   1.521   6.656   6.109  3.2528 -0.7284 -0.6221
 3996TIP3   OH233402   5.403   1.464   0.774 -0.0244  0.1450 -0.2640
 3996TIP3    H133403   5.314   1.494   0.755 -0.2020 -1.0920 -1.6256
 3996TIP3    H233404   5.411   1.381   0.726  1.8826  0.2404 -0.1991
 3997TIP3   OH233405   0.246   4.896  15.177 -0.2764 -0.3513 -0.1569
 3997TIP3    H133406   0.242   4.992  15.174 -2.2678 -0.3681  0.5688
 3997TIP3    H233407   0.236   4.869  15.086  1.9583  0.1015 -0.6069
 3998TIP3   OH233408   0.673   6.275  10.626 -0.3743  0.7378  0.0512
 3998TIP3    H133409   0.593   6.267  10.573 -1.3490 -0.2987  1.5902
 3998TIP3    H233410   0.743   6.245  10.568 -1.6318 -2.0124 -0.2019
 3999TIP3   OH233411   6.564   0.976   0.216 -0.0016 -0.1597 -0.4900
 3999TIP3    H133412   6.568   0.907   0.283 -2.2227 -2.1355 -2.2160
 3999TIP3    H233413   6.566   1.057   0.266 -1.6706 -1.5400  2.0637
 4000TIP3   OH233414   5.487   3.296  16.626  0.3551  0.2043  0.2124
 4000TIP3    H133415   5.401   3.267  16.597  0.8866 -0.7043 -0.4806
 4000TIP3    H233416   5.468   3.367  16.688 -0.8471  1.0624 -1.0850
 4001TIP3   OH233417   0.082   3.675   5.442  0.2893  0.0823 -0.5970
 4001TIP3    H133418   0.123   3.607   5.496  1.0372  1.1114  0.1808
 4001TIP3    H233419   0.148   3.695   5.376  0.8779  1.3432  0.3170
 4002TIP3   OH233420   5.007   0.709   2.339  0.3934  0.1079  0.1862
 4002TIP3    H133421   4.991   0.790   2.389 -0.5833 -0.1148  0.2580
 4002TIP3    H233422   5.032   0.740   2.252  0.1692  0.4909  0.2540
 4003TIP3   OH233423   3.785   4.158   5.892 -0.0596  0.3371 -0.3376
 4003TIP3    H133424   3.717   4.222   5.870 -1.8939 -1.4374 -0.0888
 4003TIP3    H233425   3.821   4.190   5.975 -1.5282  0.6437  0.2162
 4004TIP3   OH233426   4.461   2.280  15.228 -0.3157  0.8218 -0.2630
 4004TIP3    H133427   4.511   2.209  15.187 -0.4544  0.5169  0.0925
 4004TIP3    H233428   4.409   2.317  15.157 -0.5208  0.3266 -0.3749
 4005TIP3   OH233429   6.243   5.684  16.406 -0.1111  0.8338  0.1794
 4005TIP3    H133430   6.274   5.654  16.320  0.2897  0.8589  0.3130
 4005TIP3    H233431   6.226   5.777  16.395  0.0798  0.8672  0.1650
 4006TIP3   OH233432   1.983   4.479   6.295  0.3960 -0.2695 -0.7313
 4006TIP3    H133433   2.065   4.431   6.284 -0.6177 -1.8887 -1.4771
 4006TIP3    H233434   1.917   4.411   6.306 -0.9311  1.0034 -0.6170
 4007TIP3   OH233435   4.667   2.308  16.052 -0.5002  0.3832  0.4533
 4007TIP3    H133436   4.677   2.333  15.960  1.6010 -0.6552  0.3421
 4007TIP3    H233437   4.749   2.335  16.094  0.0955 -2.3435  1.2276
 4008TIP3   OH233438   5.218   0.801   0.453 -0.6753 -0.5707 -0.2071
 4008TIP3    H133439   5.306   0.765   0.460 -0.4855 -0.1770 -0.5046
 4008TIP3    H233440   5.176   0.779   0.536  0.8622  2.2830  1.4884
 4009TIP3   OH233441   0.375   5.860  13.298  0.5501  0.1273 -0.0035
 4009TIP3    H133442   0.319   5.908  13.237  1.1536 -0.7223 -1.2798
 4009TIP3    H233443   0.346   5.888  13.384 -1.3185  0.2950 -0.6376
 4010TIP3   OH233444   1.532   1.258   0.221  0.3338  0.4485 -0.7744
 4010TIP3    H133445   1.541   1.165   0.242  0.4036  0.6174 -0.0329
 4010TIP3    H233446   1.619   1.286   0.195  0.4087  0.4104 -0.5643
 4011TIP3   OH233447   0.616   5.706  17.215  0.0168 -0.5633 -0.3646
 4011TIP3    H133448   0.633   5.797  17.240  0.2274 -0.3039 -1.3734
 4011TIP3    H233449   0.605   5.660  17.297 -0.4351  0.4429  0.1633
 4012TIP3   OH233450   5.709   5.448  14.919 -0.2727 -0.0957 -0.0419
 4012TIP3    H133451   5.757   5.530  14.904 -0.9667  0.2682 -0.3153
 4012TIP3    H233452   5.750   5.385  14.860 -0.0690  0.1869 -0.2062
 4013TIP3   OH233453   6.105   2.075  16.617  0.7040  0.2237 -0.0134
 4013TIP3    H133454   6.111   2.106  16.526 -0.6629  0.2192 -0.1163
 4013TIP3    H233455   6.047   2.137  16.660  1.3572  0.2328  0.8747
 4014TIP3   OH233456   4.267   5.628  10.868  0.7233  0.1258  0.5020
 4014TIP3    H133457   4.231   5.716  10.873 -2.0083 -0.8523 -0.3382
 4014TIP3    H233458   4.265   5.606  10.775  1.0709 -0.9265  0.7259
 4015TIP3   OH233459   1.157   2.019  11.823  0.0413 -0.3674  0.1455
 4015TIP3    H133460   1.134   2.091  11.765 -1.6799 -0.8061  0.2014
 4015TIP3    H233461   1.230   1.974  11.780  1.1154  1.3642  0.1044
 4016TIP3   OH233462   5.304   4.424  12.219 -0.3790 -0.2343 -0.2118
 4016TIP3    H133463   5.304   4.403  12.312  1.4448  0.2390 -0.0769
 4016TIP3    H233464   5.317   4.519  12.215  0.3249 -0.3511 -0.9587
 4017TIP3   OH233465   4.602   0.656   5.280  0.7941  0.2417  0.0916
 4017TIP3    H133466   4.513   0.626   5.294  0.7307  0.8249  1.0260
 4017TIP3    H233467   4.593   0.742   5.238  0.8739  0.8124  1.2066
 4018TIP3   OH233468   4.153   0.971  15.308  0.1070  0.4759 -0.8648
 4018TIP3    H133469   4.095   1.017  15.247 -1.2738 -2.0735 -1.6131
 4018TIP3    H233470   4.107   0.975  15.392 -0.5019 -0.3158 -1.1456
 4019TIP3   OH233471   4.035   5.880   3.195  0.2094 -0.0918 -0.4124
 4019TIP3    H133472   3.996   5.927   3.121 -0.5875 -0.9399 -0.5526
 4019TIP3    H233473   3.960   5.842   3.241  0.5737  1.4550  1.5809
 4020TIP3   OH233474   1.734   6.405   5.337 -0.0981  0.0742 -0.5479
 4020TIP3    H133475   1.821   6.387   5.375  0.2543  1.7258 -0.4964
 4020TIP3    H233476   1.715   6.495   5.363 -0.2941  0.9698 -3.4497
 4021TIP3   OH233477   3.474   6.275   0.193 -0.7978  0.1729 -0.0267
 4021TIP3    H133478   3.495   6.197   0.244 -1.7544  0.1403  0.3216
 4021TIP3    H233479   3.518   6.261   0.109  2.6995  1.1881  1.4288
 4022TIP3   OH233480   5.436   3.874  17.059 -0.0294  0.3027 -0.0416
 4022TIP3    H133481   5.342   3.889  17.044  0.0588  0.1487 -0.7537
 4022TIP3    H233482   5.443   3.862  17.154 -0.7897 -0.0994 -0.0275
 4023TIP3   OH233483   5.963   5.013   5.400  0.0681 -0.4174 -0.5844
 4023TIP3    H133484   6.049   5.048   5.377  0.1993  0.8147  1.5493
 4023TIP3    H233485   5.919   5.085   5.444 -0.8521 -1.9782  1.1827
 4024TIP3   OH233486   4.035   4.525   0.021  0.7412 -0.3187  0.4175
 4024TIP3    H133487   4.009   4.599   0.075  1.9112 -0.4702  1.2192
 4024TIP3    H233488   4.121   4.500   0.053  1.6416 -0.2197 -1.7281
 4025TIP3   OH233489   5.445   0.333   6.103 -0.3844  0.1655 -0.1765
 4025TIP3    H133490   5.405   0.251   6.075 -1.6747  0.7097  0.0022
 4025TIP3    H233491   5.447   0.328   6.199  2.1695 -0.8331 -0.1973
 4026TIP3   OH233492   0.956   3.944   1.945  0.3772  0.3541 -0.8615
 4026TIP3    H133493   0.994   4.020   1.900 -1.3027  1.6743 -0.1323
 4026TIP3    H233494   0.874   3.976   1.982  0.8649 -1.0820  1.7604
 4027TIP3   OH233495   4.640   0.557   2.866 -0.2833 -0.0538  0.2874
 4027TIP3    H133496   4.564   0.590   2.819  0.7638 -0.3993 -1.7479
 4027TIP3    H233497   4.634   0.461   2.858 -1.6978 -0.3750  3.5695
 4028TIP3   OH233498   0.465   4.946  11.687  0.3709 -0.1279 -0.6028
 4028TIP3    H133499   0.430   5.002  11.617  0.7692  0.4334 -0.3658
 4028TIP3    H233500   0.538   4.996  11.723  0.3378 -0.5286  0.0419
 4029TIP3   OH233501   3.746   3.924   0.170  0.0833 -0.0880  0.1059
 4029TIP3    H133502   3.675   3.869   0.204  0.5525  0.4664  2.0745
 4029TIP3    H233503   3.823   3.868   0.171 -0.1689 -0.5390 -1.5822
 4030TIP3   OH233504   4.115   0.356  16.824 -0.2568  0.1692  0.4403
 4030TIP3    H133505   4.103   0.418  16.896  1.7627  0.0140  0.9480
 4030TIP3    H233506   4.160   0.407  16.756 -0.2535 -0.2503  0.1212
 4031TIP3   OH233507   5.589   4.816  16.307  0.2090 -0.2411 -0.1198
 4031TIP3    H133508   5.624   4.813  16.395  1.6244  0.0174 -0.6571
 4031TIP3    H233509   5.496   4.838  16.319  0.4054 -0.0901  1.2789
 4032TIP3   OH233510   1.672   5.651   4.168  0.3713 -0.0811  0.1092
 4032TIP3    H133511   1.635   5.604   4.243  0.7370 -0.8518 -0.1792
 4032TIP3    H233512   1.633   5.738   4.172 -0.9132 -0.6408  0.2308
 4033TIP3   OH233513   4.898   6.642  13.753  0.3761 -0.1599 -0.2949
 4033TIP3    H133514   4.905   6.554  13.790 -2.5452 -1.7784 -3.0776
 4033TIP3    H233515   4.858   6.694  13.823 -0.8560 -1.9244  0.3886
 4034TIP3   OH233516   1.324   5.927  12.323 -0.4693 -0.8851  0.0338
 4034TIP3    H133517   1.261   5.954  12.391 -0.2280  0.0651 -0.1025
 4034TIP3    H233518   1.282   5.952  12.241  0.8123  1.4880 -0.0006
 4035TIP3   OH233519   2.432   5.290  11.060 -0.0781  0.0590 -0.0616
 4035TIP3    H133520   2.362   5.354  11.046 -2.7883 -2.8408 -0.9345
 4035TIP3    H233521   2.484   5.326  11.131 -3.0490  1.9954  1.3088
 4036TIP3   OH233522   5.708   5.520  13.218  0.6759  0.8433  0.6045
 4036TIP3    H133523   5.746   5.553  13.136 -0.1580 -2.0907 -1.1123
 4036TIP3    H233524   5.761   5.444  13.240 -0.0393  0.7092  1.9600
 4037TIP3   OH233525   2.638   2.995  16.957  0.1246 -0.3328 -0.1051
 4037TIP3    H133526   2.560   3.030  16.915  0.0841 -1.7344 -1.2781
 4037TIP3    H233527   2.673   2.931  16.894  3.4120  1.7036 -0.6044
 4038TIP3   OH233528   0.229   4.530   3.251 -0.1835  0.1669  0.6451
 4038TIP3    H133529   0.218   4.467   3.180 -0.7990 -0.5520  1.3574
 4038TIP3    H233530   0.162   4.596   3.235  0.8350  0.9802 -0.4280
 4039TIP3   OH233531   5.314   6.544  11.995 -0.1761 -0.2630  0.4464
 4039TIP3    H133532   5.253   6.470  11.994  1.4569 -1.6802 -0.0175
 4039TIP3    H233533   5.330   6.561  12.087 -1.0870 -0.0055  0.5677
 4040TIP3   OH233534   0.230   6.727   3.021  0.9279 -0.1105 -0.2717
 4040TIP3    H133535   0.231   6.750   3.114  2.6399  2.3767 -0.8080
 4040TIP3    H233536   0.315   6.686   3.004  0.1235 -1.7641 -0.5353
 4041TIP3   OH233537   2.458   6.368   5.927 -0.3050  0.3180  0.1469
 4041TIP3    H133538   2.513   6.364   6.004 -1.8354 -1.7819  1.2275
 4041TIP3    H233539   2.375   6.405   5.958 -1.1563 -1.1256 -0.2812
 4042TIP3   OH233540   5.750   2.165  13.644  0.0966 -0.3919 -0.0739
 4042TIP3    H133541   5.828   2.120  13.677 -0.3133 -0.5546  0.6887
 4042TIP3    H233542   5.727   2.118  13.563  0.3352 -0.8335  0.1134
 4043TIP3   OH233543   4.803   5.217   1.172 -0.5042 -0.1063 -0.0521
 4043TIP3    H133544   4.835   5.301   1.205  1.0509  0.1565 -2.0543
 4043TIP3    H233545   4.783   5.167   1.251  0.1612  1.5388  1.2195
 4044TIP3   OH233546   2.498   2.846   2.464 -0.1326 -0.3718 -0.1192
 4044TIP3    H133547   2.470   2.817   2.550  1.1140 -1.1194  0.0556
 4044TIP3    H233548   2.477   2.940   2.462 -2.2128 -0.7797  0.1338
 4045TIP3   OH233549   5.539   1.612   3.762 -0.1753  0.7659  0.0259
 4045TIP3    H133550   5.577   1.525   3.774 -0.7936  0.2022 -1.8261
 4045TIP3    H233551   5.548   1.653   3.848 -0.0341 -1.1770  1.0111
 4046TIP3   OH233552   4.715   4.820  12.484  0.1992 -0.4257 -0.0912
 4046TIP3    H133553   4.687   4.897  12.533 -1.1034 -0.4351 -0.7764
 4046TIP3    H233554   4.697   4.746  12.543 -2.1309 -0.5113 -0.8191
 4047TIP3   OH233555   4.565   3.620  11.649  0.0453  0.6490 -0.5673
 4047TIP3    H133556   4.473   3.594  11.661  0.1273  1.0806  1.3516
 4047TIP3    H233557   4.596   3.638  11.738  1.9346  0.7314 -1.2087
 4048TIP3   OH233558   6.473   5.244   1.489 -0.3108  0.0957  0.3624
 4048TIP3    H133559   6.545   5.179   1.487 -0.8299 -0.5677  1.9805
 4048TIP3    H233560   6.498   5.305   1.558 -1.3379 -0.2068  1.0221
 4049TIP3   OH233561   6.040   3.232   2.933  0.2829  0.3752 -0.2459
 4049TIP3    H133562   5.994   3.212   3.015 -0.7225  1.9200 -0.3901
 4049TIP3    H233563   6.118   3.177   2.935 -1.2512 -1.9039  0.2925
 4050TIP3   OH233564   3.765   2.792  14.864 -0.1700  0.0924  0.3470
 4050TIP3    H133565   3.687   2.790  14.920  0.6009  1.0470  1.4999
 4050TIP3    H233566   3.742   2.737  14.790 -2.0415  0.5337  0.5375
 4051TIP3   OH233567   2.535   6.619  11.708 -0.3683  0.1981 -0.3558
 4051TIP3    H133568   2.491   6.548  11.756  0.4404 -0.3812 -0.4597
 4051TIP3    H233569   2.536   6.692  11.770 -0.0588 -0.2906  0.2280
 4052TIP3   OH233570   2.029   0.632  13.042  0.0089  0.5793  0.1206
 4052TIP3    H133571   1.968   0.701  13.015 -0.0305  0.2349 -0.7039
 4052TIP3    H233572   1.973   0.564  13.079 -0.3122 -0.4303 -2.0805
 4053TIP3   OH233573   2.491   2.446   1.545 -0.1862 -0.4360  0.0187
 4053TIP3    H133574   2.509   2.371   1.488  0.1804 -1.7022  1.7457
 4053TIP3    H233575   2.515   2.416   1.632 -0.7881  1.4428  0.8653
 4054TIP3   OH233576   6.114   4.687   2.936 -0.5980 -0.0888  0.3787
 4054TIP3    H133577   6.152   4.689   2.848  3.4516 -2.7398  1.7392
 4054TIP3    H233578   6.145   4.768   2.977  1.4264 -0.9192  0.6015
 4055TIP3   OH233579   6.062   2.851  12.980  0.3289 -0.1780  0.0269
 4055TIP3    H133580   6.058   2.766  12.936  0.3830 -0.1589 -0.0143
 4055TIP3    H233581   6.137   2.895  12.941 -0.7759  0.6347 -1.2893
 4056TIP3   OH233582   3.053   2.779   0.614 -0.3291  0.1605  0.5141
 4056TIP3    H133583   3.043   2.720   0.540 -0.3105 -1.6381  1.8636
 4056TIP3    H233584   2.974   2.833   0.613  0.0191  0.6706 -1.2111
 4057TIP3   OH233585   3.117   3.865   4.206 -0.6641  0.0952  0.7451
 4057TIP3    H133586   3.082   3.901   4.288  1.0839 -0.9811  2.0250
 4057TIP3    H233587   3.211   3.877   4.212 -0.5047  0.1849 -1.2411
 4058TIP3   OH233588   3.885   2.384   4.094  0.0056 -0.4619  0.3367
 4058TIP3    H133589   3.924   2.374   4.181 -2.5289  0.4826  1.7057
 4058TIP3    H233590   3.792   2.401   4.112 -0.5422  0.0738 -2.5668
 4059TIP3   OH233591   2.254   1.635  12.180  0.4992 -0.0929  0.5423
 4059TIP3    H133592   2.284   1.552  12.143  1.0264  0.7168 -0.8858
 4059TIP3    H233593   2.188   1.667  12.118  0.3021  0.5707  1.0827
 4060TIP3   OH233594   0.502   5.840   4.182 -0.5333 -0.0083 -0.3089
 4060TIP3    H133595   0.422   5.790   4.195 -0.4227 -0.1690 -0.2452
 4060TIP3    H233596   0.474   5.932   4.183 -0.6076 -0.0342  0.4998
 4061TIP3   OH233597   5.562   3.394   3.228  0.2557 -0.2287 -0.4602
 4061TIP3    H133598   5.644   3.432   3.194  0.3057  0.9395  0.8538
 4061TIP3    H233599   5.579   3.382   3.322  0.2849 -3.7685 -0.7844
 4062TIP3   OH233600   0.668   2.037  12.424  0.2589  0.4959  0.0991
 4062TIP3    H133601   0.713   2.096  12.364 -0.3850 -0.2020 -1.1164
 4062TIP3    H233602   0.738   1.987  12.466  0.6844  0.3843 -0.7296
 4063TIP3   OH233603   2.627   2.406  11.953  0.1695  0.1201  0.2214
 4063TIP3    H133604   2.566   2.370  12.016  0.2808 -2.8458 -1.1740
 4063TIP3    H233605   2.688   2.334  11.934  0.5831  1.0635 -2.6625
 4064TIP3   OH233606   3.085   5.517  16.054  0.2261  0.4650  0.1009
 4064TIP3    H133607   2.991   5.527  16.035 -0.4244 -3.0113  0.7275
 4064TIP3    H233608   3.098   5.567  16.135 -1.7544 -0.8975  1.3717
 4065TIP3   OH233609   3.092   1.267  13.218 -0.8565 -0.1164 -0.2625
 4065TIP3    H133610   3.055   1.179  13.220 -1.2079  0.0186 -0.7521
 4065TIP3    H233611   3.152   1.266  13.144  1.4599 -0.8491  1.4984
 4066TIP3   OH233612   1.490   4.115  16.321  0.1263 -0.1114 -0.0885
 4066TIP3    H133613   1.440   4.158  16.389 -0.0325  0.3362 -0.4816
 4066TIP3    H233614   1.514   4.030  16.358  0.3196  0.2556  0.6421
 4067TIP3   OH233615   5.825   6.729  14.832 -0.0578  0.0437 -0.3882
 4067TIP3    H133616   5.769   6.700  14.903  0.2217  0.7263  0.1273
 4067TIP3    H233617   5.869   6.650  14.801  2.2425  0.1188  2.3424
 4068TIP3   OH233618   2.632   0.315   2.666  0.1374 -0.3549  0.4887
 4068TIP3    H133619   2.674   0.252   2.725 -1.8369 -2.1310  0.1142
 4068TIP3    H233620   2.544   0.281   2.654 -0.4639  1.6021 -1.1224
 4069TIP3   OH233621   3.812   5.591   2.149  0.4202 -0.1903 -0.2765
 4069TIP3    H133622   3.812   5.552   2.236 -4.5178  0.6204  0.3990
 4069TIP3    H233623   3.865   5.670   2.158 -1.0693  0.6204  2.5134
 4070TIP3   OH233624   5.817   5.993   2.437 -0.0765  0.4804 -0.5252
 4070TIP3    H133625   5.804   5.901   2.461  0.1426  0.2012 -1.4366
 4070TIP3    H233626   5.911   6.007   2.446 -0.4283  1.5822  2.8670
 4071TIP3   OH233627   3.576   4.138  13.921 -0.5536 -0.0260 -0.2941
 4071TIP3    H133628   3.575   4.127  13.826 -1.4949  0.1393 -0.3120
 4071TIP3    H233629   3.666   4.118  13.946  0.0684  1.2228 -1.3739
 4072TIP3   OH233630   0.082   4.760   1.615  0.0234 -0.3146 -0.0967
 4072TIP3    H133631   0.123   4.684   1.573  2.2683  0.8598 -0.2066
 4072TIP3    H233632  -0.012   4.747   1.602  0.4110 -2.3452 -1.3445
 4073TIP3   OH233633   4.875   3.574   0.659  0.3537 -0.0215 -0.0888
 4073TIP3    H133634   4.949   3.571   0.599 -1.5902 -1.2487 -2.6017
 4073TIP3    H233635   4.819   3.643   0.624 -0.2083  0.1794  1.1496
 4074TIP3   OH233636   2.882   6.158   5.689  0.5972 -0.4372 -0.4839
 4074TIP3    H133637   2.850   6.199   5.608  1.4919  0.4224 -0.4209
 4074TIP3    H233638   2.807   6.108   5.721 -0.3546  0.6445 -0.9164
 4075TIP3   OH233639   5.215   4.065   1.409 -0.5080  0.2273 -0.0528
 4075TIP3    H133640   5.199   4.049   1.316 -0.3692  1.1104 -0.2390
 4075TIP3    H233641   5.139   4.114   1.439 -0.2371  0.5401  0.1357
 4076TIP3   OH233642   3.725   1.407  16.608  0.2340  0.4801  0.4995
 4076TIP3    H133643   3.796   1.345  16.593 -0.7459 -0.7474  0.6955
 4076TIP3    H233644   3.759   1.468  16.673  0.7139 -0.8536  1.5724
 4077TIP3   OH233645   3.301   6.061   1.374 -0.0925  0.0687 -0.1415
 4077TIP3    H133646   3.288   6.116   1.296  0.5272 -0.4691 -0.6311
 4077TIP3    H233647   3.231   5.995   1.368 -1.7283  1.5609  1.1779
 4078TIP3   OH233648   5.802   3.854  13.005  0.5416  0.1782 -0.7015
 4078TIP3    H133649   5.783   3.760  13.012  2.2254 -0.1306  0.3627
 4078TIP3    H233650   5.855   3.873  13.083 -0.4265  2.2021 -0.4705
 4079TIP3   OH233651   4.509   1.599  14.228 -0.1792  1.0949 -0.1039
 4079TIP3    H133652   4.603   1.600  14.210 -0.4659  2.0639 -1.8558
 4079TIP3    H233653   4.496   1.526  14.288  1.5271  0.1780 -0.7823
 4080TIP3   OH233654   6.579   6.591   3.906 -0.2840  0.3957 -0.1367
 4080TIP3    H133655   6.622   6.510   3.879  0.2886  0.7238 -0.2325
 4080TIP3    H233656   6.486   6.573   3.898 -0.1763  0.5910 -2.7097
 4081TIP3   OH233657   6.713   5.898   2.540  0.3376  0.9700  0.0164
 4081TIP3    H133658   6.795   5.850   2.527  0.9489  1.1327  2.6151
 4081TIP3    H233659   6.721   5.934   2.628 -2.4556  1.1881  0.2537
 4082TIP3   OH233660   4.975   2.926   5.993 -0.1709 -0.3307  0.3670
 4082TIP3    H133661   4.924   2.937   6.074  0.8177 -0.4936  1.0276
 4082TIP3    H233662   4.909   2.918   5.924 -1.0197  0.7850  1.0232
 4083TIP3   OH233663   5.525   3.402  11.899  0.5995  0.3374 -0.3634
 4083TIP3    H133664   5.610   3.365  11.922 -0.3471 -2.6600 -1.2344
 4083TIP3    H233665   5.512   3.377  11.807 -2.1546 -1.4266  0.3721
 4084TIP3   OH233666   4.873   0.374  11.218  0.1094  0.0850  0.6306
 4084TIP3    H133667   4.939   0.323  11.171 -0.2207 -0.4495  0.7436
 4084TIP3    H233668   4.869   0.457  11.171  0.0329 -0.3130 -0.0727
 4085TIP3   OH233669   2.707   5.127  15.411 -0.0891 -0.0615 -0.3144
 4085TIP3    H133670   2.788   5.075  15.414  1.4791  2.1855 -0.7743
 4085TIP3    H233671   2.702   5.168  15.497  0.4230  1.3708 -0.9292
 4086TIP3   OH233672   6.067   6.191  11.353 -0.8775 -0.6858 -0.3166
 4086TIP3    H133673   6.006   6.199  11.427 -1.5767 -0.1638 -0.9367
 4086TIP3    H233674   6.152   6.216  11.390 -1.2724 -0.1195  0.2384
 4087TIP3   OH233675   3.748   6.215  11.877  0.5528 -0.5092 -0.2974
 4087TIP3    H133676   3.727   6.161  11.800  1.2581  0.2543 -1.0474
 4087TIP3    H233677   3.761   6.151  11.947 -0.0056 -1.2303 -0.8271
 4088TIP3   OH233678   1.420   0.679   0.203  0.4226  0.6275 -0.6114
 4088TIP3    H133679   1.442   0.609   0.265 -0.6191  0.7141 -0.1069
 4088TIP3    H233680   1.405   0.634   0.120  0.1520  0.2980 -0.3879
 4089TIP3   OH233681   5.559   0.455   4.582 -0.6107  0.3652 -0.0539
 4089TIP3    H133682   5.641   0.500   4.561  0.0585 -0.5423  0.5470
 4089TIP3    H233683   5.571   0.423   4.671 -0.9436 -1.2123 -0.5463
 4090TIP3   OH233684   4.904   4.963  13.787  0.1899  0.0383  0.2173
 4090TIP3    H133685   4.938   4.880  13.818 -1.8756  0.3151  3.8458
 4090TIP3    H233686   4.835   4.939  13.726 -0.1324 -0.9522  0.9344
 4091TIP3   OH233687   5.054   5.425   3.733 -0.1046  0.0491 -0.3102
 4091TIP3    H133688   5.050   5.330   3.745  0.7762 -0.0209 -0.4938
 4091TIP3    H233689   5.136   5.451   3.776 -0.8748  0.8859  0.6957
 4092TIP3   OH233690   1.307   2.352  15.335  0.2339  0.0787 -0.0718
 4092TIP3    H133691   1.318   2.434  15.287 -4.3553  0.8483 -0.2230
 4092TIP3    H233692   1.338   2.372  15.423  1.5457  1.1130 -0.7251
 4093TIP3   OH233693   0.168   0.366  13.179 -0.0352  0.2902  0.6025
 4093TIP3    H133694   0.126   0.362  13.094 -1.7282  0.9327  1.3729
 4093TIP3    H233695   0.162   0.277  13.214  0.6376  0.0330  0.0811
 4094TIP3   OH233696   0.380   4.866   0.525 -0.2701  0.4409 -0.5666
 4094TIP3    H133697   0.349   4.871   0.435 -1.6238 -3.6334 -0.5267
 4094TIP3    H233698   0.459   4.812   0.520 -0.5861 -0.1701  0.6857
 4095TIP3   OH233699   0.131   3.745   4.154 -0.4584  0.2230  0.3786
 4095TIP3    H133700   0.181   3.708   4.228  1.0998  2.2039  0.3800
 4095TIP3    H233701   0.041   3.747   4.186  0.0537  0.2509  1.9302
 4096TIP3   OH233702   4.975   5.876   6.688  0.5246 -0.0899 -0.1565
 4096TIP3    H133703   4.909   5.898   6.623  0.8333 -2.4060 -1.3484
 4096TIP3    H233704   4.941   5.798   6.732  1.7746 -0.4234  0.2572
 4097TIP3   OH233705   0.717   1.640   5.886  0.7032  0.0087 -0.1217
 4097TIP3    H133706   0.790   1.691   5.851  0.5665 -0.2337 -0.7724
 4097TIP3    H233707   0.742   1.549   5.872  1.6033 -0.1857  2.3554
 4098TIP3   OH233708   6.291   2.825   3.795 -0.6097  0.0895 -0.3000
 4098TIP3    H133709   6.359   2.844   3.859  0.2594 -0.1997 -1.1231
 4098TIP3    H233710   6.222   2.782   3.846  0.4982 -1.0820  0.2718
 4099TIP3   OH233711   1.880   2.907   6.839  0.0620  0.1068  0.0770
 4099TIP3    H133712   1.798   2.870   6.869  0.5041 -0.0570  1.1301
 4099TIP3    H233713   1.930   2.833   6.806  0.5505 -0.1026  1.2550
 4100TIP3   OH233714   0.553   1.819  10.749  0.6935  0.2468  0.4178
 4100TIP3    H133715   0.517   1.743  10.703  1.8864 -1.0356  1.5188
 4100TIP3    H233716   0.578   1.786  10.835  3.1215  1.3937  0.2256
 4101TIP3   OH233717   1.887   0.428  11.804 -0.2305  0.2457 -0.0263
 4101TIP3    H133718   1.871   0.336  11.828 -0.6939  0.3804  0.2115
 4101TIP3    H233719   1.822   0.447  11.736  0.5221  0.1139 -0.7856
 4102TIP3   OH233720   5.937   0.490   0.199 -0.4123  0.1038 -0.2392
 4102TIP3    H133721   5.946   0.530   0.113  0.5674 -0.8450 -0.6027
 4102TIP3    H233722   5.851   0.449   0.197 -0.2282 -0.2723 -0.9389
 4103TIP3   OH233723   1.379   6.381  14.097  0.2299 -0.3960 -0.0919
 4103TIP3    H133724   1.381   6.416  14.186 -1.8214  0.4234 -0.3178
 4103TIP3    H233725   1.470   6.360  14.078  1.3669  2.9305  0.8494
 4104TIP3   OH233726   2.118   2.880   2.564  0.2038 -0.1202  0.0769
 4104TIP3    H133727   2.188   2.830   2.522  0.1639 -0.8351  0.8226
 4104TIP3    H233728   2.158   2.915   2.643  0.1536  0.8332 -0.3094
 4105TIP3   OH233729   4.471   1.587  12.159  0.3543 -0.5829 -0.2282
 4105TIP3    H133730   4.525   1.562  12.085 -1.8477 -0.4649 -1.9736
 4105TIP3    H233731   4.470   1.509  12.215  0.4789 -1.3881 -1.3198
 4106TIP3   OH233732   3.572   3.628   5.180 -0.3560 -0.5680  0.5125
 4106TIP3    H133733   3.512   3.555   5.198 -0.7536 -0.2076  0.6569
 4106TIP3    H233734   3.559   3.688   5.254  0.6733 -0.7965  0.8973
 4107TIP3   OH233735   0.921   0.641  13.219 -0.0618 -0.3229 -0.0536
 4107TIP3    H133736   0.944   0.603  13.304  2.4493  0.6078 -0.2167
 4107TIP3    H233737   0.903   0.733  13.239 -1.6027 -0.5571 -0.2739
 4108TIP3   OH233738   1.201   5.706   2.773 -0.2660 -0.3662  0.0933
 4108TIP3    H133739   1.251   5.684   2.852 -1.2201 -0.5034  0.6812
 4108TIP3    H233740   1.267   5.724   2.706  0.5582 -0.9073  0.7447
 4109TIP3   OH233741   2.709   1.441   1.734  0.1438 -0.3104 -0.2451
 4109TIP3    H133742   2.785   1.463   1.787  0.7610 -0.1813 -1.1559
 4109TIP3    H233743   2.706   1.509   1.667 -0.2912 -0.7729 -0.7077
 4110TIP3   OH233744   6.410   3.955   4.377  0.5104 -0.1017 -0.4194
 4110TIP3    H133745   6.356   3.951   4.299  1.5384 -0.7617 -1.1193
 4110TIP3    H233746   6.348   3.970   4.449 -0.2271  3.2962 -1.6051
 4111TIP3   OH233747   1.134   2.824  12.613 -0.2632 -0.0766 -0.0099
 4111TIP3    H133748   1.100   2.774  12.539  0.5134 -3.9810  1.9951
 4111TIP3    H233749   1.065   2.818  12.679  0.0800  1.1256  0.4757
 4112TIP3   OH233750   0.883   4.971   3.520  0.3252 -0.2012 -0.1927
 4112TIP3    H133751   0.823   4.977   3.446  0.9653  1.0603 -0.6321
 4112TIP3    H233752   0.963   5.012   3.489  1.2935 -1.4639  0.5362
 4113TIP3   OH233753   5.411   1.917  10.397 -0.1815  0.0413 -0.4394
 4113TIP3    H133754   5.455   1.969  10.464  1.8957 -0.9337 -0.9740
 4113TIP3    H233755   5.478   1.900  10.332 -1.8041 -0.1680 -2.1354
 4114TIP3   OH233756   4.513   1.474   0.299 -0.5283  0.6489  0.2028
 4114TIP3    H133757   4.506   1.568   0.316  1.5153  0.8440  0.2816
 4114TIP3    H233758   4.598   1.449   0.336 -0.4899 -0.9953 -0.8609
 4115TIP3   OH233759   3.335   6.748  13.260  0.4457 -0.3039  0.3905
 4115TIP3    H133760   3.290   6.830  13.278  0.3064 -0.0837 -0.8484
 4115TIP3    H233761   3.271   6.695  13.212  1.2158 -0.3010 -0.6753
 4116TIP3   OH233762   1.973   5.156   3.040  0.2621 -0.0928  0.1289
 4116TIP3    H133763   1.950   5.085   3.099  2.4134 -1.4959 -0.6025
 4116TIP3    H233764   2.065   5.142   3.020  0.3918  2.1101 -1.1614
 4117TIP3   OH233765   3.035   0.128  15.956  0.7596  0.7025 -0.0300
 4117TIP3    H133766   3.116   0.086  15.928  0.5779  1.6463 -2.1364
 4117TIP3    H233767   3.064   0.199  16.014  1.2707 -0.2689  0.9308
 4118TIP3   OH233768   1.877   0.619   4.155  0.4761  0.3205 -0.3504
 4118TIP3    H133769   1.812   0.641   4.222  0.8894 -0.7169  0.4094
 4118TIP3    H233770   1.948   0.681   4.169  0.9023 -0.3750  0.6996
 4119TIP3   OH233771   3.217   1.220  12.350 -0.0692  0.0493 -0.4801
 4119TIP3    H133772   3.252   1.153  12.291  0.6387 -0.5056  0.5354
 4119TIP3    H233773   3.293   1.253  12.397 -0.8769 -1.7089  2.3191
 4120TIP3   OH233774   0.981   2.812   2.166 -0.9559 -0.2454  0.0505
 4120TIP3    H133775   0.908   2.873   2.155 -0.6696  0.0776 -0.0825
 4120TIP3    H233776   0.966   2.773   2.252 -1.4065 -0.3478 -0.0734
 4121TIP3   OH233777   5.923   0.284  11.456 -0.2759 -0.5646  0.2796
 4121TIP3    H133778   5.966   0.367  11.436 -0.8271 -0.0205  1.2553
 4121TIP3    H233779   5.857   0.274  11.387  0.3382 -0.6097 -0.3079
 4122TIP3   OH233780   0.380   6.745  16.481 -0.0952 -0.0137  0.1012
 4122TIP3    H133781   0.418   6.771  16.565 -0.4724  0.2500  0.1963
 4122TIP3    H233782   0.288   6.771  16.488 -1.1093 -3.3433  1.0823
 4123TIP3   OH233783   4.482   4.550  16.140  0.6312  0.8870 -0.6713
 4123TIP3    H133784   4.504   4.512  16.055 -0.1653  0.5625 -0.7392
 4123TIP3    H233785   4.541   4.506  16.201 -1.0041 -1.3604 -0.5683
 4124TIP3   OH233786   1.187   4.898   5.678  0.1349  0.1982 -0.0995
 4124TIP3    H133787   1.272   4.854   5.687  0.6648  1.4028  1.3032
 4124TIP3    H233788   1.197   4.955   5.602  0.9098  0.9798  0.5689
 4125TIP3   OH233789   1.466   4.843   0.083  0.6416 -0.2076 -0.4135
 4125TIP3    H133790   1.458   4.937   0.068 -2.0620 -0.2929  0.0081
 4125TIP3    H233791   1.448   4.803  -0.001 -1.0313 -0.3756 -0.0023
 4126TIP3   OH233792   2.194   0.183  11.743  0.0460  0.1659 -0.0234
 4126TIP3    H133793   2.138   0.231  11.804 -0.6705  0.7708 -1.1182
 4126TIP3    H233794   2.183   0.091  11.767 -0.7181  0.3483  0.3381
 4127TIP3   OH233795   5.650   4.744   0.721  0.4438  0.0880  0.1501
 4127TIP3    H133796   5.643   4.685   0.795  0.3055  1.5375  1.3350
 4127TIP3    H233797   5.570   4.730   0.670  1.6847 -2.7740 -1.2269
 4128TIP3   OH233798   2.521   6.344   6.190  0.7722 -0.4496 -0.3439
 4128TIP3    H133799   2.458   6.374   6.256  0.8394  1.3093 -1.0240
 4128TIP3    H233800   2.569   6.273   6.234 -0.3263 -0.4889  0.8754
 4129TIP3   OH233801   3.553   4.868   1.219 -0.0847 -0.1120 -0.1381
 4129TIP3    H133802   3.475   4.910   1.181  0.4683  0.9572 -0.1382
 4129TIP3    H233803   3.604   4.941   1.254  0.9889 -0.7829 -0.2624
 4130TIP3   OH233804   3.063   4.693   5.016 -0.7830  0.3623 -0.0473
 4130TIP3    H133805   3.041   4.660   4.929 -2.8541 -0.1988  0.6261
 4130TIP3    H233806   2.991   4.663   5.072  0.2417  1.1210  1.7740
 4131TIP3   OH233807   1.944   0.825  14.866  0.7543 -0.2851 -0.2370
 4131TIP3    H133808   1.877   0.772  14.908  2.0208  0.2518  2.7164
 4131TIP3    H233809   1.910   0.843  14.778 -2.1628 -1.3868  0.5768
 4132TIP3   OH233810   0.384   3.895   2.189  0.6799  0.3439 -0.5692
 4132TIP3    H133811   0.413   3.873   2.100  0.4001 -1.8450 -0.1904
 4132TIP3    H233812   0.322   3.825   2.211 -1.7233  2.5754  0.2006
 4133TIP3   OH233813   2.795   6.350   0.007  0.6577  0.2978  0.5697
 4133TIP3    H133814   2.877   6.343  -0.042  0.4771 -0.5660  0.3745
 4133TIP3    H233815   2.736   6.288  -0.037 -0.6056  2.0143 -0.2752
 4134TIP3   OH233816   3.161   2.941  16.593 -0.5473  0.6760 -0.0276
 4134TIP3    H133817   3.081   2.933  16.542 -1.4778 -1.6294  1.6078
 4134TIP3    H233818   3.138   2.999  16.666  0.0916  2.0902 -0.9107
 4135TIP3   OH233819   6.728   3.337  16.473  0.0081  0.0485 -0.0965
 4135TIP3    H133820   6.683   3.419  16.450 -0.3616 -0.1352 -0.0411
 4135TIP3    H233821   6.794   3.363  16.536  1.9508  0.7886 -2.2919
 4136TIP3   OH233822   2.543   4.106  12.533  0.5643 -0.1490  0.0191
 4136TIP3    H133823   2.517   4.113  12.625 -1.9393 -1.0050 -0.5540
 4136TIP3    H233824   2.589   4.188  12.516  0.5026  0.3217  1.8474
 4137TIP3   OH233825   5.832   4.125  14.113 -0.1522 -0.4798  0.5782
 4137TIP3    H133826   5.782   4.193  14.158 -2.7916 -2.9103  1.6341
 4137TIP3    H233827   5.773   4.050  14.110  1.7996 -2.1207 -2.4264
 4138TIP3   OH233828   2.467   4.477  12.652  0.1590  0.7438 -0.8661
 4138TIP3    H133829   2.462   4.568  12.622 -0.5951  0.0533 -3.1080
 4138TIP3    H233830   2.425   4.427  12.581  3.0309 -1.6352 -1.0653
 4139TIP3   OH233831   4.966   1.296  17.155  0.0489  0.5636 -0.5624
 4139TIP3    H133832   5.030   1.254  17.098  0.2789  1.5698 -1.0643
 4139TIP3    H233833   4.900   1.228  17.171  0.4243  0.0070 -1.3368
 4140TIP3   OH233834   4.444   3.655  10.866  0.6170  0.4055  0.2060
 4140TIP3    H133835   4.526   3.672  10.821  0.4205 -0.6851 -0.6229
 4140TIP3    H233836   4.457   3.570  10.908  0.2662  0.7078  0.9335
 4141TIP3   OH233837   5.932   2.761   2.754 -0.4980 -0.4129 -0.6630
 4141TIP3    H133838   6.005   2.797   2.705 -0.2966 -0.5031 -0.4325
 4141TIP3    H233839   5.963   2.758   2.845 -2.1006  3.1047  0.1498
 4142TIP3   OH233840   5.508   5.222  12.570 -0.1458  0.5340  0.2632
 4142TIP3    H133841   5.470   5.134  12.565  0.8482  0.1457 -1.6370
 4142TIP3    H233842   5.592   5.209  12.614  0.5894  0.2740 -1.1724
 4143TIP3   OH233843   6.745   0.708  16.653  0.2003  0.1353 -0.3629
 4143TIP3    H133844   6.705   0.736  16.571  0.0454  0.5618 -0.1407
 4143TIP3    H233845   6.790   0.786  16.686 -0.6597  0.2721  0.5146
 4144TIP3   OH233846   1.675   6.552  16.034  0.6157  0.1238 -0.0002
 4144TIP3    H133847   1.683   6.643  16.064  1.8322  0.3065 -0.8143
 4144TIP3    H233848   1.718   6.551  15.949  1.5398 -1.4283  0.4348
 4145TIP3   OH233849   3.047   4.930  12.767 -0.2125 -0.0278  0.2856
 4145TIP3    H133850   3.056   4.889  12.681  0.0242  0.5659  0.0231
 4145TIP3    H233851   3.085   4.867  12.827  2.1386  0.6731 -0.3520
 4146TIP3   OH233852   1.947   2.049  12.663  0.7624  0.5162 -0.6407
 4146TIP3    H133853   2.033   2.068  12.701 -0.1135  1.6519  0.8637
 4146TIP3    H233854   1.920   1.967  12.704  1.5070 -0.3817 -1.8600
 4147TIP3   OH233855   1.884   2.985   0.802  0.1866  0.3206  0.1732
 4147TIP3    H133856   1.923   2.936   0.874  0.2356  0.5311  0.2929
 4147TIP3    H233857   1.908   2.936   0.724  0.5699  0.3648  0.2579
 4148TIP3   OH233858   4.875   1.469  11.019  0.2667 -0.8112  1.0637
 4148TIP3    H133859   4.896   1.560  11.041  0.0423 -0.7503  1.0271
 4148TIP3    H233860   4.782   1.461  11.037 -0.8882  0.3133 -3.3580
 4149TIP3   OH233861   1.669   4.828  12.168  0.2160 -0.1882 -0.1128
 4149TIP3    H133862   1.615   4.838  12.090 -0.7203  2.3382  0.7642
 4149TIP3    H233863   1.611   4.852  12.241  1.4327 -1.2198  1.2723
 4150TIP3   OH233864   5.863   2.480  14.420  0.1495  0.1701 -0.2816
 4150TIP3    H133865   5.822   2.510  14.502  0.5518 -1.8506  0.7535
 4150TIP3    H233866   5.798   2.498  14.353 -0.4346  1.3835  0.5748
 4151TIP3   OH233867   0.696   4.170   5.153  0.0086 -0.0122 -0.1659
 4151TIP3    H133868   0.643   4.227   5.097 -0.3945 -0.5789 -0.3697
 4151TIP3    H233869   0.714   4.223   5.231 -1.8049 -0.1730  0.4066
 4152TIP3   OH233870   0.166   5.779  16.773  0.0710 -0.1622  0.2608
 4152TIP3    H133871   0.085   5.735  16.747  1.0238 -1.9874  0.1586
 4152TIP3    H233872   0.217   5.786  16.692 -0.0431  1.1692  0.2816
 4153TIP3   OH233873   2.696   3.975   4.040  0.0385 -0.2649  0.8788
 4153TIP3    H133874   2.675   3.892   3.998  1.3993 -0.0198 -0.3491
 4153TIP3    H233875   2.670   4.042   3.976  1.3215  0.1523  0.7704
 4154TIP3   OH233876   0.642   3.999   3.402 -0.5757  0.1108 -0.0834
 4154TIP3    H133877   0.556   4.037   3.384 -1.0870 -0.4616  1.0195
 4154TIP3    H233878   0.627   3.940   3.477  0.4498 -1.2184 -0.8729
 4155TIP3   OH233879   3.761   0.972  13.174  0.2075 -0.2695  0.1566
 4155TIP3    H133880   3.850   0.954  13.205  0.4659  0.7045  0.0149
 4155TIP3    H233881   3.766   0.965  13.079 -0.2357 -1.7346  0.2166
 4156TIP3   OH233882   1.818   6.037  15.208 -0.3451  0.0906 -0.0812
 4156TIP3    H133883   1.794   5.945  15.197  1.3684 -0.0638 -4.2904
 4156TIP3    H233884   1.905   6.044  15.170 -0.2157  3.4165  0.4992
 4157TIP3   OH233885   0.749   6.650  14.462  0.6142  0.1695 -0.1232
 4157TIP3    H133886   0.816   6.603  14.511  0.1248 -1.3960 -0.8945
 4157TIP3    H233887   0.766   6.629  14.370 -0.3991  0.4440 -0.3914
 4158TIP3   OH233888   4.600   6.761  14.699 -0.4330  0.1409  0.3532
 4158TIP3    H133889   4.675   6.703  14.714  0.4608  1.0777 -0.3652
 4158TIP3    H233890   4.565   6.733  14.615  1.3374  1.9720 -1.0871
 4159TIP3   OH233891   5.548   2.334  15.535  0.4694 -0.0154 -0.1898
 4159TIP3    H133892   5.608   2.408  15.523 -0.8085  1.5456  2.2446
 4159TIP3    H233893   5.605   2.257  15.539  2.1029  1.1479 -0.2327
 4160TIP3   OH233894   2.788   5.774   3.638 -0.0825  0.0352 -0.0760
 4160TIP3    H133895   2.787   5.690   3.683 -1.5140  0.2280  0.2942
 4160TIP3    H233896   2.795   5.839   3.708 -1.4522  0.3050 -0.1708
 4161TIP3   OH233897   5.517   1.791   2.718 -0.1311 -0.6687  0.4055
 4161TIP3    H133898   5.511   1.758   2.628 -0.1777  0.1283  0.1136
 4161TIP3    H233899   5.494   1.715   2.773 -0.2888 -1.1063 -0.2550
 4162TIP3   OH233900   0.087   3.802   4.723  0.2926  0.0972 -0.0457
 4162TIP3    H133901   0.065   3.895   4.718  0.5461  0.3132  2.0104
 4162TIP3    H233902   0.059   3.767   4.638 -0.0380  1.9771 -0.7822
 4163TIP3   OH233903   5.549   5.130   5.418  0.4431  0.2456 -0.0125
 4163TIP3    H133904   5.610   5.099   5.352 -1.5891 -0.3667 -1.7296
 4163TIP3    H233905   5.551   5.225   5.412 -0.0980  0.1864 -1.3775
 4164TIP3   OH233906   1.995   6.337   2.839  0.6800  0.1537  0.1638
 4164TIP3    H133907   1.978   6.402   2.770  1.2448 -0.1194 -0.2438
 4164TIP3    H233908   2.039   6.387   2.908 -0.9648  0.6997  0.8950
 4165TIP3   OH233909   4.211   5.464   4.086 -0.3730 -0.1926 -0.8517
 4165TIP3    H133910   4.216   5.559   4.091 -2.8578 -0.0453  0.4523
 4165TIP3    H233911   4.207   5.444   3.993  4.8955  0.4714 -1.5582
 4166TIP3   OH233912   3.610   6.521   1.485 -0.8483  0.1842  0.3610
 4166TIP3    H133913   3.678   6.522   1.552 -1.1880  1.0869  0.7073
 4166TIP3    H233914   3.647   6.469   1.414 -0.2164 -0.2180  0.9709
 4167TIP3   OH233915   3.131   3.020  15.273  0.0379 -0.1499  0.2127
 4167TIP3    H133916   3.087   2.962  15.336  2.0178 -2.5581 -0.4624
 4167TIP3    H233917   3.096   3.107  15.292 -2.4409 -1.3877  1.8984
 4168TIP3   OH233918   6.375   1.758  12.873 -0.1192  0.6239 -0.4329
 4168TIP3    H133919   6.337   1.673  12.894  1.3304  0.2711  0.9907
 4168TIP3    H233920   6.315   1.822  12.911 -0.3682  0.1615 -0.0414
 4169TIP3   OH233921   3.061   3.195   2.281 -0.5327 -0.0694  0.1152
 4169TIP3    H133922   3.131   3.257   2.262 -1.3671  0.4991 -1.2417
 4169TIP3    H233923   2.983   3.250   2.292 -1.6006 -0.8977 -2.6209
 4170TIP3   OH233924   3.156   2.971  15.567  0.1079 -0.2150 -0.2576
 4170TIP3    H133925   3.104   3.052  15.568 -0.0543 -0.3164  0.8732
 4170TIP3    H233926   3.092   2.901  15.556  0.0585 -0.2947  0.4750
 4171TIP3   OH233927   0.707   0.893  14.468 -0.5307 -1.1739 -0.8539
 4171TIP3    H133928   0.689   0.805  14.501  1.9654 -1.0872  1.0105
 4171TIP3    H233929   0.799   0.890  14.440 -0.3331  0.8560 -0.5819
 4172TIP3   OH233930   2.619   3.139   4.904  0.4904 -0.9442  0.3938
 4172TIP3    H133931   2.566   3.133   4.824  0.3025 -1.5309  0.5603
 4172TIP3    H233932   2.697   3.188   4.877  0.2084 -0.7203 -0.0309
 4173TIP3   OH233933   5.748   3.215  12.934 -0.3383 -0.3781 -0.2568
 4173TIP3    H133934   5.655   3.233  12.920 -0.7544 -1.6168  0.6870
 4173TIP3    H233935   5.762   3.128  12.896  0.6705  0.1666 -1.2027
 4174TIP3   OH233936   3.193   3.064  13.766  0.0083  0.4353 -0.0942
 4174TIP3    H133937   3.193   3.160  13.767  2.2815  0.5006  1.0994
 4174TIP3    H233938   3.215   3.042  13.675  2.2713  1.1919  0.1956
 4175TIP3   OH233939   2.329   3.883  12.545  0.2954 -0.2653  0.4883
 4175TIP3    H133940   2.257   3.943  12.525  1.7410  1.0456 -0.9424
 4175TIP3    H233941   2.341   3.892  12.640 -2.3205 -1.6334  1.0764
 4176TIP3   OH233942   2.479   0.619  11.125  0.7835  0.0314  0.2293
 4176TIP3    H133943   2.553   0.679  11.125 -0.6086  1.8302  1.1931
 4176TIP3    H233944   2.486   0.573  11.208 -0.0077  1.3167  1.0320
 4177TIP3   OH233945   6.755   4.969   5.415  0.0603  0.4500 -0.6192
 4177TIP3    H133946   6.687   5.035   5.405  0.4800  1.1568  0.8709
 4177TIP3    H233947   6.787   4.980   5.505  0.6042 -1.3428 -0.5363
 4178TIP3   OH233948   5.116   6.382  17.302 -0.2878  0.1453  0.2762
 4178TIP3    H133949   5.206   6.362  17.277 -0.4830  0.5831 -0.7920
 4178TIP3    H233950   5.095   6.463  17.257 -0.7497  0.8368  1.6608
 4179TIP3   OH233951   4.421   3.999   1.070  0.2174  0.4793 -0.3630
 4179TIP3    H133952   4.392   4.090   1.066  1.9060  1.0182 -2.2400
 4179TIP3    H233953   4.489   3.993   1.003  1.1499 -1.8187  0.6788
 4180TIP3   OH233954   0.556   5.484  12.993  0.0192  0.2003  0.6420
 4180TIP3    H133955   0.534   5.529  13.075  1.5460  0.4539  0.9368
 4180TIP3    H233956   0.488   5.512  12.932  0.0246  1.6696  1.2621
 4181TIP3   OH233957   3.288   3.032   0.154  0.4859  0.0771  0.7737
 4181TIP3    H133958   3.335   3.104   0.196  0.8118  0.9501 -0.9811
 4181TIP3    H233959   3.280   3.059   0.063  1.5461 -2.5744 -0.2050
 4182TIP3   OH233960   1.307   6.750   3.729  0.2451 -0.3390 -0.4506
 4182TIP3    H133961   1.386   6.799   3.752 -0.6439  0.2285  1.5863
 4182TIP3    H233962   1.312   6.670   3.781 -0.4208 -0.3848 -0.4424
 4183TIP3   OH233963   6.201   6.246   3.277 -0.0057 -0.5703  0.1288
 4183TIP3    H133964   6.275   6.221   3.331  0.2610 -1.3957 -0.6058
 4183TIP3    H233965   6.125   6.236   3.335  0.2551 -1.6001  0.3137
 4184TIP3   OH233966   5.566   0.502  16.360  0.3647 -0.2923  0.1997
 4184TIP3    H133967   5.662   0.505  16.364  0.4243 -1.2106 -0.2198
 4184TIP3    H233968   5.538   0.593  16.370  1.3235  0.1189 -0.6777
 4185TIP3   OH233969   5.805   3.398   4.503  0.1629  0.3165 -0.0437
 4185TIP3    H133970   5.809   3.479   4.554 -0.3898 -0.0554  0.6205
 4185TIP3    H233971   5.727   3.353   4.537  0.2389 -0.3056 -0.6783
 4186TIP3   OH233972   6.297   2.312  10.646 -0.3910 -0.4214  0.2116
 4186TIP3    H133973   6.237   2.361  10.702 -1.5098 -0.4695 -0.8923
 4186TIP3    H233974   6.258   2.224  10.640  1.0683 -1.1756  1.3784
 4187TIP3   OH233975   0.239   6.003   3.210  0.6723  0.1985  0.0129
 4187TIP3    H133976   0.292   6.035   3.137  0.3108  1.4281  0.2717
 4187TIP3    H233977   0.227   5.910   3.192  1.6842  0.2168 -0.8094
 4188TIP3   OH233978   4.685   3.914   5.661 -0.8932  0.5094 -0.7638
 4188TIP3    H133979   4.610   3.867   5.696 -0.3297 -1.0719 -1.5975
 4188TIP3    H233980   4.752   3.907   5.729 -1.6799  2.6168  0.3371
 4189TIP3   OH233981   6.369   4.238  13.300 -0.4463 -0.4302 -0.4386
 4189TIP3    H133982   6.348   4.253  13.208 -0.4672 -1.9960 -0.7210
 4189TIP3    H233983   6.342   4.318  13.345 -0.1206  0.4889 -1.8328
 4190TIP3   OH233984   5.894   1.918  12.252 -0.2895 -0.0683 -0.2286
 4190TIP3    H133985   5.804   1.919  12.219 -0.2064 -0.0218 -0.4525
 4190TIP3    H233986   5.943   1.972  12.191 -0.0757 -0.2285 -0.2005
 4191TIP3   OH233987   0.845   2.717   0.453 -0.3563 -0.0738  0.0133
 4191TIP3    H133988   0.857   2.701   0.359  0.0642 -1.9946  0.3659
 4191TIP3    H233989   0.759   2.759   0.459 -1.3616 -1.8564 -1.0609
 4192TIP3   OH233990   3.929   0.948  17.007  0.2247 -0.2870 -0.0363
 4192TIP3    H133991   3.930   0.951  17.102 -0.3154 -0.4500 -0.0213
 4192TIP3    H233992   3.890   0.863  16.986  1.3061 -0.7179 -0.4069
 4193TIP3   OH233993   1.222   0.967  10.474  0.1305  0.4476  0.5109
 4193TIP3    H133994   1.273   0.899  10.519 -0.9137  0.7407  2.2478
 4193TIP3    H233995   1.165   0.919  10.415 -0.4139 -0.1933  1.5269
 4194TIP3   OH233996   4.757   1.364   5.446  0.5751  0.0523 -0.3999
 4194TIP3    H133997   4.804   1.326   5.521  0.8211  0.6171 -0.2574
 4194TIP3    H233998   4.825   1.375   5.379  0.8014  1.4108  0.0081
 4195TIP3   OH233999   6.010   1.037  12.049 -0.3197  0.2278 -0.1575
 4195TIP3    H134000   6.043   0.977  12.116  1.4362  1.0188 -0.2548
 4195TIP3    H234001   5.915   1.036  12.061 -0.2510 -1.7346  0.5219
 4196TIP3   OH234002   6.517   0.266  12.556 -0.8124 -0.4166 -0.1388
 4196TIP3    H134003   6.533   0.318  12.634  0.2819 -0.0092 -0.6225
 4196TIP3    H234004   6.497   0.178  12.589  0.5707 -0.4791  0.5721
 4197TIP3   OH234005   4.757   4.897  15.638 -0.0657  0.1856  0.0593
 4197TIP3    H134006   4.705   4.962  15.685 -1.9289  0.5362 -2.2648
 4197TIP3    H234007   4.719   4.813  15.662  1.4513  0.0012  2.0027
 4198TIP3   OH234008   5.468   3.860  12.397  0.4675 -0.1128 -0.2673
 4198TIP3    H134009   5.512   3.844  12.481 -0.7040 -0.2776  0.3239
 4198TIP3    H234010   5.434   3.949  12.405  0.3432 -0.1333 -0.5654
 4199TIP3   OH234011   0.725   3.903   4.485 -0.0543  0.5289 -0.2670
 4199TIP3    H134012   0.785   3.905   4.560 -1.9020  1.5356  1.2779
 4199TIP3    H234013   0.638   3.911   4.524 -1.2211 -0.6886 -2.4311
 4200TIP3   OH234014   3.756   2.875   2.982  0.1676 -0.0592  0.3012
 4200TIP3    H134015   3.839   2.876   3.030 -0.8037  2.1176  2.0753
 4200TIP3    H234016   3.732   2.967   2.974 -1.0492 -0.5214 -2.1180
 4201TIP3   OH234017   4.116   4.008   4.517 -0.4771 -0.8064  0.1429
 4201TIP3    H134018   4.142   4.094   4.551  0.6392 -1.5314  1.1714
 4201TIP3    H234019   4.119   4.019   4.422 -1.2045  0.5267  0.2431
 4202TIP3   OH234020   6.109   3.848   2.623 -0.5861  0.4869 -0.0318
 4202TIP3    H134021   6.103   3.844   2.528  0.7260 -2.3285 -0.0857
 4202TIP3    H234022   6.050   3.779   2.653  0.1697  0.3204  1.1133
 4203TIP3   OH234023   3.643   2.602   4.571 -0.4200 -0.2023  0.0786
 4203TIP3    H134024   3.601   2.560   4.646 -1.6082  0.6501 -0.0756
 4203TIP3    H234025   3.719   2.547   4.552 -1.2610 -1.6158  0.6081
 4204TIP3   OH234026   6.287   3.850  11.080  0.1775 -0.2701 -0.2990
 4204TIP3    H134027   6.283   3.794  11.158  1.2337 -0.0051 -0.0384
 4204TIP3    H234028   6.343   3.802  11.019  0.4559  0.1492 -0.3747
 4205TIP3   OH234029   3.626   5.671  13.091  0.4559  0.0945  0.2018
 4205TIP3    H134030   3.665   5.718  13.018 -0.9330 -0.6083 -1.0349
 4205TIP3    H234031   3.614   5.738  13.159 -2.0405  1.7848 -1.7196
 4206TIP3   OH234032   2.123   2.338  12.969  0.8038 -0.0639 -0.2887
 4206TIP3    H134033   2.151   2.258  12.924  1.5491 -0.4482  0.8045
 4206TIP3    H234034   2.039   2.360  12.929  0.0350 -2.0107  0.1232
 4207TIP3   OH234035   1.800   0.328  15.839  0.3826  0.6269  0.2364
 4207TIP3    H134036   1.764   0.245  15.870  1.1209  0.6048  1.0766
 4207TIP3    H234037   1.725   0.388  15.838 -0.2191 -0.1209 -0.6854
 4208TIP3   OH234038   2.965   0.861   0.273 -0.5144 -0.7457 -0.5415
 4208TIP3    H134039   2.880   0.860   0.229 -0.9089 -0.9455  0.2158
 4208TIP3    H234040   3.004   0.777   0.251 -0.9345 -1.0625 -0.0842
 4209TIP3   OH234041   4.086   5.221  16.524 -0.2268 -0.1924  0.3392
 4209TIP3    H134042   4.025   5.248  16.593 -1.0972  0.9424 -0.8372
 4209TIP3    H234043   4.031   5.198  16.450  0.7015 -1.3993 -0.0066
 4210TIP3   OH234044   3.650   3.513  15.673  0.1839 -0.2043  0.1005
 4210TIP3    H134045   3.571   3.464  15.695 -0.2844  0.6772  0.4471
 4210TIP3    H234046   3.722   3.460  15.705 -0.4241  0.8546  3.6191
 4211TIP3   OH234047   1.859   0.054   4.547 -0.0021 -0.0209  0.2946
 4211TIP3    H134048   1.804   0.040   4.624 -0.6304  1.0421  0.0600
 4211TIP3    H234049   1.805   0.106   4.488  0.9147  0.2374 -0.3375
 4212TIP3   OH234050   0.782   0.928  12.936 -0.2864  0.5292  0.0408
 4212TIP3    H134051   0.777   0.989  12.862 -0.9972  1.0094  0.4766
 4212TIP3    H234052   0.807   0.845  12.896 -1.3587  0.6135 -0.8492
 4213TIP3   OH234053   6.445   6.622   3.047  0.1593  0.0563  0.5658
 4213TIP3    H134054   6.403   6.701   3.015 -1.1324 -0.9618 -0.3470
 4213TIP3    H234055   6.431   6.557   2.979  1.2477 -0.9635  1.2597
 4214TIP3   OH234056   2.095   2.613   0.138 -0.2532 -0.3641 -0.1519
 4214TIP3    H134057   2.177   2.662   0.142 -0.3832 -0.0277 -1.3659
 4214TIP3    H234058   2.052   2.632   0.222  0.5970 -0.0054  0.2157
 4215TIP3   OH234059   0.262   6.116  15.702  0.3359  0.0395 -0.5988
 4215TIP3    H134060   0.219   6.084  15.623  0.2402  0.2360 -0.6279
 4215TIP3    H234061   0.322   6.046  15.727 -0.0503 -0.2678 -0.5204
 4216TIP3   OH234062   1.420   1.580   3.121 -0.7931 -0.7787 -0.1856
 4216TIP3    H134063   1.376   1.665   3.126  0.9852  0.2368 -0.8292
 4216TIP3    H234064   1.510   1.598   3.149  0.2259 -1.9680 -2.4699
 4217TIP3   OH234065   5.757   1.849   2.975 -0.4069  0.4212  0.2684
 4217TIP3    H134066   5.672   1.806   2.971 -0.2654  0.1767 -0.2348
 4217TIP3    H234067   5.740   1.934   3.014 -0.6159 -0.2794  1.7602
 4218TIP3   OH234068   0.100   0.901   0.678 -0.2639  0.6735  0.2205
 4218TIP3    H134069   0.174   0.847   0.707 -2.0242 -1.6528  0.6585
 4218TIP3    H234070   0.117   0.914   0.584 -0.6255 -2.2623 -0.3491
 4219TIP3   OH234071   0.774   5.534   3.959  0.3628  0.4523  0.2861
 4219TIP3    H134072   0.695   5.481   3.959  0.5311  0.1967  0.2577
 4219TIP3    H234073   0.743   5.624   3.948 -0.0453  0.5645  2.0917
 4220TIP3   OH234074   2.647   6.227   0.297  0.1216 -0.3467 -0.1803
 4220TIP3    H134075   2.643   6.309   0.345 -0.5250 -1.0276  0.9729
 4220TIP3    H234076   2.713   6.175   0.342 -0.0162 -0.7460 -0.4246
 4221TIP3   OH234077   2.048   5.509   5.823  0.3103  0.0974  0.3283
 4221TIP3    H134078   2.032   5.416   5.840  1.7360  0.0428  1.6604
 4221TIP3    H234079   2.101   5.538   5.898  0.6446  1.7773 -0.5078
 4222TIP3   OH234080   6.465   3.838  12.478  0.7415 -0.6975 -0.1631
 4222TIP3    H134081   6.515   3.854  12.558  2.3098 -3.1533 -0.5605
 4222TIP3    H234082   6.387   3.792  12.507  0.3094  0.1783  0.1127
 4223TIP3   OH234083   2.426   5.442  11.614  0.0690  0.2453  0.0931
 4223TIP3    H134084   2.385   5.525  11.591  0.3149  0.2914 -0.1936
 4223TIP3    H234085   2.358   5.376  11.602  0.1546  0.2886 -0.6358
 4224TIP3   OH234086   3.318   3.873   5.160 -0.2331  0.0850 -0.2551
 4224TIP3    H134087   3.346   3.956   5.123  0.9168 -0.2650 -0.2070
 4224TIP3    H234088   3.389   3.847   5.219 -2.3374  1.0718  3.0313
 4225TIP3   OH234089   6.456   0.831  10.734  0.4249 -0.4215 -0.2910
 4225TIP3    H134090   6.396   0.822  10.661  2.4505 -1.5220 -1.9358
 4225TIP3    H234091   6.509   0.908  10.712 -0.1458  0.3790  1.0010
 4226TIP3   OH234092   0.250   0.541   1.687  0.0608 -0.3242  0.1504
 4226TIP3    H134093   0.289   0.566   1.771  0.8651 -0.1659 -0.2514
 4226TIP3    H234094   0.176   0.485   1.710 -0.4780  0.7020  1.0054
 4227TIP3   OH234095   3.350   0.322  13.425 -0.4458 -0.1390 -0.3286
 4227TIP3    H134096   3.291   0.260  13.382 -2.0314  1.4240 -0.5226
 4227TIP3    H234097   3.334   0.405  13.380  1.4381  0.4901  0.0836
 4228TIP3   OH234098   5.626   4.274   1.964 -0.2019  0.2844 -0.2396
 4228TIP3    H134099   5.635   4.190   1.920 -1.6981 -0.5265  0.9424
 4228TIP3    H234100   5.615   4.337   1.892 -1.7963 -0.8961 -1.0876
 4229TIP3   OH234101   5.297   1.104  11.861 -0.3653 -0.6346  0.3161
 4229TIP3    H134102   5.229   1.050  11.901  0.1217 -1.0389  0.6225
 4229TIP3    H234103   5.276   1.105  11.768 -1.1769 -0.1792  0.4999
 4230TIP3   OH234104   3.529   6.343   6.290  0.7690 -0.6589 -0.2707
 4230TIP3    H134105   3.578   6.407   6.342  3.3943 -3.3183  0.7896
 4230TIP3    H234106   3.489   6.286   6.355  0.1202 -1.2757 -1.1936
 4231TIP3   OH234107   5.729   0.499  10.885 -0.1364 -0.2206 -0.0639
 4231TIP3    H134108   5.801   0.533  10.937  0.7219  1.1180 -2.0123
 4231TIP3    H234109   5.762   0.497  10.796 -2.2494 -0.3207 -0.9106
 4232TIP3   OH234110   4.452   1.629   2.786  0.3179 -0.0756 -0.0087
 4232TIP3    H134111   4.448   1.536   2.765  0.7052 -0.0015 -0.4127
 4232TIP3    H234112   4.362   1.660   2.776  0.0606 -0.5443  0.7812
 4233TIP3   OH234113   6.728   1.361  17.073 -0.0726 -0.5246 -0.3368
 4233TIP3    H134114   6.780   1.376  16.994 -0.3500  0.1560 -0.4006
 4233TIP3    H234115   6.767   1.420  17.138  0.4589 -1.4297  0.1774
 4234TIP3   OH234116   2.257   6.639  16.397  0.2925 -0.2784  0.3212
 4234TIP3    H134117   2.282   6.730  16.377 -1.6396  0.1826 -0.1784
 4234TIP3    H234118   2.225   6.642  16.487  1.5259 -0.7717  0.7949
 4235TIP3   OH234119   3.846   0.162   1.990  0.2967  0.4504 -0.2718
 4235TIP3    H134120   3.783   0.196   1.927  1.0297 -2.2013 -2.5787
 4235TIP3    H234121   3.800   0.167   2.074 -0.3387  5.0702 -0.6123
 4236TIP3   OH234122   6.194   0.098  13.713  0.3478  0.1665  0.1065
 4236TIP3    H134123   6.112   0.139  13.741 -0.2017 -0.0107 -1.1524
 4236TIP3    H234124   6.237   0.165  13.660  0.2832 -0.2696 -0.5009
 4237TIP3   OH234125   5.478   1.505   4.756 -0.2569 -0.1247 -0.0567
 4237TIP3    H134126   5.474   1.554   4.673  1.9609  2.0901  1.0372
 4237TIP3    H234127   5.571   1.493   4.772 -0.6934 -2.4286  1.1215
 4238TIP3   OH234128   3.437   1.076   5.440  0.3144  0.3701  0.5636
 4238TIP3    H134129   3.439   1.160   5.487  1.2655 -0.1381  1.4891
 4238TIP3    H234130   3.483   1.016   5.498  0.1736 -0.6545 -0.3648
 4239TIP3   OH234131   2.840   3.644   1.651 -0.4123 -0.0585 -0.1159
 4239TIP3    H134132   2.870   3.706   1.718  0.9022 -1.3656  0.5798
 4239TIP3    H234133   2.746   3.635   1.667 -0.1499 -0.2368  1.5076
 4240TIP3   OH234134   2.704   4.253   4.639 -0.8075  0.0286  0.5308
 4240TIP3    H134135   2.715   4.174   4.586  1.5135  1.2672 -1.0026
 4240TIP3    H234136   2.637   4.304   4.594  1.9174  1.6006 -2.1630
 4241TIP3   OH234137   4.573   5.021   2.991 -0.7957 -0.2270 -0.5946
 4241TIP3    H134138   4.489   4.976   3.001 -0.9637  0.0510 -0.7380
 4241TIP3    H234139   4.627   4.960   2.942 -0.8830 -0.4461 -0.4213
 4242TIP3   OH234140   3.547   6.625  10.944 -0.1448 -0.0921 -0.4262
 4242TIP3    H134141   3.621   6.627  10.883 -0.7120  0.3215 -1.1186
 4242TIP3    H234142   3.558   6.702  10.999  0.8646 -0.9502  0.6164
 4243TIP3   OH234143   2.740   5.533   3.779 -0.2045 -0.2157 -0.3150
 4243TIP3    H134144   2.653   5.511   3.812 -0.7401  1.6161 -0.3877
 4243TIP3    H234145   2.800   5.485   3.837 -1.2377 -1.2131 -0.0344
 4244TIP3   OH234146   5.183   1.108  14.965 -0.1406  0.3959  0.1729
 4244TIP3    H134147   5.151   1.118  14.875  1.1013  1.1738 -0.2093
 4244TIP3    H234148   5.250   1.175  14.974  0.8759 -0.7107  1.1623
 4245TIP3   OH234149   1.975   5.992  17.026  0.1952  0.2139 -0.6132
 4245TIP3    H134150   2.042   5.969  16.962  3.2468 -1.8521  2.9390
 4245TIP3    H234151   2.011   6.067  17.073 -0.1413 -0.6117  1.0282
 4246TIP3   OH234152   1.348   5.131  11.131  0.1850 -0.0537 -0.5756
 4246TIP3    H134153   1.390   5.115  11.047 -1.8615 -2.7821 -1.2248
 4246TIP3    H234154   1.400   5.081  11.194  0.8784  0.8148 -0.4457
 4247TIP3   OH234155   1.225   0.529   1.221  0.2595 -0.1042 -0.1274
 4247TIP3    H134156   1.207   0.480   1.302  0.1175  0.5389  0.2379
 4247TIP3    H234157   1.284   0.472   1.171  1.2054 -0.0654  0.8938
 4248TIP3   OH234158   0.922   4.961  10.619 -0.3290  0.3535 -0.2021
 4248TIP3    H134159   0.902   5.029  10.683 -2.5645  0.2262 -0.6991
 4248TIP3    H234160   0.986   5.002  10.560  0.3649  1.0867  1.0198
 4249TIP3   OH234161   1.463   2.282  11.693 -0.5481 -0.0096  0.0529
 4249TIP3    H134162   1.508   2.365  11.676  1.4114 -1.3130 -1.5709
 4249TIP3    H234163   1.515   2.239  11.761 -0.1902 -0.8866 -0.7551
 4250TIP3   OH234164   2.675   3.011  12.651 -0.4706 -0.0181 -0.0395
 4250TIP3    H134165   2.616   2.936  12.642  0.4685 -1.0796  1.9910
 4250TIP3    H234166   2.622   3.086  12.623 -2.0385 -1.1969 -0.3896
 4251TIP3   OH234167   2.139   3.010  15.247 -0.5898  0.0668  0.1020
 4251TIP3    H134168   2.164   3.094  15.209 -0.0778  0.0214  0.3286
 4251TIP3    H234169   2.075   3.033  15.315 -1.8264  0.1062 -1.0527
 4252TIP3   OH234170   4.784   4.511  13.039  0.2169 -0.4747 -0.3494
 4252TIP3    H134171   4.797   4.604  13.019 -0.9262 -0.3320 -0.4542
 4252TIP3    H234172   4.744   4.474  12.961 -2.2512 -0.3666  0.7850
 4253TIP3   OH234173   0.406   2.142  15.594  0.5757  0.1974  0.3495
 4253TIP3    H134174   0.422   2.110  15.683  1.9634  0.7662  0.3260
 4253TIP3    H234175   0.408   2.062  15.540 -2.7512 -0.5204  1.0336
 4254TIP3   OH234176   6.737   2.558  12.511 -0.4546 -0.0658 -0.1086
 4254TIP3    H134177   6.808   2.585  12.453 -1.9199  0.5109 -1.7092
 4254TIP3    H234178   6.675   2.631  12.509 -1.1360 -0.5715  1.2215
 4255TIP3   OH234179   1.493   0.284   6.091  0.0214  0.0020 -0.0426
 4255TIP3    H134180   1.523   0.257   6.005 -0.8459 -0.2458 -0.2846
 4255TIP3    H234181   1.561   0.255   6.151  1.7521  2.2005 -0.8393
 4256TIP3   OH234182   1.857   1.180   4.654  0.0044  0.5662  0.3144
 4256TIP3    H134183   1.879   1.237   4.728  0.7357  1.7093 -0.7578
 4256TIP3    H234184   1.793   1.230   4.604 -2.1598 -1.0812  1.2550
 4257TIP3   OH234185   5.486   3.162   0.307 -0.3602 -0.0184  0.0202
 4257TIP3    H134186   5.432   3.160   0.227  0.1769 -0.2787 -0.3415
 4257TIP3    H234187   5.515   3.071   0.318  1.2150  0.3816 -0.6255
 4258TIP3   OH234188   4.301   4.837   0.281  0.1465 -0.4989  0.0921
 4258TIP3    H134189   4.250   4.916   0.298  0.0317  0.0035 -2.1687
 4258TIP3    H234190   4.311   4.795   0.366  0.3796  2.0410  1.4054
 4259TIP3   OH234191   0.068   1.654  15.486  0.2270  0.0237 -0.5541
 4259TIP3    H134192   0.085   1.580  15.544 -2.0797  1.2157  1.8516
 4259TIP3    H234193   0.086   1.731  15.539 -1.6862  1.1832 -1.4883
 4260TIP3   OH234194   4.589   5.712  10.740  0.5740  0.2172  0.2934
 4260TIP3    H134195   4.504   5.695  10.700  0.8403 -3.4157  0.9126
 4260TIP3    H234196   4.648   5.651  10.696  2.8680  2.4234  0.1012
 4261TIP3   OH234197   1.908   1.193   0.768  0.2536  0.0906 -0.5867
 4261TIP3    H134198   1.845   1.191   0.696  0.1694  1.7959 -0.6048
 4261TIP3    H234199   1.955   1.110   0.762 -0.6768 -0.3697 -1.7640
 4262TIP3   OH234200   3.905   1.836  10.564  0.3236  0.4304 -0.0631
 4262TIP3    H134201   3.832   1.813  10.506 -0.4336  0.4599  0.8597
 4262TIP3    H234202   3.931   1.924  10.536  2.5278 -0.9745 -2.8951
 4263TIP3   OH234203   5.952   0.551   3.194  0.1374 -0.0645 -0.2617
 4263TIP3    H134204   5.873   0.566   3.246 -0.8089  0.7741 -1.8507
 4263TIP3    H234205   5.987   0.638   3.177  1.5944 -0.4382  0.6239
 4264TIP3   OH234206   2.047   2.503   3.207  0.0082  0.0242  0.2807
 4264TIP3    H134207   1.954   2.506   3.183  0.3086  0.4646 -0.9230
 4264TIP3    H234208   2.093   2.495   3.123  1.0179 -1.2030  0.9148
 4265TIP3   OH234209   6.106   3.879  14.321  0.0109 -0.1132 -0.1711
 4265TIP3    H134210   6.087   3.948  14.258  2.5113  0.8974  0.0923
 4265TIP3    H234211   6.089   3.918  14.406  0.2672 -0.2018 -0.0766
 4266TIP3   OH234212   6.366   0.444   4.715  0.1962 -0.3838 -0.2415
 4266TIP3    H134213   6.365   0.452   4.811 -0.6495 -0.3289 -0.2473
 4266TIP3    H234214   6.424   0.370   4.698  0.7984 -0.0509  0.2802
 4267TIP3   OH234215   2.865   1.257   5.634 -0.1386  0.0612  0.4312
 4267TIP3    H134216   2.918   1.197   5.581 -0.0448 -0.0989  0.6970
 4267TIP3    H234217   2.921   1.275   5.710  1.0607  2.7710 -0.9492
 4268TIP3   OH234218   3.292   1.035   0.460  0.1151  0.0456  0.4259
 4268TIP3    H134219   3.270   0.943   0.475  1.9539 -0.6260 -0.6874
 4268TIP3    H234220   3.288   1.046   0.365  3.5232  0.0256  0.1474
 4269TIP3   OH234221   6.495   3.823  11.649 -0.0458 -0.2176  0.4351
 4269TIP3    H134222   6.486   3.796  11.557  0.9097 -1.6651  0.7377
 4269TIP3    H234223   6.575   3.781  11.679 -1.0097 -0.8204  2.3063
 4270TIP3   OH234224   1.981   3.367  11.649 -0.0697 -0.1975 -0.2242
 4270TIP3    H134225   1.995   3.454  11.612 -3.8530  0.7529  0.0996
 4270TIP3    H234226   1.946   3.383  11.737 -1.8837 -1.9471 -0.5459
 4271TIP3   OH234227   0.122   1.034  15.189 -0.5752 -0.2934  1.0411
 4271TIP3    H134228   0.208   1.054  15.226 -0.7826  1.2678  0.7882
 4271TIP3    H234229   0.136   0.960  15.131  0.9778  0.9818 -0.3106
 4272TIP3   OH234230   3.225   4.590   3.931  0.1086  0.2606  0.3410
 4272TIP3    H134231   3.162   4.641   3.879 -0.0160  0.9068  1.1066
 4272TIP3    H234232   3.176   4.513   3.958 -0.6301  1.1237  1.5770
 4273TIP3   OH234233   1.400   6.732  17.211 -0.1919  0.6181 -0.1548
 4273TIP3    H134234   1.424   6.717  17.119 -0.2555 -0.5446  0.0023
 4273TIP3    H234235   1.373   6.646  17.243  1.6034  0.5918  1.4795
 4274TIP3   OH234236   2.770   5.834  11.943  0.2019 -0.0927  0.9199
 4274TIP3    H134237   2.814   5.877  11.870 -1.0097 -0.6883 -0.1860
 4274TIP3    H234238   2.759   5.744  11.914  0.1024 -0.4485  2.0345
 4275TIP3   OH234239   2.307   4.996   3.286 -0.2564 -1.1137  0.1679
 4275TIP3    H134240   2.372   4.991   3.356 -0.6441  0.4178  0.6866
 4275TIP3    H234241   2.230   4.953   3.322 -0.8069  0.6051  1.1576
 4276TIP3   OH234242   3.009   6.673   1.065  0.2993 -0.1280 -0.0656
 4276TIP3    H134243   3.081   6.736   1.054 -0.6233  1.0034  0.1329
 4276TIP3    H234244   3.004   6.660   1.160  0.8584 -0.9691 -0.1427
 4277TIP3   OH234245   0.566   1.716   4.342 -0.0811 -0.3523 -0.1769
 4277TIP3    H134246   0.516   1.786   4.299 -2.2046 -2.1300 -0.8111
 4277TIP3    H234247   0.614   1.760   4.412 -0.5679  1.8598 -1.1502
 4278TIP3   OH234248   1.540   4.460   0.217 -0.1852 -0.3109 -0.1831
 4278TIP3    H134249   1.540   4.554   0.233  0.1003 -0.1514 -1.0451
 4278TIP3    H234250   1.509   4.451   0.127  1.4633 -0.9159 -0.7296
 4279TIP3   OH234251   0.055   0.554  11.444  0.3473 -0.3729  0.4947
 4279TIP3    H134252   0.052   0.649  11.452 -0.6670 -0.2030 -1.2879
 4279TIP3    H234253   0.121   0.538  11.376 -1.3024 -0.7220 -1.1214
 4280TIP3   OH234254   4.010   1.076  14.996 -0.1816  0.1092 -0.1525
 4280TIP3    H134255   3.992   1.007  14.931 -0.8670  0.5659 -0.4528
 4280TIP3    H234256   3.936   1.135  14.989  1.2994  1.9477 -1.2785
 4281TIP3   OH234257   3.381   1.709   0.602 -0.5578 -0.5891 -0.3976
 4281TIP3    H134258   3.455   1.683   0.657 -1.1275  1.5293  1.5394
 4281TIP3    H234259   3.420   1.729   0.517  1.8327  3.3878  1.3284
 4282TIP3   OH234260   6.442   5.433  13.929 -0.2488  0.3508 -0.1007
 4282TIP3    H134261   6.410   5.465  14.013 -0.7463  2.0329 -0.8964
 4282TIP3    H234262   6.370   5.448  13.868  1.0357  1.7625 -1.3742
 4283TIP3   OH234263   5.189   6.143   3.224 -0.4138  0.3778  0.3328
 4283TIP3    H134264   5.274   6.177   3.250 -0.9500  0.6226  1.9017
 4283TIP3    H234265   5.188   6.053   3.257 -0.7837  0.4030  0.3989
 4284TIP3   OH234266   6.117   2.561   0.183  0.7056 -0.1729 -0.1635
 4284TIP3    H134267   6.173   2.625   0.139 -0.5878  0.9991 -0.1722
 4284TIP3    H234268   6.172   2.524   0.251  1.3474  1.3813  0.2132
 4285TIP3   OH234269   6.532   6.599   2.409 -0.1143  0.1584  0.0367
 4285TIP3    H134270   6.550   6.639   2.324  0.7964  0.3064  0.2910
 4285TIP3    H234271   6.472   6.660   2.452 -0.1802  0.3337 -0.3051
 4286TIP3   OH234272   0.754   2.996   1.107 -0.3813 -0.1065 -0.7343
 4286TIP3    H134273   0.720   2.983   1.019 -0.8166 -1.6687 -0.3636
 4286TIP3    H234274   0.713   3.077   1.138 -1.2315 -0.2539 -1.4778
 4287TIP3   OH234275   6.507   1.078  14.465 -0.1528  0.1895 -0.5217
 4287TIP3    H134276   6.477   1.101  14.378  0.1288 -1.2435 -1.0287
 4287TIP3    H234277   6.438   1.022  14.500  0.5883 -0.7835 -0.5768
 4288TIP3   OH234278   0.480   0.662   3.207 -0.9706  0.3864 -0.2913
 4288TIP3    H134279   0.479   0.696   3.297  0.0506 -0.9753  0.2639
 4288TIP3    H234280   0.414   0.714   3.162 -0.9114  1.6789  1.0261
 4289TIP3   OH234281   6.428   2.855   4.030  0.5401 -0.2725 -0.2984
 4289TIP3    H134282   6.402   2.782   4.087  0.5657  0.1194  0.2182
 4289TIP3    H234283   6.518   2.875   4.056  0.2140  0.5606  0.2114
 4290TIP3   OH234284   3.708   2.666  15.136  0.4068 -0.0505 -0.0983
 4290TIP3    H134285   3.656   2.618  15.201 -1.3242  0.4654 -1.0252
 4290TIP3    H234286   3.665   2.751  15.130  0.8277  0.0884 -1.5395
 4291TIP3   OH234287   6.700   0.534   1.724 -0.2836  0.0508  0.1592
 4291TIP3    H134288   6.770   0.473   1.703 -0.0789  0.2287  0.3345
 4291TIP3    H234289   6.625   0.478   1.747  0.1990 -0.1316  1.3338
 4292TIP3   OH234290   6.606   3.783  15.041  0.5598  0.4071  0.0341
 4292TIP3    H134291   6.694   3.777  15.005  0.3227  0.6380 -0.6072
 4292TIP3    H234292   6.618   3.805  15.133  1.1917 -0.5194  0.1913
 4293TIP3   OH234293   2.066   6.547   3.016  0.2600  0.1731 -0.3781
 4293TIP3    H134294   2.145   6.595   3.042 -0.1165  1.5716 -1.6754
 4293TIP3    H234295   1.997   6.582   3.073 -0.1083  1.5635 -1.6392
 4294TIP3   OH234296   3.672   6.314  12.508  0.4630  0.3021 -0.0008
 4294TIP3    H134297   3.585   6.275  12.501  0.6979 -0.4245  0.8921
 4294TIP3    H234298   3.730   6.256  12.459  0.6310  0.1146  0.4077
 4295TIP3   OH234299   2.133   3.598   3.584  0.0698 -0.1237 -0.4683
 4295TIP3    H134300   2.124   3.601   3.679 -1.5584  1.5962 -0.6179
 4295TIP3    H234301   2.225   3.622   3.568  0.6214 -1.3440  0.6527
 4296TIP3   OH234302   1.279   0.670   6.578 -0.8012 -0.0278  0.1071
 4296TIP3    H134303   1.355   0.705   6.532 -0.0051 -0.5585  0.9925
 4296TIP3    H234304   1.275   0.578   6.552 -0.5507 -0.2457  0.8210
 4297TIP3   OH234305   5.842   5.324  11.791  0.1635 -0.0972  0.2108
 4297TIP3    H134306   5.873   5.284  11.710 -0.2640 -1.8384  0.8567
 4297TIP3    H234307   5.909   5.389  11.813  1.8657 -1.6550 -0.0155
 4298TIP3   OH234308   3.931   1.678  16.699  0.7122  0.0658  0.2972
 4298TIP3    H134309   3.860   1.728  16.660  0.2064 -0.8421  0.0156
 4298TIP3    H234310   4.011   1.718  16.664  0.3844  1.6192  1.2682
 4299TIP3   OH234311   5.716   5.133   4.777 -0.1388  0.1717  0.2738
 4299TIP3    H134312   5.639   5.099   4.823 -0.6159 -1.5533 -1.6029
 4299TIP3    H234313   5.689   5.136   4.685  0.0104  5.5374  0.0955
 4300TIP3   OH234314   3.945   3.731  13.347  0.4823 -0.5759 -0.0289
 4300TIP3    H134315   3.872   3.776  13.390  0.3034 -1.2705  0.4078
 4300TIP3    H234316   4.019   3.744  13.406  0.8808  0.6577 -0.7722
 4301TIP3   OH234317   6.502   5.156  16.495 -0.5456 -0.6552  0.1160
 4301TIP3    H134318   6.476   5.111  16.575 -0.9291 -0.3592  0.1619
 4301TIP3    H234319   6.495   5.090  16.427  0.0104 -0.9721  0.3627
 4302TIP3   OH234320   3.429   2.494   0.843 -0.6076  0.0028 -0.0607
 4302TIP3    H134321   3.440   2.567   0.905 -5.4973  0.5240  0.6796
 4302TIP3    H234322   3.471   2.420   0.886  2.3029  1.7417  0.3710
 4303TIP3   OH234323   6.304   0.588  12.745 -0.2212 -0.5010 -0.8952
 4303TIP3    H134324   6.311   0.593  12.650 -3.5653  0.5944 -1.2255
 4303TIP3    H234325   6.295   0.679  12.773  3.0424 -0.5656  0.8520
 4304TIP3   OH234326   5.242   0.619   4.253 -0.4413 -0.2697 -0.1608
 4304TIP3    H134327   5.261   0.536   4.209 -0.7757  0.3623 -1.5331
 4304TIP3    H234328   5.325   0.667   4.252 -0.6070  0.0063 -0.6781
 4305TIP3   OH234329   2.390   5.858  16.125 -0.0195  0.1261 -0.3628
 4305TIP3    H134330   2.325   5.831  16.190  0.1712 -0.6225 -0.4765
 4305TIP3    H234331   2.374   5.952  16.113  0.0587  0.3110  0.8787
 4306TIP3   OH234332   5.124   3.694   1.451  0.6846 -0.5364 -0.3560
 4306TIP3    H134333   5.136   3.725   1.540  1.6759 -1.4734 -0.1497
 4306TIP3    H234334   5.191   3.740   1.400  2.2143 -2.3030 -0.0353
 4307TIP3   OH234335   6.646   2.840  14.941  0.0872 -0.7697  0.3498
 4307TIP3    H134336   6.684   2.754  14.924  0.1795 -0.7636  0.5205
 4307TIP3    H234337   6.692   2.899  14.881 -0.1002 -0.8688  0.1093
 4308TIP3   OH234338   0.378   0.821   0.996 -0.1083 -0.0010 -0.0062
 4308TIP3    H134339   0.379   0.907   0.953  1.4276 -0.7122 -1.4941
 4308TIP3    H234340   0.328   0.766   0.936  0.3038 -0.5270  0.1359
 4309TIP3   OH234341   6.611   3.650  15.895  0.2489 -0.6385  0.3223
 4309TIP3    H134342   6.699   3.626  15.866  0.3024 -1.9391  1.4507
 4309TIP3    H234343   6.611   3.745  15.899  2.0421 -0.6629  1.6135
 4310TIP3   OH234344   5.102   0.082  13.231 -0.4395 -0.0071  0.6594
 4310TIP3    H134345   5.158   0.077  13.309  0.7332  1.0881 -0.0742
 4310TIP3    H234346   5.031   0.020  13.249  0.4676 -0.7054  2.0547
 4311TIP3   OH234347   4.510   0.347   1.932  0.1194  0.0778 -0.8050
 4311TIP3    H134348   4.592   0.303   1.908  0.9042  0.8986  0.2754
 4311TIP3    H234349   4.441   0.284   1.910  1.1333 -1.2098 -0.3855
 4312TIP3   OH234350   3.921   2.703   5.655  0.3082  0.0036  0.3983
 4312TIP3    H134351   3.852   2.752   5.610  1.1014 -0.0498 -0.9311
 4312TIP3    H234352   3.924   2.741   5.742 -1.3373  0.0652  0.4672
 4313TIP3   OH234353   3.755   1.352   0.401 -0.4999 -0.5114 -0.1294
 4313TIP3    H134354   3.799   1.422   0.449 -2.3853 -0.0932  1.0689
 4313TIP3    H234355   3.799   1.272   0.429  1.1320  0.0791 -0.8879
 4314TIP3   OH234356   3.786   6.120  17.152 -0.5356 -0.2171  0.6042
 4314TIP3    H134357   3.789   6.137  17.246 -1.5532  0.5355  0.5174
 4314TIP3    H234358   3.748   6.200  17.115  0.3755 -0.2754 -0.5075
 4315TIP3   OH234359   1.468   5.121   5.657 -0.4003 -0.3006  0.6093
 4315TIP3    H134360   1.510   5.037   5.635 -1.0986 -0.4654 -0.1590
 4315TIP3    H234361   1.482   5.131   5.751 -1.1456 -1.7673  0.9130
 4316TIP3   OH234362   3.801   5.651   6.108 -0.1377  0.2428 -0.0754
 4316TIP3    H134363   3.893   5.674   6.125  0.2787  0.0522 -1.8663
 4316TIP3    H234364   3.802   5.557   6.094 -0.3330  0.4293 -1.5336
 4317TIP3   OH234365   1.713   4.955   0.408  0.0276  0.5989  0.4238
 4317TIP3    H134366   1.675   5.028   0.359 -1.3086  0.1993  0.8203
 4317TIP3    H234367   1.807   4.975   0.411  0.3605  0.2089 -3.0022
 4318TIP3   OH234368   4.698   6.380  11.881 -0.5289  0.3784 -0.3872
 4318TIP3    H134369   4.793   6.374  11.887 -0.6147 -1.9707 -0.3221
 4318TIP3    H234370   4.674   6.316  11.813 -2.0481  0.9767 -0.4577
 4319TIP3   OH234371   0.088   4.662  12.763  0.4798  0.1650  0.0285
 4319TIP3    H134372   0.129   4.665  12.849 -1.7577 -0.3134  1.1784
 4319TIP3    H234373   0.138   4.724  12.710  1.5779  0.8627  1.7998
 4320TIP3   OH234374   5.416   4.399   0.661  0.5171  0.0833 -0.1590
 4320TIP3    H134375   5.343   4.376   0.718 -1.3007  1.0848 -1.9636
 4320TIP3    H234376   5.394   4.361   0.576  1.9743  0.6279 -0.8124
 4321TIP3   OH234377   3.031   2.215   4.069 -0.3342 -0.4181  0.1772
 4321TIP3    H134378   3.103   2.181   4.014  0.6448  1.4576  0.2044
 4321TIP3    H234379   3.069   2.221   4.157 -2.0121 -3.7603  1.2696
 4322TIP3   OH234380   2.842   4.118   4.251  0.7808 -0.5251  0.3459
 4322TIP3    H134381   2.861   4.208   4.226  3.2491 -1.2496 -0.7390
 4322TIP3    H234382   2.805   4.078   4.173 -0.6769 -0.4114  0.9405
 4323TIP3   OH234383   4.871   1.991  15.987 -0.0594 -0.0957  0.2108
 4323TIP3    H134384   4.940   1.956  15.931 -0.4936  0.4748 -0.7212
 4323TIP3    H234385   4.794   1.938  15.965 -0.7892  1.4937 -1.4002
 4324TIP3   OH234386   1.706   3.679  15.296  0.1522  0.1088 -0.1796
 4324TIP3    H134387   1.664   3.705  15.214  0.1225 -0.0428 -0.2125
 4324TIP3    H234388   1.755   3.600  15.274 -0.8783 -0.6693  0.2253
 4325TIP3   OH234389   4.120   1.086  15.600  0.1173 -0.0329  0.3562
 4325TIP3    H134390   4.079   1.019  15.654  1.1808  0.1752  1.4743
 4325TIP3    H234391   4.212   1.085  15.627  0.3530  1.1897 -0.3258
 4326TIP3   OH234392   5.838   4.451  14.496 -0.6337 -0.6066  0.0965
 4326TIP3    H134393   5.769   4.475  14.558 -1.7505 -2.8330 -0.1940
 4326TIP3    H234394   5.806   4.372  14.454  2.4944 -2.2543  0.5626
 4327TIP3   OH234395   4.430   0.850  16.956  0.3611  0.4494 -0.2781
 4327TIP3    H134396   4.435   0.909  17.031 -0.5839  0.9169 -0.5660
 4327TIP3    H234397   4.356   0.883  16.904 -2.3647 -2.7564  1.1307
 4328TIP3   OH234398   2.553   1.427  13.135 -0.2581  0.0754 -0.3042
 4328TIP3    H134399   2.609   1.364  13.090  0.0042 -0.3162  0.5519
 4328TIP3    H234400   2.521   1.381  13.212 -2.1744  0.1112 -0.9984
 4329TIP3   OH234401   1.675   4.706   2.214  0.0743 -0.4335 -0.8833
 4329TIP3    H134402   1.586   4.739   2.198  0.1368 -0.2196 -0.7772
 4329TIP3    H234403   1.683   4.632   2.153  0.5332  0.7615 -2.3330
 4330TIP3   OH234404   2.961   3.031   2.932 -0.7829 -0.1839  0.2866
 4330TIP3    H134405   3.051   3.026   2.899 -1.1006 -0.5059 -0.5760
 4330TIP3    H234406   2.945   3.124   2.945 -0.5754 -0.0626 -0.2925
 4331TIP3   OH234407   0.078   3.503  12.917  1.1133  0.4159  0.1268
 4331TIP3    H134408   0.041   3.468  12.836  1.1776 -0.8830  0.6347
 4331TIP3    H234409   0.034   3.455  12.986 -2.2833  4.5425  1.2076
 4332TIP3   OH234410   6.510   0.268   0.331 -0.5258 -0.4380 -0.0616
 4332TIP3    H134411   6.537   0.186   0.373 -0.7775 -0.5212 -0.0590
 4332TIP3    H234412   6.568   0.277   0.256  0.1966 -0.0844  0.5206
 4333TIP3   OH234413   5.344   4.410   1.018 -0.0289 -0.3681 -0.4757
 4333TIP3    H134414   5.303   4.494   1.037 -1.3280 -0.7461 -1.4647
 4333TIP3    H234415   5.346   4.365   1.103  0.4006  0.5257 -0.0030
 4334TIP3   OH234416   6.666   6.228  17.031 -0.1583 -0.4617  0.3008
 4334TIP3    H134417   6.632   6.140  17.016  0.4203 -0.8545  1.1813
 4334TIP3    H234418   6.713   6.249  16.950 -0.0827 -1.0693  0.1771
 4335TIP3   OH234419   6.487   4.511   1.534 -0.0229 -0.7542  0.6347
 4335TIP3    H134420   6.494   4.421   1.567 -0.4072 -0.8583  0.4402
 4335TIP3    H234421   6.536   4.509   1.452 -1.8118 -1.3581 -0.4792
 4336TIP3   OH234422   0.221   2.339  13.832  0.3221 -0.0478  0.0339
 4336TIP3    H134423   0.236   2.433  13.818 -0.7619 -0.1678 -2.3700
 4336TIP3    H234424   0.307   2.305  13.855  1.2227  1.2228 -1.2228
 4337TIP3   OH234425   1.270   4.497  11.549  0.3644  0.0975 -0.9908
 4337TIP3    H134426   1.268   4.416  11.499  0.2501 -0.4248 -0.1588
 4337TIP3    H234427   1.354   4.496  11.595 -0.5078 -0.5963  0.6728
 4338TIP3   OH234428   5.879   2.787   5.776  0.0914 -0.4965  0.4911
 4338TIP3    H134429   5.877   2.691   5.781 -0.2615 -0.4358  2.3730
 4338TIP3    H234430   5.798   2.814   5.818 -1.6824  0.6337 -3.2918
 4339TIP3   OH234431   1.231   0.082  14.546 -0.0271  0.3001 -0.7682
 4339TIP3    H134432   1.291   0.065  14.618  3.4301 -1.6585 -3.7715
 4339TIP3    H234433   1.220   0.177  14.546  0.8124  0.4602  1.5680
 4340TIP3   OH234434   5.060   0.338   1.486 -0.0701 -0.0659 -0.0462
 4340TIP3    H134435   4.966   0.340   1.469  0.2184  0.3802 -1.8181
 4340TIP3    H234436   5.096   0.404   1.426  1.6975 -2.4344 -1.7836
 4341TIP3   OH234437   5.229   1.655  14.747 -0.1209  0.0151  0.2646
 4341TIP3    H134438   5.172   1.582  14.724  2.0166 -0.9389 -2.5022
 4341TIP3    H234439   5.292   1.617  14.808  0.5658 -0.3095 -0.6279
 4342TIP3   OH234440   3.357   1.531   1.458 -0.1494 -0.5021  0.1463
 4342TIP3    H134441   3.348   1.443   1.493  0.4666 -1.3694 -1.7148
 4342TIP3    H234442   3.311   1.528   1.374 -0.9349  1.2373  0.4664
 4343TIP3   OH234443   3.631   4.436  16.542 -0.7649 -0.2125  0.1430
 4343TIP3    H134444   3.682   4.444  16.623 -0.1782 -0.2394 -0.2184
 4343TIP3    H234445   3.597   4.524  16.526  0.1257  0.0736 -0.2274
 4344TIP3   OH234446   3.313   2.459   2.084 -0.7365  0.6388 -0.0130
 4344TIP3    H134447   3.355   2.463   1.999  1.1294  0.5384  0.8607
 4344TIP3    H234448   3.332   2.370   2.116 -2.6402  0.1654 -0.0554
 4345TIP3   OH234449   4.431   5.134   0.684  0.1354 -0.1785 -0.2178
 4345TIP3    H134450   4.517   5.158   0.650  0.3605  0.2746  0.6491
 4345TIP3    H234451   4.431   5.164   0.775 -1.0138  0.0196 -0.2628
 4346TIP3   OH234452   2.148   3.062   1.675  0.1433  0.0777  0.5092
 4346TIP3    H134453   2.137   3.054   1.770  1.4650  1.4558  0.8201
 4346TIP3    H234454   2.242   3.057   1.662  0.1367  1.8261 -0.4960
 4347TIP3   OH234455   1.622   0.364   2.795  0.0547 -0.6386  0.1794
 4347TIP3    H134456   1.656   0.274   2.797  1.4340 -0.1483 -0.1175
 4347TIP3    H234457   1.606   0.381   2.702  0.6920 -0.2771  0.1272
 4348TIP3   OH234458   6.612   4.689  10.900 -0.0764  0.3796  0.3025
 4348TIP3    H134459   6.520   4.698  10.878 -0.3487  0.8021  1.5180
 4348TIP3    H234460   6.651   4.643  10.826 -1.4095 -0.4559  0.0977
 4349TIP3   OH234461   3.535   4.096   1.824 -0.2945 -0.4914 -0.0452
 4349TIP3    H134462   3.576   4.029   1.769 -0.1457  0.1415 -0.7211
 4349TIP3    H234463   3.572   4.178   1.792 -2.8793  0.2170 -1.4190
 4350TIP3   OH234464   0.625   4.046  11.458  0.1122 -0.1705  0.0396
 4350TIP3    H134465   0.658   4.052  11.368  1.6586 -2.8099  0.3252
 4350TIP3    H234466   0.546   3.992  11.452  1.1246 -1.7540  0.3865
 4351TIP3   OH234467   2.680   5.590  16.695  0.3749 -0.0847 -0.2219
 4351TIP3    H134468   2.669   5.622  16.784  2.1064  0.2531 -0.0949
 4351TIP3    H234469   2.591   5.577  16.662 -0.3051  1.3419  0.9847
 4352TIP3   OH234470   2.812   2.888  15.178  0.5157  0.8108 -0.1287
 4352TIP3    H134471   2.893   2.838  15.183  0.4490  0.3933 -2.2667
 4352TIP3    H234472   2.792   2.911  15.269  0.7738 -2.6822  0.9510
 4353TIP3   OH234473   2.528   6.501  14.765  0.6959 -0.2939 -0.3725
 4353TIP3    H134474   2.484   6.499  14.850  0.9879  0.5211 -0.1956
 4353TIP3    H234475   2.466   6.461  14.705 -0.7802  1.8107 -0.3412
 4354TIP3   OH234476   5.138   5.414  15.071 -0.3643  0.0569  0.5717
 4354TIP3    H134477   5.047   5.404  15.045 -1.2456  0.4590  3.2625
 4354TIP3    H234478   5.152   5.349  15.139  2.1977 -1.7766 -1.4837
 4355TIP3   OH234479   4.326   4.095   4.923 -0.3338  0.2789  0.0336
 4355TIP3    H134480   4.309   4.021   4.981  0.5746 -0.5867 -0.7632
 4355TIP3    H234481   4.380   4.155   4.975  1.2068 -0.8837 -0.1417
 4356TIP3   OH234482   6.061   5.218  15.079 -0.0142 -0.4744 -0.1082
 4356TIP3    H134483   6.105   5.134  15.065  1.4298 -0.1197  1.8668
 4356TIP3    H234484   5.970   5.195  15.097 -0.2207 -1.3993 -2.0658
 4357TIP3   OH234485   3.080   1.844   1.370  0.6590  0.6759  0.5449
 4357TIP3    H134486   3.087   1.935   1.400  2.1796  1.0745 -0.8727
 4357TIP3    H234487   3.165   1.826   1.330 -0.3461 -0.6846 -1.0558
 4358TIP3   OH234488   1.543   3.792   2.201  0.3239  0.6802  0.1516
 4358TIP3    H134489   1.525   3.829   2.115 -1.0902  0.9877  0.5503
 4358TIP3    H234490   1.627   3.830   2.227  0.9869  0.2384 -1.2592
 4359TIP3   OH234491   1.526   3.180   0.698  0.1302  0.1427  0.5462
 4359TIP3    H134492   1.550   3.126   0.623  1.7932  0.1250  1.0298
 4359TIP3    H234493   1.434   3.202   0.685 -0.4035 -2.1871 -0.0380
 4360TIP3   OH234494   4.772   1.446  14.117  0.8957  0.6812  0.4448
 4360TIP3    H134495   4.746   1.474  14.205  1.7726  1.7001  0.3901
 4360TIP3    H234496   4.724   1.364  14.103 -0.6693  1.4255  1.1608
 4361TIP3   OH234497   0.465   3.557  15.679 -0.2846 -0.0983 -0.4758
 4361TIP3    H134498   0.416   3.636  15.701 -0.3367 -0.5227  1.0501
 4361TIP3    H234499   0.443   3.495  15.749  2.0321 -0.4479  0.0342
 4362TIP3   OH234500   2.156   2.640  13.227  0.3769  0.6299  0.1441
 4362TIP3    H134501   2.132   2.692  13.151  0.0987  0.0161 -0.1983
 4362TIP3    H234502   2.098   2.670  13.297  0.0658  0.6244 -0.1120
 4363TIP3   OH234503   0.448   2.791   3.752 -0.0148 -0.0970  0.4685
 4363TIP3    H134504   0.357   2.777   3.725 -0.5528  0.6384  1.8422
 4363TIP3    H234505   0.447   2.780   3.847  0.8820  2.0781  0.7896
 4364TIP3   OH234506   0.390   0.026  11.977 -0.1535  0.0388  0.0382
 4364TIP3    H134507   0.356  -0.062  11.995 -0.2416 -0.1298 -0.8896
 4364TIP3    H234508   0.438   0.017  11.895 -1.9914  1.2763 -1.2766
 4365TIP3   OH234509   0.119   6.339   3.700  0.1768  0.7241 -0.3005
 4365TIP3    H134510   0.118   6.245   3.680  0.5100  0.2447  1.7282
 4365TIP3    H234511   0.058   6.349   3.772  2.1887  1.5630  1.3886
 4366TIP3   OH234512   4.138   0.127   3.685 -0.2141  0.5582  0.2575
 4366TIP3    H134513   4.160   0.051   3.632 -0.2506  1.7070 -1.4842
 4366TIP3    H234514   4.207   0.191   3.665 -0.2171  1.0170  1.6289
 4367TIP3   OH234515   6.359   4.936   6.693 -0.2175 -0.5363  0.3782
 4367TIP3    H134516   6.417   4.915   6.621  0.7268  0.0249  0.9492
 4367TIP3    H234517   6.363   5.031   6.701  0.8270 -0.6703  2.0457
 4368TIP3   OH234518   3.800   0.709   3.873  0.1490  0.2755 -0.1863
 4368TIP3    H134519   3.844   0.788   3.903 -2.9105  1.6299  1.1708
 4368TIP3    H234520   3.707   0.726   3.888 -0.6800 -3.5796  0.2063
 4369TIP3   OH234521   5.602   0.225   3.158  0.1254 -0.4225 -0.3394
 4369TIP3    H134522   5.527   0.284   3.156  0.6308  0.2109 -1.3239
 4369TIP3    H234523   5.651   0.245   3.078 -0.0814 -2.6936 -1.1060
 4370TIP3   OH234524   0.315   3.147  15.231  0.2861 -0.2013  0.2731
 4370TIP3    H134525   0.244   3.116  15.286  0.5918 -0.0939  0.7399
 4370TIP3    H234526   0.393   3.138  15.286  0.5172  0.4380  0.0639
 4371TIP3   OH234527   5.012   0.284  15.264 -0.0115  0.1177 -0.8444
 4371TIP3    H134528   5.055   0.321  15.341 -0.2236 -0.5547 -0.3869
 4371TIP3    H234529   4.926   0.325  15.263 -0.8140 -1.4174  0.5328
 4372TIP3   OH234530   1.959   4.397   3.671  0.5302 -0.0899  0.2052
 4372TIP3    H134531   1.978   4.304   3.662 -1.0868 -0.3938 -0.3557
 4372TIP3    H234532   2.045   4.438   3.684  1.2071 -1.7279  1.2806
 4373TIP3   OH234533   2.790   1.387   0.899 -0.3030 -0.5057 -0.3062
 4373TIP3    H134534   2.863   1.414   0.844  0.5323 -0.0370  0.9887
 4373TIP3    H234535   2.724   1.354   0.837 -0.3112  1.9643 -1.7602
 4374TIP3   OH234536   4.971   3.675   3.387  0.0395 -0.5158  0.3893
 4374TIP3    H134537   5.051   3.641   3.429 -0.5759 -1.7167  0.6382
 4374TIP3    H234538   4.960   3.763   3.423  2.7018  0.8086 -1.6094
 4375TIP3   OH234539   0.856   6.208  13.282 -0.4019 -0.0792  0.4588
 4375TIP3    H134540   0.776   6.181  13.326 -1.6764  0.6489 -1.2929
 4375TIP3    H234541   0.855   6.303  13.285 -0.6890  0.0186 -1.2873
 4376TIP3   OH234542   1.040   6.252   3.265  0.0025  0.6121 -0.2898
 4376TIP3    H134543   1.058   6.164   3.297 -0.6034  0.0395 -1.4487
 4376TIP3    H234544   1.089   6.309   3.323  2.6902 -0.6368 -1.1627
 4377TIP3   OH234545   2.965   1.418  16.190 -0.2442  0.4393  0.1852
 4377TIP3    H134546   2.917   1.481  16.245 -0.7368 -0.3670  0.6999
 4377TIP3    H234547   2.987   1.468  16.111  0.5834  1.6618  1.1381
 4378TIP3   OH234548   1.151   6.427  13.946  0.0043  0.1399 -0.0078
 4378TIP3    H134549   1.237   6.403  13.981 -0.0191 -0.3701 -0.2836
 4378TIP3    H234550   1.169   6.469  13.863 -0.0034  0.1839  0.0124
 4379TIP3   OH234551   3.809   1.729   2.834  0.3595  0.1352  0.4147
 4379TIP3    H134552   3.872   1.800   2.849  1.7093 -1.3015  1.9775
 4379TIP3    H234553   3.741   1.744   2.900 -0.0969  0.7278 -0.1713
 4380TIP3   OH234554   4.382   1.351   5.524 -0.3008 -0.1507  0.5589
 4380TIP3    H134555   4.328   1.413   5.572 -0.6920 -1.0932  1.3827
 4380TIP3    H234556   4.415   1.400   5.449 -1.6185  0.6942  0.4961
 4381TIP3   OH234557   4.595   6.462  15.194  0.0578 -0.0955 -0.3142
 4381TIP3    H134558   4.588   6.444  15.100  1.2176  0.4780 -0.5295
 4381TIP3    H234559   4.687   6.484  15.208  0.0477 -0.8068  1.0827
 4382TIP3   OH234560   3.253   1.400  14.026  0.0114 -0.3396  0.0729
 4382TIP3    H134561   3.194   1.328  14.047 -1.0935  1.2976  3.0243
 4382TIP3    H234562   3.201   1.460  13.972 -0.4838  0.2493  1.1832
 4383TIP3   OH234563   2.951   0.690  16.123  0.3794 -0.1419  0.2923
 4383TIP3    H134564   2.955   0.782  16.097  1.6282 -0.1338  0.4492
 4383TIP3    H234565   2.993   0.643  16.050  0.9702 -0.4496  0.8259
 4384TIP3   OH234566   6.097   4.403   2.026 -0.2735  0.6460 -0.6641
 4384TIP3    H134567   6.072   4.463   1.956  0.0951  0.0115 -1.3462
 4384TIP3    H234568   6.160   4.452   2.078  0.4153  0.6721 -1.5161
 4385TIP3   OH234569   5.346   2.573  12.432  0.2504  0.7926  0.0017
 4385TIP3    H134570   5.365   2.647  12.375 -0.4903  1.1935  0.2564
 4385TIP3    H234571   5.419   2.513  12.420 -0.3871  0.3854 -2.1311
 4386TIP3   OH234572   5.675   1.675  14.930  0.0654 -0.2659  0.3298
 4386TIP3    H134573   5.725   1.745  14.888 -0.2384 -0.3935 -0.2451
 4386TIP3    H234574   5.623   1.721  14.997  0.6547 -0.0844  0.6729
 4387TIP3   OH234575   3.703   0.406  11.960 -0.5548 -0.4712  0.4023
 4387TIP3    H134576   3.758   0.452  11.896 -0.1720  1.7886  2.2000
 4387TIP3    H234577   3.618   0.396  11.916  0.2028 -0.6979 -1.0892
 4388TIP3   OH234578   5.052   4.114  11.825  0.6549  0.5390 -0.3487
 4388TIP3    H134579   5.008   4.166  11.892  0.0159  0.1892 -0.4864
 4388TIP3    H234580   5.030   4.158  11.743 -0.6497 -0.4361 -0.5545
 4389TIP3   OH234581   0.074   0.963  13.574  0.1565 -0.2278  0.6679
 4389TIP3    H134582   0.011   0.907  13.528 -0.6039  2.1534 -1.3850
 4389TIP3    H234583   0.040   0.967  13.664 -0.3450 -2.1511  0.6064
 4390TIP3   OH234584   3.040   2.942   2.015  0.0433  0.2029  0.0582
 4390TIP3    H134585   3.047   3.035   1.993  0.9265  0.5379  1.5678
 4390TIP3    H234586   2.963   2.937   2.073 -0.7765 -0.2472 -1.0302
 4391TIP3   OH234587   5.173   5.761   2.680  1.1184  0.0483  0.0695
 4391TIP3    H134588   5.153   5.676   2.642  0.4547  0.1071  0.2854
 4391TIP3    H234589   5.089   5.795   2.711  1.2643  1.0827 -0.6199
 4392TIP3   OH234590   5.646   2.987  14.186  0.1066  0.0507  0.3826
 4392TIP3    H134591   5.603   3.000  14.102 -0.0172  0.2658  0.4786
 4392TIP3    H234592   5.726   3.040  14.181  0.4599 -0.5015  0.1308
 4393TIP3   OH234593   1.337   4.243  11.064 -0.0671  0.4171 -0.3567
 4393TIP3    H134594   1.327   4.225  10.970  2.8123  0.7178 -0.8030
 4393TIP3    H234595   1.348   4.157  11.104  2.0789  0.4253 -0.8323
 4394TIP3   OH234596   5.776   4.048  16.874 -0.5264  0.3980 -0.3293
 4394TIP3    H134597   5.745   3.984  16.810  0.2475 -0.7627  0.4011
 4394TIP3    H234598   5.839   4.101  16.826 -0.3938 -0.0745 -0.6912
 4395TIP3   OH234599   3.604   5.771  15.511 -0.1572  0.2081 -0.6435
 4395TIP3    H134600   3.562   5.716  15.577 -2.3544  0.9727 -1.3093
 4395TIP3    H234601   3.599   5.860  15.548 -1.5250  0.6593 -1.8242
 4396TIP3   OH234602   3.881   5.144  14.698 -0.1363 -0.3276  0.4051
 4396TIP3    H134603   3.963   5.139  14.749  0.2495  0.3636 -0.1289
 4396TIP3    H234604   3.862   5.238  14.694 -1.2677 -0.5119  0.9900
 4397TIP3   OH234605   4.296   2.319  13.223 -0.3865 -0.6067 -0.2789
 4397TIP3    H134606   4.245   2.258  13.277 -1.7000 -0.4758 -1.2923
 4397TIP3    H234607   4.232   2.352  13.159  0.6832  0.6154 -0.7541
 4398TIP3   OH234608   4.183   3.418   0.480  0.2819  0.3284  0.2046
 4398TIP3    H134609   4.132   3.499   0.475  2.0824  1.5320  0.4376
 4398TIP3    H234610   4.162   3.382   0.566  0.2288  1.0754  0.5147
 4399TIP3   OH234611   6.056   5.738  17.190 -0.7299 -0.0763 -0.6866
 4399TIP3    H134612   6.026   5.829  17.192 -0.2537  0.0703  0.1700
 4399TIP3    H234613   6.131   5.739  17.131 -1.1830 -0.0701 -1.2773
 4400TIP3   OH234614   2.183   3.296  11.175  0.0043  0.4267 -0.2360
 4400TIP3    H134615   2.150   3.210  11.149 -0.6097  0.4760  0.3392
 4400TIP3    H234616   2.241   3.278  11.249 -0.3041  0.5254  0.0313
 4401TIP3   OH234617   5.078   0.150  10.768  0.1213 -0.1044  0.2793
 4401TIP3    H134618   5.022   0.227  10.763 -2.7598 -2.0561 -0.3223
 4401TIP3    H234619   5.116   0.142  10.680 -0.9264 -0.2613 -0.1782
 4402TIP3   OH234620   5.566   6.613   4.456  0.4076 -0.5377  0.3178
 4402TIP3    H134621   5.646   6.666   4.455 -0.9659  1.6243  0.5371
 4402TIP3    H234622   5.555   6.585   4.365  1.7579 -1.5054  0.4053
 4403TIP3   OH234623   0.485   1.004   0.115  0.4541  0.2273  0.3784
 4403TIP3    H134624   0.476   0.971   0.025 -0.8096  1.5949 -0.0383
 4403TIP3    H234625   0.427   1.080   0.118 -0.5213 -0.5531  2.7459
 4404TIP3   OH234626   0.109   1.292   2.986 -0.0019  0.7404 -0.0619
 4404TIP3    H134627   0.066   1.293   3.072  2.0239  0.2894  1.0113
 4404TIP3    H234628   0.061   1.357   2.935 -1.0357  1.2845  1.5152
 4405TIP3   OH234629   1.973   3.164   3.914 -0.5207 -0.6998  0.2988
 4405TIP3    H134630   1.942   3.073   3.908 -2.3020 -0.1841  1.0403
 4405TIP3    H234631   1.990   3.177   4.007 -0.2122 -0.2952  0.1857
 4406TIP3   OH234632   3.993   3.499   0.056  0.4117  0.6166 -0.5828
 4406TIP3    H134633   3.998   3.406   0.080 -0.4637  0.1425 -2.1274
 4406TIP3    H234634   4.046   3.506  -0.023 -0.0981  1.2690 -0.8784
 4407TIP3   OH234635   1.969   0.001   4.096 -0.4873  0.0014  0.4851
 4407TIP3    H134636   1.906  -0.072   4.093 -0.1963 -0.2552  0.5890
 4407TIP3    H234637   1.917   0.075   4.127 -0.6969 -0.2556  0.7617
 4408TIP3   OH234638   1.725   6.571  11.019 -0.0719  0.0594 -0.0423
 4408TIP3    H134639   1.776   6.543  10.944  1.2073 -1.9572  1.4672
 4408TIP3    H234640   1.712   6.665  11.006 -0.9392 -0.3938 -3.3148
 4409TIP3   OH234641   1.957   6.134  11.531 -0.1958 -0.3162  0.0494
 4409TIP3    H134642   1.935   6.050  11.490 -2.1233  0.1221  0.0912
 4409TIP3    H234643   2.052   6.131  11.542 -0.1842 -2.3783 -0.1923
 4410TIP3   OH234644   4.300   2.798  16.974 -0.0045  0.3091 -0.5721
 4410TIP3    H134645   4.391   2.791  17.003  0.3409 -0.8354 -1.8272
 4410TIP3    H234646   4.305   2.834  16.886 -0.5563 -1.8797 -1.5681
 4411TIP3   OH234647   2.963   1.546  14.579  0.3403 -0.3717  0.0759
 4411TIP3    H134648   3.035   1.604  14.557 -1.0130  1.1622 -0.5188
 4411TIP3    H234649   2.945   1.497  14.499  0.9071 -0.9810  0.3164
 4412TIP3   OH234650   4.672   3.164  17.008  0.2849  0.0571 -0.2040
 4412TIP3    H134651   4.659   3.258  17.019 -1.2503 -0.2233  0.7468
 4412TIP3    H234652   4.708   3.134  17.091 -1.0771 -0.4533  0.2381
 4413TIP3   OH234653   2.949   6.278  12.428  0.3989  0.5983 -0.2026
 4413TIP3    H134654   3.002   6.210  12.469  0.3932  0.4454 -0.4504
 4413TIP3    H234655   2.888   6.231  12.371 -0.5144  0.7182  0.6477
 4414TIP3   OH234656   5.497   5.446  13.692  0.0241  0.0232 -0.0220
 4414TIP3    H134657   5.508   5.520  13.633  1.3582  0.1253  0.3129
 4414TIP3    H234658   5.555   5.378  13.657 -0.8565 -0.7184 -0.0814
 4415TIP3   OH234659   1.903   5.700  15.672  0.0782  0.0937  0.4104
 4415TIP3    H134660   1.960   5.766  15.631  1.3168 -1.2161 -0.0715
 4415TIP3    H234661   1.827   5.696  15.615 -1.9232  3.7672  2.4461
 4416TIP3   OH234662   1.833   4.434  15.548  0.1963  0.5015 -0.8008
 4416TIP3    H134663   1.807   4.523  15.524  2.2368  1.1140 -0.9268
 4416TIP3    H234664   1.928   4.438  15.554  0.1948 -1.1017  1.5377
 4417TIP3   OH234665   6.090   2.774  16.320 -0.3756  0.2460  0.2551
 4417TIP3    H134666   6.009   2.748  16.363 -0.6684  0.7986  0.0568
 4417TIP3    H234667   6.147   2.697  16.326 -0.5934  0.1472  1.1701
 4418TIP3   OH234668   2.939   2.606   2.360  0.7048 -0.2072 -0.6215
 4418TIP3    H134669   2.883   2.683   2.354  1.8111  0.6946  0.2519
 4418TIP3    H234670   3.017   2.628   2.309  1.8899  0.0626  1.2379
 4419TIP3   OH234671   4.628   5.287  16.313 -0.3558  0.0042  0.2624
 4419TIP3    H134672   4.670   5.348  16.252 -3.1141  0.2708 -1.5201
 4419TIP3    H234673   4.534   5.302  16.302 -1.0413 -1.2283  3.3223
 4420TIP3   OH234674   4.633   4.849  16.393  0.0293  0.2175 -0.1862
 4420TIP3    H134675   4.568   4.863  16.462  1.9475 -0.8158  2.0024
 4420TIP3    H234676   4.717   4.863  16.437  1.3531 -0.0718 -2.4736
 4421TIP3   OH234677   1.471   6.704   2.579 -0.1422  0.0643 -0.2100
 4421TIP3    H134678   1.438   6.619   2.609 -0.1559  0.3842  0.7136
 4421TIP3    H234679   1.432   6.715   2.492 -3.4896  0.9105  1.2450
 4422TIP3   OH234680   6.444   4.075  13.868  0.4813  0.4902 -0.0882
 4422TIP3    H134681   6.481   3.988  13.853 -0.1665  0.2945 -0.5876
 4422TIP3    H234682   6.443   4.116  13.781  1.3782  1.2484  0.2380
 4423TIP3   OH234683   1.776   5.518  14.717  0.0944 -0.5027  0.0856
 4423TIP3    H134684   1.706   5.565  14.762  0.3419  0.0155 -0.0549
 4423TIP3    H234685   1.804   5.451  14.779 -0.6858 -0.8717  0.0493
 4424TIP3   OH234686   2.740   2.949   5.698 -0.2679 -0.8803  0.0690
 4424TIP3    H134687   2.830   2.919   5.696  0.6536  1.3581  2.1307
 4424TIP3    H234688   2.687   2.870   5.693  1.8146 -2.2960 -0.4164
 4425TIP3   OH234689   3.356   1.366   5.580  0.3444  0.0295  0.0040
 4425TIP3    H134690   3.442   1.368   5.540  0.7579 -2.3344  0.6146
 4425TIP3    H234691   3.373   1.354   5.674 -0.6513  2.6086  0.6054
 4426TIP3   OH234692   4.041   0.485   0.439  0.3942  0.6200  0.0815
 4426TIP3    H134693   3.978   0.437   0.493 -2.4624  3.5949 -0.2327
 4426TIP3    H234694   4.019   0.460   0.349  1.4182 -0.1656  0.0251
 4427TIP3   OH234695   3.037   2.644   3.525  0.2899  0.0961 -0.5914
 4427TIP3    H134696   3.055   2.738   3.527 -1.0331  0.4256 -1.8631
 4427TIP3    H234697   2.982   2.629   3.602  2.2369 -0.0923  0.8313
 4428TIP3   OH234698   3.420   4.611   0.550 -0.3896  0.2014  0.1166
 4428TIP3    H134699   3.511   4.639   0.539 -0.2440 -0.5271 -0.7038
 4428TIP3    H234700   3.384   4.671   0.615  0.3343  1.2585 -0.4332
 4429TIP3   OH234701   5.582   1.607   0.533 -0.2136 -0.2728 -0.1437
 4429TIP3    H134702   5.512   1.651   0.580  0.2124 -0.2552  0.4812
 4429TIP3    H234703   5.654   1.603   0.595 -0.6718 -3.0913  0.3328
 4430TIP3   OH234704   4.865   2.705  16.591 -0.2634  0.8203  0.2853
 4430TIP3    H134705   4.872   2.680  16.499 -1.9007  0.9894  0.0982
 4430TIP3    H234706   4.946   2.753  16.608  0.9113 -0.7559 -0.5448
 4431TIP3   OH234707   5.573   5.855  11.719 -0.9351 -0.0883  0.5726
 4431TIP3    H134708   5.654   5.869  11.670 -0.4459 -0.5587  1.2234
 4431TIP3    H234709   5.516   5.807  11.659 -0.4155 -0.4874  0.3894
 4432TIP3   OH234710   6.480   4.971  15.617  0.2201 -0.6942  0.1510
 4432TIP3    H134711   6.459   4.916  15.542  1.0387 -0.5522 -0.1923
 4432TIP3    H234712   6.406   4.960  15.676 -0.3208 -1.0024 -0.5650
 4433TIP3   OH234713   4.426   4.599  15.297  0.2930 -0.1294 -0.2408
 4433TIP3    H134714   4.450   4.617  15.206 -0.5911 -2.7675 -1.0725
 4433TIP3    H234715   4.355   4.661  15.316  0.3064  0.2727 -1.4215
 4434TIP3   OH234716   4.320   3.951   2.607 -0.4493  0.3093 -1.0395
 4434TIP3    H134717   4.352   3.861   2.611  1.5609  1.0260  1.5804
 4434TIP3    H234718   4.226   3.943   2.623 -0.2914 -1.3173 -0.7512
 4435TIP3   OH234719   2.652   4.767   5.686  0.3436 -0.0637 -0.2649
 4435TIP3    H134720   2.606   4.789   5.605  1.7935  1.0568 -0.8368
 4435TIP3    H234721   2.743   4.756   5.659  0.4714 -2.0659  0.8522
 4436TIP3   OH234722   4.775   6.210  12.449  0.4513  0.3506 -0.1153
 4436TIP3    H134723   4.745   6.197  12.539  0.1108  2.0716  0.0650
 4436TIP3    H234724   4.696   6.201  12.395  0.7895 -1.4735 -0.3683
 4437TIP3   OH234725   5.386   5.203   3.750  0.2802 -0.5600  0.5421
 4437TIP3    H134726   5.372   5.284   3.798  2.3779 -0.2203  0.6961
 4437TIP3    H234727   5.299   5.172   3.728 -0.5748  1.9944  0.0334
 4438TIP3   OH234728   1.971   6.398  11.555  0.5230  0.2398 -0.4385
 4438TIP3    H134729   1.953   6.309  11.525 -0.4577  0.3099 -0.1073
 4438TIP3    H234730   1.897   6.449  11.523 -0.7809  0.2659  2.2882
 4439TIP3   OH234731   0.791   5.632  16.003 -0.3376 -0.5840 -0.5098
 4439TIP3    H134732   0.853   5.611  15.933  1.5320  2.5790  0.0210
 4439TIP3    H234733   0.834   5.603  16.083  0.2670  1.0877 -0.1935
 4440TIP3   OH234734   5.060   2.198  15.634 -0.2987  0.3587  0.0923
 4440TIP3    H134735   5.132   2.260  15.620  0.0272  0.5182  2.1268
 4440TIP3    H234736   5.043   2.202  15.728 -3.2532  0.6053 -0.3675
 4441TIP3   OH234737   1.881   0.092  15.701  0.2596  0.0814 -0.5549
 4441TIP3    H134738   1.933   0.050  15.633 -0.7440  0.1925 -1.4111
 4441TIP3    H234739   1.943   0.149  15.747  1.5506 -1.9759  0.3747
 4442TIP3   OH234740   2.926   6.322  12.053  0.2099  0.3034 -0.2130
 4442TIP3    H134741   2.913   6.228  12.065  0.0845  0.3905  0.3591
 4442TIP3    H234742   2.856   6.363  12.104  1.3953  0.7413  1.1181
 4443TIP3   OH234743   3.729   4.508  16.786 -0.5522 -0.1547 -0.3078
 4443TIP3    H134744   3.638   4.501  16.817 -0.6760  1.7867 -0.0659
 4443TIP3    H234745   3.777   4.543  16.862  0.0290  0.5229 -0.9745
 4444TIP3   OH234746   6.072   0.997   4.227  0.3077  0.0969  0.4460
 4444TIP3    H134747   6.064   1.067   4.162  0.7971 -0.5158 -0.3022
 4444TIP3    H234748   6.076   1.042   4.311 -2.4350  0.8184  0.2815
 4445TIP3   OH234749   4.378   0.325   3.049 -0.0043  0.0336 -0.0681
 4445TIP3    H134750   4.321   0.251   3.071  1.1650 -0.4883  1.3809
 4445TIP3    H234751   4.409   0.356   3.134  2.4001 -0.1411 -0.8137
 4446TIP3   OH234752   0.707   1.693  12.429 -0.1447  0.1875  0.0030
 4446TIP3    H134753   0.684   1.686  12.336  0.2015  1.4736 -0.1987
 4446TIP3    H234754   0.684   1.783  12.453 -1.8155 -0.6318  1.6327
 4447TIP3   OH234755   4.917   3.713  14.437 -0.3060  0.3297  0.5019
 4447TIP3    H134756   4.884   3.759  14.514  0.1186  0.8437  0.3832
 4447TIP3    H234757   4.854   3.643  14.422 -1.2990  1.2348  0.3221
 4448TIP3   OH234758   4.999   4.907   3.588 -0.6473 -0.3399 -0.2671
 4448TIP3    H134759   5.016   4.875   3.500  0.5850 -1.2416  0.2636
 4448TIP3    H234760   4.905   4.926   3.589 -0.9447 -1.5488 -1.3916
 4449TIP3   OH234761   3.054   5.550  15.160  0.0885  0.0530 -0.2465
 4449TIP3    H134762   3.066   5.461  15.194 -2.5592 -0.5138 -0.5477
 4449TIP3    H234763   3.019   5.537  15.071 -1.9478  1.3058  0.3104
 4450TIP3   OH234764   1.085   0.824  14.335 -0.5305  0.1131 -0.0283
 4450TIP3    H134765   1.069   0.872  14.416 -2.0169 -2.3001  1.2458
 4450TIP3    H234766   1.026   0.864  14.271  0.4822  1.8920  0.0953
 4451TIP3   OH234767   1.086   0.409   2.843 -0.2983  0.1725 -0.0419
 4451TIP3    H134768   0.995   0.385   2.860  0.1266 -1.8636 -0.4084
 4451TIP3    H234769   1.105   0.479   2.905 -1.8182 -0.0709  0.7247
 4452TIP3   OH234770   3.891   6.105   4.220 -0.4342 -0.0757  0.2227
 4452TIP3    H134771   3.888   6.190   4.175  2.5657  1.0518  1.8315
 4452TIP3    H234772   3.816   6.107   4.280 -1.5048  0.5765 -1.0870
 4453TIP3   OH234773   3.344   0.327  17.108  0.1959 -0.2177  0.3058
 4453TIP3    H134774   3.367   0.382  17.183  1.0023  0.3163 -0.3099
 4453TIP3    H234775   3.360   0.383  17.031 -0.2809 -0.8651 -0.2803
 4454TIP3   OH234776   6.718   2.957  12.300 -0.1068 -0.0970  0.1389
 4454TIP3    H134777   6.694   2.982  12.211 -1.4113 -2.3765 -0.2160
 4454TIP3    H234778   6.809   2.928  12.293  0.2732  1.0871 -0.1159
 4455TIP3   OH234779   5.005   2.730  13.102 -0.0926 -0.1066 -0.7793
 4455TIP3    H134780   4.946   2.763  13.034  0.9897  1.7453 -0.8858
 4455TIP3    H234781   4.979   2.778  13.181 -0.1899 -0.9600 -0.2744
 4456TIP3   OH234782   4.416   4.303  15.228  0.2397  0.5663  0.3373
 4456TIP3    H134783   4.402   4.363  15.302 -0.1016  2.7556 -1.3817
 4456TIP3    H234784   4.511   4.294  15.221  0.2892  0.8002  0.6992
 4457TIP3   OH234785   3.732   6.333  11.498  0.6510 -0.0841  0.0302
 4457TIP3    H134786   3.731   6.267  11.566 -3.0158 -0.0899  0.2067
 4457TIP3    H234787   3.719   6.284  11.417 -0.0704  0.2492 -0.0648
 4458TIP3   OH234788   0.662   0.618   3.740 -0.0562  0.4930 -0.0970
 4458TIP3    H134789   0.756   0.600   3.740  0.1926  1.5805  1.5661
 4458TIP3    H234790   0.628   0.567   3.666  1.9871  0.9987 -1.4687
 4459TIP3   OH234791   6.734   5.270   0.297 -0.6135 -0.1982 -0.1195
 4459TIP3    H134792   6.679   5.346   0.278 -0.2289  0.1362  0.1031
 4459TIP3    H234793   6.768   5.242   0.212 -1.6459 -0.8138 -0.3517
 4460TIP3   OH234794   1.883   3.373   0.248 -0.7611  0.2670 -0.6270
 4460TIP3    H134795   1.976   3.371   0.272 -0.8912 -0.0279 -0.1311
 4460TIP3    H234796   1.848   3.450   0.293 -0.5075  1.0982 -1.7955
 4461TIP3   OH234797   3.236   2.159  16.282  0.1523 -0.2154 -0.3722
 4461TIP3    H134798   3.332   2.165  16.292 -0.0883  2.8712  1.6931
 4461TIP3    H234799   3.206   2.115  16.361 -0.2397  2.1205  0.8920
 4462TIP3   OH234800   6.092   3.437   1.572  0.2259 -0.1409  0.3092
 4462TIP3    H134801   6.101   3.502   1.503 -0.7242  0.4696  0.7433
 4462TIP3    H234802   6.158   3.462   1.637 -1.8389  2.0464  1.7231
 4463TIP3   OH234803   5.797   0.833  12.123 -0.2538 -0.0366  0.1373
 4463TIP3    H134804   5.883   0.820  12.165 -0.3876 -2.6902 -0.1988
 4463TIP3    H234805   5.734   0.822  12.194 -0.3590  1.7537  0.3536
 4464TIP3   OH234806   0.330   4.000   2.802 -0.0512 -0.4762 -0.2034
 4464TIP3    H134807   0.424   4.004   2.821 -0.0955 -1.2262  0.2224
 4464TIP3    H234808   0.320   4.046   2.719  0.6510 -0.1350 -0.1084
 4465TIP3   OH234809   1.788   4.638  12.324 -0.1013  0.2117  0.3796
 4465TIP3    H134810   1.750   4.707  12.270  1.7343  0.4033 -0.7824
 4465TIP3    H234811   1.720   4.571  12.330 -0.4695  0.2725 -2.0697
 4466TIP3   OH234812   3.825   2.007   2.647 -0.3131  0.5873 -0.0584
 4466TIP3    H134813   3.891   2.077   2.644 -1.1497  1.4532  1.1532
 4466TIP3    H234814   3.777   2.022   2.728 -1.9150 -0.1099 -0.8344
 4467TIP3   OH234815   1.115   3.180  12.970  0.0663  0.2821  0.3736
 4467TIP3    H134816   1.144   3.210  12.884 -0.2438  0.4546  0.3273
 4467TIP3    H234817   1.065   3.253  13.006 -1.0564 -0.3163  0.0809
 4468TIP3   OH234818   3.461   3.216   1.605  0.6175 -0.9560 -0.3178
 4468TIP3    H134819   3.471   3.286   1.540  1.5996 -0.8466 -0.0696
 4468TIP3    H234820   3.546   3.212   1.649 -0.8427  1.1251  3.1487
 4469TIP3   OH234821   4.995   4.751  14.957 -0.1823 -0.1493  0.4548
 4469TIP3    H134822   4.901   4.763  14.961  0.0297  1.2618  2.0648
 4469TIP3    H234823   5.027   4.775  15.044  1.6740 -0.5881 -0.0499
 4470TIP3   OH234824   6.250   5.597   0.945 -0.0674 -0.5295 -0.2005
 4470TIP3    H134825   6.321   5.535   0.960 -0.3364 -1.0458 -1.0435
 4470TIP3    H234826   6.182   5.569   1.006  0.6515  0.3254  1.0357
 4471TIP3   OH234827   3.470   2.481  16.789 -0.6248 -0.3381 -0.2771
 4471TIP3    H134828   3.450   2.514  16.701 -1.0930  0.6952  0.2123
 4471TIP3    H234829   3.518   2.399  16.772 -1.7948 -0.8135 -1.4783
 4472TIP3   OH234830   2.765   1.574  16.876  0.3079 -0.3213 -0.6956
 4472TIP3    H134831   2.816   1.530  16.808  2.3860  0.9435 -0.0249
 4472TIP3    H234832   2.771   1.515  16.952 -0.5629 -0.9072 -1.0699
 4473TIP3   OH234833   4.673   0.694   1.777 -0.1740  0.1220 -0.6584
 4473TIP3    H134834   4.614   0.750   1.827 -0.7477 -0.9128 -0.1665
 4473TIP3    H234835   4.759   0.736   1.787  0.2408 -1.2369  3.1735
 4474TIP3   OH234836   0.594   0.381   0.716  0.6671 -0.1881 -0.7294
 4474TIP3    H134837   0.536   0.320   0.671  0.2283  0.4608 -1.0642
 4474TIP3    H234838   0.536   0.433   0.771  0.8852  0.6715 -1.3000
 4475TIP3   OH234839   2.164   3.441  14.470 -0.3258 -0.1007 -0.1705
 4475TIP3    H134840   2.137   3.475  14.555  1.6083  0.1629  0.4019
 4475TIP3    H234841   2.178   3.519  14.416  1.1268 -0.0856  0.1775
 4476TIP3   OH234842   1.042   1.007   2.295  0.4678  0.1865  0.6064
 4476TIP3    H134843   1.009   1.045   2.376  0.8221 -0.8675  1.2594
 4476TIP3    H234844   1.116   0.952   2.322 -0.1371 -1.1153 -0.2770
 4477TIP3   OH234845   0.355   6.437   3.804  0.5195 -0.1292 -0.0166
 4477TIP3    H134846   0.272   6.404   3.771  0.2689 -1.3165  1.6539
 4477TIP3    H234847   0.383   6.371   3.868  2.9987 -0.0156 -0.8811
 4478TIP3   OH234848   0.391   2.683  15.162 -0.0212 -0.1140 -0.5039
 4478TIP3    H134849   0.309   2.642  15.136 -0.0986  0.2461 -0.8402
 4478TIP3    H234850   0.413   2.741  15.089  0.3964 -0.0106 -0.2996
 4479TIP3   OH234851   5.384   2.526  14.939 -0.1341  0.1328 -0.2540
 4479TIP3    H134852   5.475   2.513  14.966 -0.0511 -0.4095 -0.7774
 4479TIP3    H234853   5.333   2.503  15.017  0.1931  1.0040  0.2259
 4480TIP3   OH234854   6.635   3.870  15.329  0.1040  0.3352  0.5597
 4480TIP3    H134855   6.621   3.793  15.384  1.8306  1.0083  2.0340
 4480TIP3    H234856   6.583   3.939  15.370 -0.1249  0.3655  0.2203
 4481TIP3   OH234857   5.123   4.435   5.003 -0.2910  0.3737 -0.2759
 4481TIP3    H134858   5.131   4.530   5.001  0.8159  0.3136  0.3777
 4481TIP3    H234859   5.088   4.415   5.090  0.7276  0.1207  0.0878
 4482TIP3   OH234860   3.041   0.917   3.090  0.8367 -0.2615 -0.3339
 4482TIP3    H134861   2.983   0.971   3.036  0.5342  0.9592  1.1421
 4482TIP3    H234862   3.058   0.839   3.037  2.6722  1.9652 -3.3177
 4483TIP3   OH234863   1.252   0.921  11.606 -0.0521 -0.2533  0.3823
 4483TIP3    H134864   1.291   1.007  11.620  1.6380 -0.6497 -1.3885
 4483TIP3    H234865   1.237   0.887  11.694 -0.4577  1.6969  1.1215
 4484TIP3   OH234866   2.156   3.791   2.010 -0.6649  0.4141 -0.0683
 4484TIP3    H134867   2.202   3.728   1.955 -1.4166 -0.3059  0.0997
 4484TIP3    H234868   2.099   3.737   2.065 -1.0160  1.2166  0.3708
 4485TIP3   OH234869   4.266   3.201   5.079 -0.0138  0.5118  0.3539
 4485TIP3    H134870   4.315   3.218   5.159 -1.1332  1.9625  0.7770
 4485TIP3    H234871   4.334   3.181   5.014  1.4330  4.3106  0.4235
 4486TIP3   OH234872   6.075   5.294   3.953  0.1090 -0.1919 -0.0809
 4486TIP3    H134873   6.083   5.234   4.027 -0.7850  0.2141  0.3560
 4486TIP3    H234874   6.057   5.379   3.993  0.7864  0.2629 -0.7201
 4487TIP3   OH234875   0.798   2.724   6.412  0.2137 -0.0150 -0.2382
 4487TIP3    H134876   0.704   2.712   6.429  0.1870 -0.0127 -0.3811
 4487TIP3    H234877   0.839   2.644   6.445  0.3226  0.5623  1.0984
 4488TIP3   OH234878   1.641   2.713   5.837  0.1249  0.1760  0.1277
 4488TIP3    H134879   1.612   2.682   5.751 -0.0138 -1.1180  0.6258
 4488TIP3    H234880   1.562   2.752   5.875 -0.6127 -1.8757  0.8187
 4489TIP3   OH234881   0.029   3.567   5.735  0.2202 -0.3213 -0.5810
 4489TIP3    H134882  -0.006   3.580   5.823  0.9204 -2.0101  0.0033
 4489TIP3    H234883  -0.047   3.542   5.683  0.0878 -1.3408  0.0587
 4490TIP3   OH234884   2.036   3.194  13.893 -0.7186  0.6978  0.0010
 4490TIP3    H134885   1.950   3.225  13.864 -1.6773 -2.5838 -1.0161
 4490TIP3    H234886   2.097   3.260  13.859 -2.6755  2.5532 -0.1865
 4491TIP3   OH234887   2.825   2.625  14.746  0.3992 -0.3645  0.3754
 4491TIP3    H134888   2.883   2.632  14.821  1.2007 -0.5896 -0.2073
 4491TIP3    H234889   2.778   2.708  14.744  1.6687  0.3784  0.0868
 4492TIP3   OH234890   4.960   1.923   4.629  0.5925  0.7598  0.5354
 4492TIP3    H134891   5.010   1.866   4.572  0.8686  1.2363  0.3026
 4492TIP3    H234892   5.025   1.975   4.676  0.3601  0.5818  1.0674
 4493TIP3   OH234893   6.379   1.737   0.952  0.0336  0.0764 -0.4599
 4493TIP3    H134894   6.453   1.746   1.013  0.3478  0.2923 -0.8722
 4493TIP3    H234895   6.396   1.800   0.883  0.4236 -1.1556 -1.5346
 4494TIP3   OH234896   2.347   2.024  11.218  0.0088 -0.2725 -0.2292
 4494TIP3    H134897   2.289   2.026  11.142 -0.5609  0.5306  0.2078
 4494TIP3    H234898   2.342   1.934  11.250 -1.7313 -0.0030  0.3425
 4495TIP3   OH234899   0.854   4.745  15.979  0.7121  0.1271 -0.1787
 4495TIP3    H134900   0.853   4.775  16.070 -0.5354 -0.3936 -0.0048
 4495TIP3    H234901   0.895   4.659  15.982  0.3603 -0.0371 -0.0577
 4496TIP3   OH234902   5.353   5.945  11.052 -0.3519 -0.0550  0.7386
 4496TIP3    H134903   5.391   5.860  11.029  0.9598  0.9918 -1.2981
 4496TIP3    H234904   5.261   5.926  11.070 -0.0906 -1.9047  0.3508
 4497TIP3   OH234905   1.137   6.447   3.840 -0.3023  0.3509 -0.0978
 4497TIP3    H134906   1.055   6.495   3.832 -0.3123  0.4156  0.3960
 4497TIP3    H234907   1.155   6.416   3.751 -2.9410 -3.0802  0.3387
 4498TIP3   OH234908   1.103   3.282  10.799  0.2149 -0.0910  0.4908
 4498TIP3    H134909   1.193   3.315  10.800 -0.1518  0.9333  1.2856
 4498TIP3    H234910   1.108   3.198  10.845  0.9139 -0.5127 -0.3145
 4499TIP3   OH234911   4.674   5.097  11.579 -0.1533  0.1849  0.5915
 4499TIP3    H134912   4.671   5.160  11.650 -1.0534 -1.2153  1.8590
 4499TIP3    H234913   4.696   5.149  11.501  0.3523  1.8225  1.7858
 4500TIP3   OH234914   6.605   4.248   2.316  0.0464 -0.2505 -0.2644
 4500TIP3    H134915   6.645   4.300   2.385 -1.2814  0.1606  0.2439
 4500TIP3    H234916   6.636   4.159   2.331 -0.6631 -0.2859  1.2631
 4501TIP3   OH234917   3.132   1.382   2.033  0.2529  0.5602 -0.1928
 4501TIP3    H134918   3.176   1.443   2.093  1.2792  0.7244 -1.0929
 4501TIP3    H234919   3.202   1.349   1.977 -0.3064 -1.3368  0.1558
 4502TIP3   OH234920   2.859   5.137  12.702 -0.2916  0.7637 -0.3777
 4502TIP3    H134921   2.888   5.049  12.726 -0.4896  0.6083 -0.6944
 4502TIP3    H234922   2.827   5.176  12.783  2.3210  1.5574  0.3676
 4503TIP3   OH234923   3.951   6.640  13.428 -0.1825 -0.1694  0.0779
 4503TIP3    H134924   3.919   6.563  13.474  0.6072 -0.7740 -0.3522
 4503TIP3    H234925   3.872   6.691  13.409 -0.8363 -1.3221 -0.4394
 4504TIP3   OH234926   3.320   3.666  11.205 -0.3635  0.5610  0.1228
 4504TIP3    H134927   3.229   3.646  11.180 -0.0883 -2.9007  1.2451
 4504TIP3    H234928   3.313   3.702  11.294 -0.6507 -1.4677  0.9822
 4505TIP3   OH234929   3.848   4.766  13.085 -0.2000 -0.0458 -0.6067
 4505TIP3    H134930   3.793   4.818  13.145 -0.0820 -0.6299  0.0238
 4505TIP3    H234931   3.846   4.815  13.003 -0.2877  0.8274 -0.1008
 4506TIP3   OH234932   1.384   5.527  13.613 -0.5762  0.6599  0.5169
 4506TIP3    H134933   1.435   5.512  13.692  0.8056  2.6228  0.0752
 4506TIP3    H234934   1.371   5.439  13.576 -1.6705 -0.3790  3.0743
 4507TIP3   OH234935   1.513   6.531  11.717 -0.5082 -0.1096 -0.0483
 4507TIP3    H134936   1.432   6.559  11.673 -0.7887 -0.5817  0.1654
 4507TIP3    H234937   1.503   6.561  11.807 -0.3600  0.0010 -0.0682
 4508TIP3   OH234938   5.739   2.266  10.699  0.3346 -0.3510  0.7162
 4508TIP3    H134939   5.785   2.329  10.754 -0.5515  0.8417  0.1535
 4508TIP3    H234940   5.795   2.256  10.622 -0.4484  1.3778 -0.1364
 4509TIP3   OH234941   6.388   0.088   3.901  0.2222 -0.0534  0.1156
 4509TIP3    H134942   6.379   0.132   3.985  2.1236 -0.8207  0.7633
 4509TIP3    H234943   6.473   0.045   3.904 -0.6014 -1.9733 -1.3257
 4510TIP3   OH234944   4.975   1.234   5.279  0.4895 -0.4661 -0.0728
 4510TIP3    H134945   5.029   1.171   5.327 -0.1115 -2.2146 -1.5397
 4510TIP3    H234946   4.996   1.218   5.187 -3.5372 -2.4285 -0.8858
 4511TIP3   OH234947   4.289   5.210  11.209  0.4131 -0.3355 -0.3618
 4511TIP3    H134948   4.375   5.234  11.175  1.0549 -0.4339  1.1468
 4511TIP3    H234949   4.261   5.138  11.153  0.0367  1.4610 -2.6583
 4512TIP3   OH234950   1.972   1.692   6.054 -0.2933 -0.4183  0.4359
 4512TIP3    H134951   1.955   1.627   6.122  0.6047 -1.0205  0.0983
 4512TIP3    H234952   1.989   1.773   6.103 -2.8139 -0.0289  0.8313
 4513TIP3   OH234953   3.800   3.897  10.663  0.2107  0.0515 -0.3194
 4513TIP3    H134954   3.836   3.984  10.643 -0.3464 -0.2902 -3.3527
 4513TIP3    H234955   3.714   3.915  10.699  0.9065  0.7618  1.0599
 4514TIP3   OH234956   0.339   1.717  15.786 -0.1103  0.9676  0.1939
 4514TIP3    H134957   0.378   1.685  15.705 -2.4808  1.3104 -1.1773
 4514TIP3    H234958   0.384   1.669  15.855  0.3404 -1.1080 -1.4611
 4515TIP3   OH234959   5.494   4.784  13.873 -0.2645  0.1318  0.0136
 4515TIP3    H134960   5.431   4.851  13.900  0.1169  1.0231 -1.1947
 4515TIP3    H234961   5.536   4.821  13.795  0.8222 -1.0047  0.0243
 4516TIP3   OH234962   4.175   4.592  15.886 -0.0545  0.0798 -0.3527
 4516TIP3    H134963   4.151   4.592  15.793 -0.1823  2.0113 -0.3541
 4516TIP3    H234964   4.262   4.632  15.888 -0.2069  0.3821  0.3872
 4517TIP3   OH234965   5.776   0.104   3.368  0.6170  0.2987 -0.0090
 4517TIP3    H134966   5.767   0.009   3.362 -0.7625  0.4148 -0.0226
 4517TIP3    H234967   5.732   0.138   3.291  2.4777  0.9218 -0.8647
 4518TIP3   OH234968   1.188   4.487   1.741 -0.4231 -0.2086  0.4425
 4518TIP3    H134969   1.224   4.529   1.663 -2.6559  0.0623 -0.5081
 4518TIP3    H234970   1.158   4.402   1.711 -2.0134  0.2023  0.7896
 4519TIP3   OH234971   2.590   6.717  11.175 -0.4755  1.0564  0.3439
 4519TIP3    H134972   2.523   6.665  11.132 -0.0638  0.1734  0.7456
 4519TIP3    H234973   2.552   6.805  11.183 -0.2081  1.5172 -2.6012
 4520TIP3   OH234974   3.826   1.701  13.862 -0.3044  0.5186 -0.9491
 4520TIP3    H134975   3.866   1.730  13.944  2.0075 -0.9968 -1.4292
 4520TIP3    H234976   3.797   1.612  13.879 -0.3095  0.3884 -1.6138
 4521TIP3   OH234977   0.112   6.386  14.664 -0.8864  0.1536  0.1713
 4521TIP3    H134978   0.153   6.334  14.733  0.2033 -0.2545 -0.7570
 4521TIP3    H234979   0.020   6.359  14.666 -0.5828 -0.8983  0.5242
 4522TIP3   OH234980   2.099   0.898  13.917 -0.0234  0.2451  0.6254
 4522TIP3    H134981   2.008   0.912  13.893  0.3841  1.4387 -0.3018
 4522TIP3    H234982   2.149   0.950  13.855  1.3257 -0.6905  0.8722
 4523TIP3   OH234983   5.319   0.214   3.922  0.0724 -0.3608  0.8451
 4523TIP3    H134984   5.302   0.278   3.991  0.7447 -0.1719  0.8456
 4523TIP3    H234985   5.331   0.266   3.843 -0.0318 -0.5319  0.7165
 4524TIP3   OH234986   4.375   0.034   4.287 -0.2141 -1.3020  0.7084
 4524TIP3    H134987   4.463   0.047   4.324 -0.0455  2.4327 -0.5917
 4524TIP3    H234988   4.389   0.027   4.193 -1.2992  3.4660 -0.0659
 4525TIP3   OH234989   1.408   5.161  10.471 -0.0819  0.1537  0.1625
 4525TIP3    H134990   1.402   5.068  10.490  1.2270  0.5448  3.0906
 4525TIP3    H234991   1.502   5.177  10.458 -0.1062  1.2702  1.2171
 4526TIP3   OH234992   2.265   0.840   3.887  0.1185 -0.3216 -0.2780
 4526TIP3    H134993   2.266   0.833   3.982 -3.6128 -1.5359 -0.1410
 4526TIP3    H234994   2.206   0.914   3.869  1.2592  0.2995 -1.6781
 4527TIP3   OH234995   6.015   4.230  17.056 -0.6298 -0.7611  0.1889
 4527TIP3    H134996   6.043   4.275  17.135 -1.3684 -1.5676  0.9240
 4527TIP3    H234997   5.935   4.275  17.030 -0.5026 -0.6335  0.0107
 4528TIP3   OH234998   6.044   6.302   5.277  0.2984 -0.5962  0.0916
 4528TIP3    H134999   6.098   6.371   5.239 -1.7177  0.0466 -1.8271
 4528TIP3    H235000   6.028   6.330   5.367 -0.8609  1.7615 -0.7718
 4529TIP3   OH235001   6.189   2.820  12.719 -0.0865 -0.2849 -0.3118
 4529TIP3    H135002   6.149   2.734  12.733  0.1184 -0.7618 -2.3261
 4529TIP3    H235003   6.133   2.861  12.652 -0.0331  1.0722  0.4316
 4530TIP3   OH235004   5.344   6.342   1.025 -0.4367 -0.0580 -0.2923
 4530TIP3    H135005   5.301   6.295   1.096 -1.3910  1.0360 -0.1063
 4530TIP3    H235006   5.350   6.277   0.954 -2.0011 -0.3950 -0.1545
 4531TIP3   OH235007   3.858   2.880   5.355  0.2892 -0.3538 -0.1042
 4531TIP3    H135008   3.785   2.833   5.395 -0.5878  0.4109 -0.7499
 4531TIP3    H235009   3.820   2.919   5.276  1.0435  1.1835  0.2596
 4532TIP3   OH235010   3.358   4.075  11.003  0.2356 -0.1485 -0.1430
 4532TIP3    H135011   3.378   4.058  11.095  3.5016 -0.4916 -0.7812
 4532TIP3    H235012   3.432   4.127  10.972  0.3910 -1.8793 -3.0757
 4533TIP3   OH235013   3.821   2.888  10.844  0.3292 -0.5229  0.5240
 4533TIP3    H135014   3.731   2.853  10.847 -0.2130  0.5384 -1.6725
 4533TIP3    H235015   3.836   2.906  10.751  2.2818  0.7327  1.0457
 4534TIP3   OH235016   3.833   5.773   5.419 -0.0142 -0.5103  0.3902
 4534TIP3    H135017   3.880   5.856   5.408  1.7537 -1.1019  2.8914
 4534TIP3    H235018   3.832   5.735   5.331  1.4447  0.9635 -0.3241
 4535TIP3   OH235019   2.495   3.556  14.463  0.4133 -0.7785  0.0856
 4535TIP3    H135020   2.441   3.627  14.427  1.1393 -1.0060 -1.5322
 4535TIP3    H235021   2.452   3.533  14.546 -0.0575  1.2790  0.4717
 4536TIP3   OH235022   0.406   0.115   1.501 -0.4771  0.3045 -0.6795
 4536TIP3    H135023   0.446   0.202   1.496  0.5638 -0.0877  0.3613
 4536TIP3    H235024   0.479   0.054   1.490 -1.0193 -0.4314 -0.2806
 4537TIP3   OH235025   4.740   4.704   1.675  0.5556 -0.4579 -0.1897
 4537TIP3    H135026   4.821   4.726   1.629  0.8044  0.3786  0.6282
 4537TIP3    H235027   4.673   4.706   1.606  1.0858 -0.2512 -0.7088
 4538TIP3   OH235028   1.339   2.278  11.176 -0.1214  0.2097  0.5331
 4538TIP3    H135029   1.330   2.307  11.085 -1.1073  0.2278  0.6337
 4538TIP3    H235030   1.393   2.198  11.170 -2.0507 -1.1034 -0.3268
 4539TIP3   OH235031   2.589   1.506  12.498  0.0714  0.1503  0.4029
 4539TIP3    H135032   2.651   1.480  12.430  0.7912  1.3999  0.5417
 4539TIP3    H235033   2.609   1.598  12.515 -0.2960 -0.0373  2.0963
 4540TIP3   OH235034   3.099   1.166   2.209  0.1214 -0.0383  0.4797
 4540TIP3    H135035   3.182   1.154   2.255 -0.5559  1.9989  2.4716
 4540TIP3    H235036   3.115   1.238   2.148 -0.2971  0.8290  1.3584
 4541TIP3   OH235037   1.269   5.171   4.899  0.2035  0.2503 -0.2023
 4541TIP3    H135038   1.280   5.089   4.851 -1.0006 -0.0170 -0.0550
 4541TIP3    H235039   1.264   5.238   4.830 -2.0755 -0.1908 -0.5531
 4542TIP3   OH235040   1.375   1.140   3.426 -0.1686 -0.4939 -0.1472
 4542TIP3    H135041   1.373   1.226   3.384 -2.0866 -0.6419 -0.4675
 4542TIP3    H235042   1.457   1.139   3.474  1.1241  0.5222 -2.1574
 4543TIP3   OH235043   1.993   0.668  14.309 -0.6348  0.4056  0.0275
 4543TIP3    H135044   2.048   0.684  14.232  1.0210 -1.4680  0.7453
 4543TIP3    H235045   1.909   0.639  14.272  0.1405 -0.4876 -1.0962
 4544TIP3   OH235046   5.434   5.348   6.293 -0.3085 -0.1297 -0.4623
 4544TIP3    H135047   5.369   5.416   6.277 -2.6660 -2.1713 -0.1712
 4544TIP3    H235048   5.420   5.323   6.384  0.7509 -0.7624 -0.4629
 4545TIP3   OH235049   1.818   6.100   6.208 -0.8165  0.0798  0.8089
 4545TIP3    H135050   1.840   6.009   6.228 -0.3531 -0.3544 -1.4560
 4545TIP3    H235051   1.723   6.100   6.199 -0.8367 -0.1236  0.9936
 4546TIP3   OH235052   5.423   5.988   5.187  0.1843  0.6483 -0.3576
 4546TIP3    H135053   5.474   6.010   5.110 -0.4695  1.8552 -0.4734
 4546TIP3    H235054   5.433   6.064   5.245  0.3986 -0.0941  0.6179
 4547TIP3   OH235055   4.037   2.264  16.950 -0.0780 -0.4560 -0.0776
 4547TIP3    H135056   4.131   2.278  16.958  0.2637 -1.4175 -1.8452
 4547TIP3    H235057   4.018   2.189  17.006  0.2428 -0.3719  0.1406
 4548TIP3   OH235058   2.016   4.984  15.531 -0.6512  0.1156 -0.2682
 4548TIP3    H135059   1.927   4.969  15.564 -1.1116  1.6848 -0.6999
 4548TIP3    H235060   2.072   4.975  15.608 -1.3211  0.2551  0.2430
 4549TIP3   OH235061   4.108   2.608  16.684  0.2835 -0.0861  0.0887
 4549TIP3    H135062   4.164   2.546  16.731 -0.4270 -1.1191 -0.3827
 4549TIP3    H235063   4.110   2.688  16.736  1.2000 -0.5208  0.7265
 4550TIP3   OH235064   5.735   5.281  12.762 -0.1507  0.2719 -0.0504
 4550TIP3    H135065   5.787   5.307  12.686 -0.4080  0.7149 -0.0775
 4550TIP3    H235066   5.797   5.284  12.835  0.5134 -1.6728 -0.4476
 4551TIP3   OH235067   6.055   6.096  12.807  0.0282 -0.4470  0.1282
 4551TIP3    H135068   6.110   6.039  12.753  1.8986 -0.2725  1.7242
 4551TIP3    H235069   6.110   6.172  12.826 -1.2387  0.3654  0.7453
 4552TIP3   OH235070   5.059   5.104   6.329 -0.2252  0.0688  0.0223
 4552TIP3    H135071   5.071   5.196   6.351  0.6485  0.3212 -1.3879
 4552TIP3    H235072   4.978   5.079   6.374 -0.1291  1.3253  0.9587
 4553TIP3   OH235073   6.583   4.630  16.893  0.7307  0.3508  0.5939
 4553TIP3    H135074   6.633   4.645  16.813  0.1281  0.4400  0.2290
 4553TIP3    H235075   6.612   4.544  16.924 -0.1980 -0.4267 -0.6024
 4554TIP3   OH235076   2.297   3.556   2.203 -0.4530 -0.2691  0.3435
 4554TIP3    H135077   2.266   3.503   2.276  0.5449 -0.9262  0.3005
 4554TIP3    H235078   2.325   3.638   2.244 -1.5075  0.0475  0.4711
 4555TIP3   OH235079   1.349   1.971   1.278  0.2088  0.0631  0.2797
 4555TIP3    H135080   1.270   2.006   1.236 -1.0782 -1.0854  1.6490
 4555TIP3    H235081   1.414   1.969   1.208 -1.0436  0.7941 -0.9599
 4556TIP3   OH235082   5.843   4.538  11.364 -0.1894  0.6116 -0.3543
 4556TIP3    H135083   5.833   4.632  11.346 -0.4908  0.7025  0.2608
 4556TIP3    H235084   5.921   4.531  11.418  0.9395  0.2963 -1.9660
 4557TIP3   OH235085   4.349   1.702   5.049  0.2161 -0.3663  0.2299
 4557TIP3    H135086   4.297   1.623   5.034  0.1916 -0.2966 -0.0561
 4557TIP3    H235087   4.433   1.684   5.007 -0.0523  0.0571 -0.5042
 4558TIP3   OH235088   0.665   0.228   3.965 -0.2539  0.1569 -0.2064
 4558TIP3    H135089   0.742   0.222   3.909 -0.5403  0.9679 -0.7053
 4558TIP3    H235090   0.660   0.320   3.990 -1.8553  0.4259 -1.3380
 4559TIP3   OH235091   2.006   2.154  15.907 -0.2125 -0.0908  0.4475
 4559TIP3    H135092   1.984   2.242  15.876  0.6073  0.1621  0.5638
 4559TIP3    H235093   1.949   2.140  15.983 -1.2629 -0.1788 -0.3331
 4560TIP3   OH235094   3.343   5.673   6.414 -0.5366  0.0066  0.5221
 4560TIP3    H135095   3.381   5.617   6.481 -1.7571 -0.8073  0.5671
 4560TIP3    H235096   3.417   5.699   6.359  0.6696  1.4472  2.6657
 4561TIP3   OH235097   1.980   4.243   4.433 -0.1932  0.1516  0.1323
 4561TIP3    H135098   2.039   4.188   4.486  0.5514  0.0617 -0.7726
 4561TIP3    H235099   2.015   4.332   4.443 -0.2528  0.1829  0.0579
 4562TIP3   OH235100   5.612   4.448  17.237  0.0161  0.2365 -0.3918
 4562TIP3    H135101   5.563   4.500  17.173 -1.7728 -0.9048 -0.0219
 4562TIP3    H235102   5.659   4.383  17.184 -0.0348  0.4076 -0.6508
 4563TIP3   OH235103   1.697   3.831   3.322 -0.4924 -0.0336  0.5338
 4563TIP3    H135104   1.746   3.910   3.298 -0.0417 -0.3623  0.3759
 4563TIP3    H235105   1.654   3.854   3.405  1.3948 -0.3599  1.6577
 4564TIP3   OH235106   2.241   2.142   2.473  0.2161 -0.4889 -0.3913
 4564TIP3    H135107   2.171   2.084   2.502 -1.0687  1.1095 -0.1292
 4564TIP3    H235108   2.268   2.189   2.552 -0.6915  1.1755 -1.0004
 4565TIP3   OH235109   5.408   5.133  15.026 -0.4833 -0.0550 -0.2342
 4565TIP3    H135110   5.468   5.158  15.096 -0.2273  1.6892 -1.0071
 4565TIP3    H235111   5.381   5.044  15.047  2.2330 -0.8639  0.2365
 4566TIP3   OH235112   3.490   5.243  10.775 -0.1904 -0.7715 -0.1093
 4566TIP3    H135113   3.561   5.222  10.835 -0.0572  0.4821  0.1834
 4566TIP3    H235114   3.456   5.327  10.805 -0.7479 -0.5745 -1.2128
 4567TIP3   OH235115   0.687   2.855   3.909 -0.3356 -0.0046  0.0793
 4567TIP3    H135116   0.767   2.874   3.860  0.1942 -0.8517  0.6045
 4567TIP3    H235117   0.618   2.858   3.843  0.1765  0.2918 -0.4606
 4568TIP3   OH235118   1.199   6.154  16.769 -0.4316  0.2954  0.3120
 4568TIP3    H135119   1.153   6.188  16.846  0.1715  1.0813  0.3332
 4568TIP3    H235120   1.156   6.196  16.695  0.1236  0.8905  0.3217
 4569TIP3   OH235121   0.375   3.313   1.786  0.5873 -1.1071 -0.4405
 4569TIP3    H135122   0.404   3.391   1.738 -0.6323 -0.3301  0.0298
 4569TIP3    H235123   0.415   3.322   1.872 -1.3012  0.2212  0.3747
 4570TIP3   OH235124   1.784   4.979  16.495 -0.3520  0.0397 -0.0298
 4570TIP3    H135125   1.691   4.962  16.481 -0.9724  1.0058  2.4038
 4570TIP3    H235126   1.803   4.940  16.580  0.6734  2.4931  0.9570
 4571TIP3   OH235127   0.883   5.600  16.715  0.0536 -0.0128  0.5130
 4571TIP3    H135128   0.852   5.676  16.666 -0.6345 -0.6473 -0.0562
 4571TIP3    H235129   0.979   5.606  16.710  0.0885 -1.0901 -2.6514
 4572TIP3   OH235130   2.656   5.251  10.452 -0.3603  0.0802 -0.0896
 4572TIP3    H135131   2.740   5.209  10.469 -0.1573 -0.6473 -2.6089
 4572TIP3    H235132   2.591   5.187  10.481 -0.0767  0.1511  0.7378
 4573TIP3   OH235133   0.383   5.227   1.368  0.0074 -0.0544  0.2774
 4573TIP3    H135134   0.357   5.148   1.320  0.9674 -0.5277  0.5129
 4573TIP3    H235135   0.457   5.199   1.421  2.6688  1.8050 -2.1805
 4574TIP3   OH235136   4.360   3.035   3.912  0.1268 -0.7046 -0.2724
 4574TIP3    H135137   4.436   2.978   3.904 -0.0332 -1.0168  0.3414
 4574TIP3    H235138   4.285   2.975   3.903 -0.0644 -0.8523  1.7186
 4575TIP3   OH235139   1.514   5.320  14.301 -0.3332  0.5640 -0.0207
 4575TIP3    H135140   1.546   5.328  14.211  0.3960  0.5165  0.2289
 4575TIP3    H235141   1.437   5.262  14.294  0.6569 -0.7659 -0.4153
 4576TIP3   OH235142   3.834   3.537   4.310  0.1142  0.3840  0.3166
 4576TIP3    H135143   3.859   3.520   4.220  0.7178  0.0547  0.5387
 4576TIP3    H235144   3.910   3.510   4.362 -0.8605 -1.0974  1.0576
 4577TIP3   OH235145   3.647   4.325   4.822 -0.2330 -0.4191 -0.1801
 4577TIP3    H135146   3.640   4.417   4.796  2.6236 -0.0631 -0.0144
 4577TIP3    H235147   3.732   4.297   4.789 -0.9374 -2.9639 -0.0148
 4578TIP3   OH235148   0.723   4.783   4.057  0.3711 -0.1440 -0.2982
 4578TIP3    H135149   0.645   4.765   4.005 -0.0555  0.9128 -0.0451
 4578TIP3    H235150   0.709   4.871   4.093  0.7070 -0.7966  1.5372
 4579TIP3   OH235151   4.266   4.781  16.681  0.2065 -0.7576  0.6300
 4579TIP3    H135152   4.345   4.750  16.726  2.3708  1.8526 -1.0294
 4579TIP3    H235153   4.199   4.785  16.750  2.4988  0.2735  2.9880
 4580TIP3   OH235154   5.120   4.654  15.533  0.3019 -0.2481 -0.8032
 4580TIP3    H135155   5.045   4.616  15.487  0.5572  1.2655 -2.5966
 4580TIP3    H235156   5.084   4.730  15.580  0.2748 -1.0667  0.5756
 4581TIP3   OH235157   0.880   5.911  16.230  0.6106 -0.2165 -0.3473
 4581TIP3    H135158   0.792   5.948  16.225  0.5463 -0.1623  0.9590
 4581TIP3    H235159   0.889   5.860  16.149 -1.3970 -1.9069  0.3912
 4582TIP3   OH235160   6.632   1.300  14.828 -0.1110 -1.2865 -0.9922
 4582TIP3    H135161   6.556   1.261  14.785 -1.7856  2.4482 -1.8985
 4582TIP3    H235162   6.596   1.351  14.900  1.8523 -1.3781  0.1372
 4583TIP3   OH235163   1.895   0.353  16.661 -0.1443 -0.6366  0.0848
 4583TIP3    H135164   1.971   0.381  16.711  0.5666 -0.1634 -1.2174
 4583TIP3    H235165   1.903   0.398  16.577 -1.5553 -1.0315 -0.2908
 4584TIP3   OH235166   3.559   2.168  14.243  0.7680  0.5244  0.3161
 4584TIP3    H135167   3.615   2.174  14.320 -0.3801 -1.0159  1.3177
 4584TIP3    H235168   3.471   2.187  14.276  0.0966 -1.2026 -0.3549
 4585TIP3   OH235169   3.700   5.772   3.963  0.2607 -0.1178 -0.6637
 4585TIP3    H135170   3.784   5.737   3.992 -0.3774  0.9146  2.8409
 4585TIP3    H235171   3.669   5.825   4.036 -3.0594  0.2674 -2.1722
 4586TIP3   OH235172   1.772   6.567   4.042 -0.0580  0.1746 -0.2862
 4586TIP3    H135173   1.679   6.579   4.062  0.3396  0.9949  1.2164
 4586TIP3    H235174   1.777   6.572   3.947 -1.3848  1.5036 -0.3221
 4587TIP3   OH235175   1.172   3.776  12.849 -0.2837 -0.8618 -0.0705
 4587TIP3    H135176   1.115   3.850  12.871 -0.2271 -1.7543  3.8294
 4587TIP3    H235177   1.261   3.808  12.866 -0.0785 -1.2061 -0.4599
 4588TIP3   OH235178   0.638   6.103   1.145 -0.0647  0.2939 -0.2785
 4588TIP3    H135179   0.605   6.051   1.218  1.0047 -0.6070 -0.4125
 4588TIP3    H235180   0.636   6.044   1.070 -2.3954  1.5811 -1.3556
 4589TIP3   OH235181   6.649   4.621  13.975  0.0061  0.7847 -0.0684
 4589TIP3    H135182   6.654   4.624  14.070  1.9615 -0.3407 -0.0715
 4589TIP3    H235183   6.724   4.672  13.945 -0.0453  0.3611 -0.9760
 4590TIP3   OH235184   2.337   5.056   4.368  0.2254 -0.1240  0.1147
 4590TIP3    H135185   2.328   5.148   4.346  0.8976 -0.3047 -0.9910
 4590TIP3    H235186   2.430   5.037   4.354  0.4294 -0.5980  1.8590
 4591TIP3   OH235187   5.532   6.633   0.405 -0.3419 -0.3883  0.1181
 4591TIP3    H135188   5.492   6.720   0.401  1.7922  0.6280 -0.7871
 4591TIP3    H235189   5.538   6.605   0.314 -0.8768 -1.4498  0.3945
 4592TIP3   OH235190   5.259   3.802  15.330  0.0742  0.2686  0.0186
 4592TIP3    H135191   5.215   3.799  15.245 -0.3741  0.3976  0.2402
 4592TIP3    H235192   5.347   3.835  15.311 -0.3249  1.1981 -0.2733
 4593TIP3   OH235193   3.208   5.655  14.094  0.6413 -0.4737 -0.5922
 4593TIP3    H135194   3.132   5.596  14.083  0.5352 -0.5668  0.5311
 4593TIP3    H235195   3.273   5.621  14.033  0.6087 -1.8282  0.0929
 4594TIP3   OH235196   5.556   2.007   5.389 -0.1333  0.4826 -0.2337
 4594TIP3    H135197   5.592   2.094   5.369  1.4478 -0.6898 -3.1770
 4594TIP3    H235198   5.622   1.966   5.445  0.6891  0.1226 -1.4342
 4595TIP3   OH235199   2.874   5.179  11.327 -0.5032 -0.3448  0.0304
 4595TIP3    H135200   2.959   5.137  11.337  0.3209  1.0979 -0.5760
 4595TIP3    H235201   2.817   5.134  11.390  1.0088 -0.5151  1.3320
 4596TIP3   OH235202   2.131   1.568   2.591  0.0696  0.5752  0.7069
 4596TIP3    H135203   2.054   1.534   2.636  0.8577 -0.9629  0.9378
 4596TIP3    H235204   2.168   1.493   2.545 -0.5748  1.9968 -2.4228
 4597TIP3   OH235205   4.215   4.600  16.234  0.3264 -0.1884 -0.0896
 4597TIP3    H135206   4.161   4.651  16.174 -0.5730  1.8306  2.2872
 4597TIP3    H235207   4.300   4.593  16.189 -0.3350  1.1081 -1.6437
 4598TIP3   OH235208   6.201   6.158  16.560  0.2768  0.0248  0.0181
 4598TIP3    H135209   6.289   6.194  16.572  0.1922 -0.6386  4.0379
 4598TIP3    H235210   6.172   6.134  16.648 -3.4544 -1.0340 -1.2778
 4599TIP3   OH235211   2.323   4.315  15.541 -0.3521 -0.2268 -0.1713
 4599TIP3    H135212   2.391   4.345  15.602  0.0740  0.1158 -0.8111
 4599TIP3    H235213   2.368   4.259  15.479 -0.6643 -0.0513 -0.5648
 4600TIP3   OH235214   1.018   5.426   2.294  0.5202  0.6165 -0.3413
 4600TIP3    H135215   1.008   5.331   2.290 -5.2375  0.8719 -0.4587
 4600TIP3    H235216   1.011   5.455   2.203  1.0400  1.2224 -0.1961
 4601TIP3   OH235217   0.857   5.197   2.382  0.3423  0.1994 -0.5097
 4601TIP3    H135218   0.929   5.136   2.397  0.9916  0.8715 -0.8331
 4601TIP3    H235219   0.793   5.175   2.450  0.0384 -1.5963 -1.3389
 4602TIP3   OH235220   1.369   1.045  12.778 -0.0956  0.0991 -0.1461
 4602TIP3    H135221   1.379   0.961  12.732 -1.2776 -0.4249  0.5042
 4602TIP3    H235222   1.277   1.047  12.804  0.5534  0.2712  2.3767
 4603TIP3   OH235223   0.410   2.078  13.248  0.0549 -0.0659 -0.3085
 4603TIP3    H135224   0.458   2.071  13.165 -1.1592  1.4514 -1.1906
 4603TIP3    H235225   0.320   2.058  13.224 -0.1901 -0.3556  0.8236
 4604TIP3   OH235226   3.019   4.445   1.401 -0.1558 -0.0966 -0.3065
 4604TIP3    H135227   3.113   4.461   1.394 -0.4385  2.1176  0.1474
 4604TIP3    H235228   2.978   4.526   1.368 -1.9366 -1.2647 -1.1619
 4605TIP3   OH235229   3.887   2.207   3.292  0.5490  0.4607  0.1229
 4605TIP3    H135230   3.828   2.265   3.242  0.2749  0.4014  0.3756
 4605TIP3    H235231   3.967   2.258   3.301  0.6008  0.4772 -0.3737
 4606TIP3   OH235232   3.549   0.193   4.417 -0.3696  0.5661 -0.1796
 4606TIP3    H135233   3.602   0.223   4.491  0.2887  0.0958 -0.4483
 4606TIP3    H235234   3.481   0.260   4.408 -1.4091 -0.1416  1.8178
 4607TIP3   OH235235   6.130   5.377  11.375  0.2371 -0.0388  0.1313
 4607TIP3    H135236   6.046   5.422  11.368  0.2372  0.1645  1.3241
 4607TIP3    H235237   6.138   5.330  11.292 -0.7739  0.4108 -0.2421
 4608TIP3   OH235238   1.322   6.203   5.999  0.4998 -0.1899 -0.8323
 4608TIP3    H135239   1.320   6.230   5.907  0.7400 -1.1886 -1.1465
 4608TIP3    H235240   1.277   6.119   6.000  0.3262 -0.0889  0.0017
 4609TIP3   OH235241   3.449   0.512   2.329  0.7099 -0.3150 -0.0369
 4609TIP3    H135242   3.368   0.506   2.279 -0.8231  0.6947  2.1646
 4609TIP3    H235243   3.489   0.594   2.301  0.0862  0.0311  0.0599
 4610TIP3   OH235244   2.468   4.968   1.334  0.4572 -0.2034  0.0539
 4610TIP3    H135245   2.534   4.905   1.303 -0.8882 -2.2878  1.1455
 4610TIP3    H235246   2.398   4.963   1.269  0.8053  1.0642 -0.4442
 4611TIP3   OH235247   5.699   1.081  13.881 -0.1263  0.2603  0.0984
 4611TIP3    H135248   5.788   1.108  13.860 -0.0062 -0.4722 -0.3482
 4611TIP3    H235249   5.665   1.044  13.800 -0.5341 -0.2559  0.4978
 4612TIP3   OH235250   2.096   0.153   4.674  0.1616 -0.1467 -0.3611
 4612TIP3    H135251   2.025   0.114   4.623  0.7288 -0.6200 -0.7992
 4612TIP3    H235252   2.162   0.177   4.609  1.2218 -1.4563  0.1759
 4613TIP3   OH235253   2.835   1.962  13.569  0.1320 -0.1705  0.1356
 4613TIP3    H135254   2.852   2.043  13.520 -0.0303  0.2386  0.7454
 4613TIP3    H235255   2.877   1.975  13.653  2.6357 -1.8941 -0.7308
 4614TIP3   OH235256   4.680   5.043   5.198 -0.1846 -0.2838 -0.0522
 4614TIP3    H135257   4.608   5.015   5.141  0.6608 -2.7162 -0.0576
 4614TIP3    H235258   4.669   5.137   5.207 -3.0119 -0.4896 -0.5275
 4615TIP3   OH235259   4.737   1.538  17.041  0.4169 -0.1062 -0.5944
 4615TIP3    H135260   4.772   1.543  17.130 -1.1164 -1.8891  0.1759
 4615TIP3    H235261   4.721   1.445  17.026 -0.5472  0.2772 -2.2700
 4616TIP3   OH235262   2.017   5.863  11.511 -0.0061 -0.2727 -0.1580
 4616TIP3    H135263   2.042   5.823  11.594  1.6284  1.1619  0.0990
 4616TIP3    H235264   2.080   5.829  11.447  0.4710  0.7128 -0.2306
 4617TIP3   OH235265   3.574   6.684   1.933 -0.2870  0.0796  0.2629
 4617TIP3    H135266   3.618   6.636   2.003  0.6591  0.6120  0.0604
 4617TIP3    H235267   3.482   6.685   1.959 -0.0347 -0.1824  1.2377
 4618TIP3   OH235268   6.079   4.549  16.286  0.8184  0.3113  0.0830
 4618TIP3    H135269   6.017   4.617  16.313 -0.5628 -1.4253  1.5473
 4618TIP3    H235270   6.054   4.528  16.196  0.3071  0.7240  0.1259
 4619TIP3   OH235271   3.438   4.486   1.865 -0.1247  0.1275  0.1019
 4619TIP3    H135272   3.434   4.483   1.769 -0.3517 -0.9169  0.1368
 4619TIP3    H235273   3.410   4.399   1.893  1.7034 -0.1943  1.0539
 4620TIP3   OH235274   0.345   6.037  11.994 -0.0181 -0.4189 -0.0744
 4620TIP3    H135275   0.333   5.973  12.064  0.3223 -1.0140 -0.5484
 4620TIP3    H235276   0.273   6.018  11.933 -0.4906  0.2887  0.2421
 4621TIP3   OH235277   3.748   0.247   0.988 -0.2726  0.4891  0.4103
 4621TIP3    H135278   3.835   0.286   0.998 -0.6463  1.0201  1.7691
 4621TIP3    H235279   3.758   0.157   1.017  0.5679 -0.4985 -2.6288
 4622TIP3   OH235280   2.655   1.817  17.337 -0.4985 -0.1562  0.2008
 4622TIP3    H135281   2.601   1.877  17.287 -2.5739 -0.8139  1.5370
 4622TIP3    H235282   2.642   1.732  17.295 -2.7419 -0.8315  2.0971
 4623TIP3   OH235283   2.548   3.512   4.814 -0.0787 -0.2079 -0.1947
 4623TIP3    H135284   2.505   3.433   4.846 -0.1269 -0.5956 -1.1950
 4623TIP3    H235285   2.634   3.511   4.856  0.1066 -1.0550 -0.5687
 4624TIP3   OH235286   4.116   0.367   5.575 -0.5588 -0.9262 -0.2894
 4624TIP3    H135287   4.183   0.321   5.526  0.8777  2.3513 -1.7026
 4624TIP3    H235288   4.059   0.406   5.508  0.4958  2.3174  0.4968
 4625TIP3   OH235289   6.671   5.041   1.496  0.0909  0.0075  0.2304
 4625TIP3    H135290   6.715   4.956   1.498  2.6501  1.2215 -0.3121
 4625TIP3    H235291   6.741   5.105   1.510 -1.6813  2.0659  0.2552
 4626TIP3   OH235292   4.347   6.435  16.599 -0.0777  0.1085  0.2397
 4626TIP3    H135293   4.377   6.499  16.663 -1.2209  0.8455  0.0626
 4626TIP3    H235294   4.252   6.435  16.608 -0.1085 -1.4612  0.1198
 4627TIP3   OH235295   1.132   2.667  13.646 -0.0842 -0.2118  0.5713
 4627TIP3    H135296   1.200   2.703  13.589 -0.1445 -0.9623  0.0243
 4627TIP3    H235297   1.051   2.707  13.615 -0.0143 -0.0062  0.6500
 4628TIP3   OH235298   5.061   6.048   1.564  0.0526 -0.0598  0.1850
 4628TIP3    H135299   5.095   6.051   1.653 -0.0295  0.4018  0.1995
 4628TIP3    H235300   5.014   6.130   1.553  0.0393 -0.1260 -0.2762
 4629TIP3   OH235301   4.812   2.553  13.629  0.2909 -0.3572  0.1162
 4629TIP3    H135302   4.774   2.598  13.704 -2.6060 -0.1947 -1.3049
 4629TIP3    H235303   4.818   2.621  13.561 -1.6777 -1.3969 -1.2221
 4630TIP3   OH235304   5.975   4.132   2.309 -0.4306  0.3417 -0.0739
 4630TIP3    H135305   5.903   4.071   2.323  0.7658 -1.3301 -0.8676
 4630TIP3    H235306   5.944   4.190   2.240 -0.9471 -0.4839 -0.5541
 4631TIP3   OH235307   2.596   6.047  15.921 -0.3074  0.0572 -0.5562
 4631TIP3    H135308   2.596   6.028  15.827 -0.0955 -2.8934 -0.0631
 4631TIP3    H235309   2.506   6.028  15.949 -0.1805  0.1710 -0.0578
 4632TIP3   OH235310   3.803   1.686  12.366  0.4968 -0.0648  0.1255
 4632TIP3    H135311   3.796   1.778  12.391  1.3922  0.4739 -1.4623
 4632TIP3    H235312   3.726   1.669  12.312  1.3478  0.3873 -1.3031
 4633TIP3   OH235313   6.328   3.704  12.908  0.3589 -0.5514  1.0860
 4633TIP3    H135314   6.237   3.690  12.936 -0.4728  1.0683 -0.6283
 4633TIP3    H235315   6.341   3.798  12.912  1.1005 -0.4987 -1.1211
 4634TIP3   OH235316   0.261   6.202  16.533 -0.2256  0.3049 -0.1714
 4634TIP3    H135317   0.226   6.289  16.519 -0.5829  0.5083  1.6964
 4634TIP3    H235318   0.275   6.197  16.628 -0.5886 -1.7941 -0.1782
 4635TIP3   OH235319   6.384   1.346  11.804  0.0024 -0.2288 -0.9058
 4635TIP3    H135320   6.313   1.365  11.865 -2.3420  0.0337 -3.5227
 4635TIP3    H235321   6.418   1.261  11.832  0.9493  1.0611  2.3287
 4636TIP3   OH235322   5.295   3.397   1.421  0.2069 -0.3058  0.3547
 4636TIP3    H135323   5.294   3.327   1.487 -3.0850 -0.1836  0.5817
 4636TIP3    H235324   5.366   3.455   1.450  1.9729 -2.6437  1.0519
 4637TIP3   OH235325   6.314   3.176   2.930 -0.1167  0.0829 -0.5939
 4637TIP3    H135326   6.399   3.186   2.971 -0.2799 -0.0329 -0.2284
 4637TIP3    H235327   6.329   3.201   2.839  0.3053  0.0629 -0.5328
 4638TIP3   OH235328   1.441   6.732  16.658  0.4979  0.3439  0.3870
 4638TIP3    H135329   1.423   6.645  16.622 -0.9589  0.5891  0.4914
 4638TIP3    H235330   1.522   6.759  16.615  0.9533 -1.0420  0.3196
 4639TIP3   OH235331   2.577   5.699   2.695  0.3347  0.0007  0.4290
 4639TIP3    H135332   2.654   5.665   2.740 -0.2900 -0.4370  1.1915
 4639TIP3    H235333   2.510   5.707   2.764 -0.6521 -0.7108 -0.4070
 4640TIP3   OH235334   5.610   5.184  15.231  0.0503 -0.4526  0.2051
 4640TIP3    H135335   5.611   5.187  15.327  3.1754  2.4423  0.2600
 4640TIP3    H235336   5.617   5.275  15.204  0.5107 -1.2708 -2.7953
 4641TIP3   OH235337   0.571   2.241   4.447 -0.1930  0.3437  0.0339
 4641TIP3    H135338   0.530   2.309   4.500 -2.1945 -0.2575 -0.6631
 4641TIP3    H235339   0.586   2.282   4.362 -2.8209 -0.4106 -0.8923
 4642TIP3   OH235340   0.798   3.698  14.638 -0.3717 -0.3193 -0.3637
 4642TIP3    H135341   0.725   3.670  14.693 -0.7939 -0.0098 -0.7653
 4642TIP3    H235342   0.860   3.625  14.642  0.8958  0.7864  2.7636
 4643TIP3   OH235343   6.472   3.991  11.856 -0.2086 -0.0463 -0.0055
 4643TIP3    H135344   6.466   3.934  11.779  0.0912 -1.3379  0.8845
 4643TIP3    H235345   6.550   4.045  11.840 -0.4839  0.0985 -0.8612
 4644TIP3   OH235346   4.764   4.967  11.961 -0.5156  0.2433  0.2091
 4644TIP3    H135347   4.756   5.013  12.045 -1.9091  1.0607 -0.3241
 4644TIP3    H235348   4.851   4.989  11.930  0.0764 -0.1776  1.4940
 4645TIP3   OH235349   6.504   5.730   2.740 -0.4272 -0.7441 -0.2131
 4645TIP3    H135350   6.547   5.649   2.765 -1.2910 -1.8622 -2.1512
 4645TIP3    H235351   6.571   5.779   2.692 -0.2400 -0.8089 -0.0199
 4646TIP3   OH235352   4.628   5.764   6.084 -0.2254 -0.2073  0.2673
 4646TIP3    H135353   4.689   5.763   6.158  0.5161  2.2020 -0.2240
 4646TIP3    H235354   4.681   5.742   6.008 -0.4253 -0.1763  0.1165
 4647TIP3   OH235355   0.071   4.579   1.125 -0.1093 -0.0360  0.8698
 4647TIP3    H135356  -0.018   4.601   1.098  0.8750  1.6795 -1.2693
 4647TIP3    H235357   0.063   4.552   1.216 -2.8473 -0.3047  0.6242
 4648TIP3   OH235358   4.316   5.090  15.343  0.0115  0.3471 -0.3872
 4648TIP3    H135359   4.392   5.042  15.377  0.2406  1.3069  0.4960
 4648TIP3    H235360   4.347   5.130  15.262  0.4810  0.8145  0.0192
 4649TIP3   OH235361   3.960   4.641  12.288  0.1009  0.6371 -0.3064
 4649TIP3    H135362   3.914   4.717  12.252 -2.1894 -0.2764  0.5332
 4649TIP3    H235363   3.897   4.569  12.281  2.1642 -1.2085 -0.9800
 4650TIP3   OH235364   5.637   4.906  11.940 -0.3928 -0.1255 -1.0540
 4650TIP3    H135365   5.701   4.929  11.873  1.4306 -0.6210  0.4458
 4650TIP3    H235366   5.667   4.952  12.018 -1.1890 -1.3226 -0.0122
 4651TIP3   OH235367   0.009   6.492  12.581 -0.1322 -0.1210 -0.7163
 4651TIP3    H135368   0.103   6.494  12.596 -0.2517 -1.4492  0.3639
 4651TIP3    H235369  -0.001   6.455  12.493  0.3314 -1.6683 -0.1492
 4652TIP3   OH235370   1.448   5.697  14.775  0.2561 -0.4338 -0.2400
 4652TIP3    H135371   1.385   5.661  14.712 -0.5743  0.9115 -0.2056
 4652TIP3    H235372   1.441   5.639  14.851 -0.5945 -0.5790 -0.4162
 4653TIP3   OH235373   2.430   6.332   3.966  0.5161 -0.2185  0.6383
 4653TIP3    H135374   2.409   6.364   4.054 -0.8949  2.0228 -0.4164
 4653TIP3    H235375   2.515   6.289   3.975  0.7937  0.6953  2.9250
 4654TIP3   OH235376   5.482   0.836   4.782 -0.0679 -0.2940 -0.6937
 4654TIP3    H135377   5.565   0.871   4.749 -0.8667  0.3117 -2.1590
 4654TIP3    H235378   5.451   0.778   4.712 -0.0327 -1.9476  0.5947
 4655TIP3   OH235379   1.800   1.681  14.163  0.2009 -0.4572  0.1713
 4655TIP3    H135380   1.727   1.631  14.128 -0.1843 -1.7755  2.5848
 4655TIP3    H235381   1.834   1.626  14.234  0.7023  2.0565  2.0105
 4656TIP3   OH235382   3.766   4.870   5.349  0.0477 -0.1097  0.0649
 4656TIP3    H135383   3.808   4.786   5.370  0.9210  0.4774  0.7734
 4656TIP3    H235384   3.695   4.848   5.290  0.0227 -1.3974  0.5495
 4657TIP3   OH235385   1.219   3.791   5.012  0.1789  0.0113 -0.4948
 4657TIP3    H135386   1.208   3.747   5.096  1.2430 -0.4068 -0.5650
 4657TIP3    H235387   1.212   3.721   4.947 -0.9376  0.3742 -0.7898
 4658TIP3   OH235388   4.247   3.855  13.796  0.3418  0.2903  0.1163
 4658TIP3    H135389   4.296   3.932  13.824  0.3151 -0.1352  1.3942
 4658TIP3    H235390   4.258   3.792  13.867 -0.9260 -0.3172 -0.1970
 4659TIP3   OH235391   5.536   6.536   1.014 -0.7202 -0.0165 -0.0084
 4659TIP3    H135392   5.546   6.532   1.109  1.6446 -0.9717 -0.2367
 4659TIP3    H235393   5.463   6.477   0.995  0.0224 -1.3378  1.0857
 4660TIP3   OH235394   6.496   6.092  16.298  1.3762  0.6873  0.1739
 4660TIP3    H135395   6.514   6.055  16.384  0.9968 -0.1638 -0.1002
 4660TIP3    H235396   6.460   6.178  16.316 -1.5982 -0.6082  1.0352
 4661TIP3   OH235397   0.434   5.187   3.566 -0.0180 -0.0884  0.3227
 4661TIP3    H135398   0.508   5.166   3.624  0.8709  0.6868 -0.4964
 4661TIP3    H235399   0.467   5.256   3.509 -1.4793  0.4600  0.1036
 4662TIP3   OH235400   2.905   3.862  13.597  0.2960  0.1563 -0.1447
 4662TIP3    H135401   2.914   3.908  13.514  0.5489 -0.1234 -0.2757
 4662TIP3    H235402   2.980   3.802  13.600 -1.3566 -2.1220 -1.1841
 4663TIP3   OH235403   2.825   0.003  14.733  0.8378 -0.6867 -0.4670
 4663TIP3    H135404   2.745  -0.007  14.682  0.4979 -2.0505  0.2958
 4663TIP3    H235405   2.863  -0.085  14.736  1.1733 -0.5155  1.1052
 4664TIP3   OH235406   6.718   0.001   1.966 -0.2103 -0.4449 -0.0406
 4664TIP3    H135407   6.787   0.066   1.979  0.6023 -1.5688  1.5715
 4664TIP3    H235408   6.727  -0.025   1.875  0.4796  0.5572 -0.2800
 4665TIP3   OH235409   3.665   1.796   3.851 -0.1762  0.0053 -0.0351
 4665TIP3    H135410   3.679   1.875   3.902 -0.7322 -1.3453  2.3611
 4665TIP3    H235411   3.570   1.783   3.852 -0.3589  0.5627 -2.5344
 4666TIP3   OH235412   2.315   2.746   0.930  0.1524  0.6101  0.4388
 4666TIP3    H135413   2.251   2.675   0.929 -0.3451  1.0547  0.3477
 4666TIP3    H235414   2.396   2.705   0.962 -0.6230  0.4280  2.2934
 4667TIP3   OH235415   0.244   2.362   3.410  0.0394 -0.5107  0.7245
 4667TIP3    H135416   0.169   2.403   3.453  1.1297  0.0041  2.2126
 4667TIP3    H235417   0.282   2.431   3.356 -0.5745 -0.7925 -0.0876
 4668TIP3   OH235418   6.533   3.163  15.663 -0.5682 -0.2809 -0.4945
 4668TIP3    H135419   6.581   3.117  15.732 -0.9413  0.6327  0.4045
 4668TIP3    H235420   6.473   3.098  15.628 -0.2754 -0.8010 -0.0545
 4669TIP3   OH235421   1.697   5.992   0.159 -0.1003  0.2828 -0.2989
 4669TIP3    H135422   1.740   5.907   0.171 -1.0207 -0.5404 -2.3760
 4669TIP3    H235423   1.754   6.054   0.204  0.7802 -1.3775  0.9968
 4670TIP3   OH235424   3.599   5.876  11.818  0.0107  0.8593 -0.9878
 4670TIP3    H135425   3.560   5.878  11.731 -0.7242 -1.4228 -0.7966
 4670TIP3    H235426   3.536   5.923  11.873 -1.2611 -0.5641 -1.1502
 4671TIP3   OH235427   2.003   1.397  12.010 -0.3309 -0.7320  0.6762
 4671TIP3    H135428   1.944   1.381  12.084  1.8952 -1.5474  2.3978
 4671TIP3    H235429   2.037   1.485  12.025 -0.9396 -0.3391 -0.1945
 4672TIP3   OH235430   3.288   5.376   0.694 -0.2445 -0.5137  0.2922
 4672TIP3    H135431   3.363   5.419   0.652  0.9064 -1.9381  0.7894
 4672TIP3    H235432   3.250   5.444   0.750  1.5059 -0.0945  1.0501
 4673TIP3   OH235433   4.284   0.759   5.142  0.1509 -0.3245 -0.5010
 4673TIP3    H135434   4.206   0.731   5.095  0.6457 -0.6115 -1.1536
 4673TIP3    H235435   4.284   0.707   5.222 -1.7773  1.5647  0.8451
 4674TIP3   OH235436   4.800   3.203   5.853  0.0867  0.0786  0.2772
 4674TIP3    H135437   4.886   3.199   5.811  0.3390 -3.8532  0.7864
 4674TIP3    H235438   4.818   3.234   5.942  1.1066 -0.9931  0.4743
 4675TIP3   OH235439   0.898   2.727   1.125  0.2850  0.2239 -0.2817
 4675TIP3    H135440   0.843   2.704   1.050 -0.0126 -1.3137  0.3602
 4675TIP3    H235441   0.972   2.665   1.120  0.6750  0.6366  0.2463
 4676TIP3   OH235442   4.859   1.958   1.326  0.4300 -0.1694 -0.6443
 4676TIP3    H135443   4.818   1.887   1.375  0.3675  0.5405  0.3700
 4676TIP3    H235444   4.940   1.977   1.374  0.8344 -0.0678 -1.3491
 4677TIP3   OH235445   3.073   4.362  15.987 -0.3490  0.6846  0.4680
 4677TIP3    H135446   3.136   4.291  15.999  0.9056  1.5518 -0.6608
 4677TIP3    H235447   3.042   4.351  15.897 -0.8355  1.0402  0.5903
 4678TIP3   OH235448   2.050   6.054   1.820  0.4109  0.4552  0.1624
 4678TIP3    H135449   2.122   5.995   1.796 -1.0605 -1.1741 -0.4729
 4678TIP3    H235450   2.049   6.053   1.916  0.5329 -0.4086  0.1613
 4679TIP3   OH235451   3.127   0.692  16.631 -0.1417 -0.2886  0.3393
 4679TIP3    H135452   3.192   0.757  16.655 -1.3490  2.0241 -2.0670
 4679TIP3    H235453   3.148   0.670  16.540 -1.6602 -0.8150  0.0903
 4680TIP3   OH235454   3.666   2.424  17.024 -0.7643  0.4651 -0.7055
 4680TIP3    H135455   3.758   2.448  17.038 -0.1749 -1.2902 -1.3098
 4680TIP3    H235456   3.622   2.454  17.104  0.7607 -0.7128  0.6668
 4681TIP3   OH235457   6.072   2.475   2.978  0.8963 -0.2709 -0.3089
 4681TIP3    H135458   6.143   2.508   2.923  0.4488  0.4819 -0.4478
 4681TIP3    H235459   6.019   2.422   2.918  0.8674 -0.1319 -0.4072
 4682TIP3   OH235460   1.597   2.894   2.315  0.5360  0.2226  0.2920
 4682TIP3    H135461   1.568   2.976   2.276  0.4933  1.1010  2.0721
 4682TIP3    H235462   1.526   2.832   2.296  0.4925  0.6216 -0.9151
 4683TIP3   OH235463   2.231   5.795  11.311 -0.3230 -0.1332  0.3936
 4683TIP3    H135464   2.289   5.739  11.259  0.3338 -0.1989  1.1597
 4683TIP3    H235465   2.270   5.882  11.304 -0.6964  0.0092  0.1151
 4684TIP3   OH235466   3.162   2.452  13.486  0.2957  0.1351 -0.0999
 4684TIP3    H135467   3.168   2.547  13.471  2.3844 -0.1220 -1.2844
 4684TIP3    H235468   3.252   2.424  13.498 -0.0504 -2.0161 -1.8849
 4685TIP3   OH235469   2.072   5.338   2.538 -0.1317 -0.1191  0.2465
 4685TIP3    H135470   2.120   5.270   2.492 -2.2375 -1.7522  0.3359
 4685TIP3    H235471   2.031   5.390   2.469 -2.5323 -2.0080  0.1353
 4686TIP3   OH235472   5.486   1.225   0.020 -0.1162  0.4347  0.3264
 4686TIP3    H135473   5.401   1.262   0.042  0.4539  0.6299  2.5211
 4686TIP3    H235474   5.470   1.131   0.012 -0.8229  0.6459 -1.1251
 4687TIP3   OH235475   0.370   2.546  15.919  0.0065  0.1522  0.2866
 4687TIP3    H135476   0.377   2.528  15.825 -0.3391  0.2251  0.2454
 4687TIP3    H235477   0.446   2.601  15.939 -0.8441  1.5937 -0.3077
 4688TIP3   OH235478   6.618   0.070  17.276 -0.0788  0.0861  0.0483
 4688TIP3    H135479   6.700   0.106  17.311 -0.1753 -0.9491  1.4358
 4688TIP3    H235480   6.549   0.117  17.322 -0.2589  0.4219 -0.5595
 4689TIP3   OH235481   3.707   0.288   5.374  0.0292  0.4519 -0.1096
 4689TIP3    H135482   3.651   0.211   5.367  0.5191  0.1031 -0.2567
 4689TIP3    H235483   3.749   0.280   5.459 -1.2001  1.4516  0.6250
 4690TIP3   OH235484   2.060   0.815   5.956  0.3467  0.2699 -0.9210
 4690TIP3    H135485   1.979   0.864   5.957 -0.3408 -0.8377  0.0092
 4690TIP3    H235486   2.078   0.799   5.863 -1.1731 -0.5477 -1.0953
 4691TIP3   OH235487   2.361   5.080   0.271 -0.1128  0.2635 -0.0117
 4691TIP3    H135488   2.356   5.054   0.179 -0.4879  1.9385 -0.5008
 4691TIP3    H235489   2.454   5.094   0.288  0.0548 -0.9534  0.1567
 4692TIP3   OH235490   5.304   4.456  11.726  0.0101  0.4971  0.0701
 4692TIP3    H135491   5.287   4.536  11.776  1.4920  0.7359  0.2482
 4692TIP3    H235492   5.304   4.387  11.792 -0.0945  0.5109  0.0854
 4693TIP3   OH235493   4.271   2.275   4.448 -0.7049 -0.7031 -0.3363
 4693TIP3    H135494   4.332   2.311   4.513 -0.2169  0.1673 -1.2457
 4693TIP3    H235495   4.254   2.185   4.478  1.0372 -0.9724 -0.0685
 4694TIP3   OH235496   3.785   5.837  12.940 -0.0555  0.1727  0.3816
 4694TIP3    H135497   3.813   5.779  12.869  0.5067  2.1425 -1.0617
 4694TIP3    H235498   3.792   5.925  12.904 -0.6552  1.1876  2.5942
 4695TIP3   OH235499   6.081   3.690   2.127 -0.3885 -0.7810  0.2179
 4695TIP3    H135500   6.032   3.647   2.197 -0.4208 -0.3830  0.4453
 4695TIP3    H235501   6.111   3.619   2.071  0.5380 -1.1866  1.2159
 4696TIP3   OH235502   2.009   2.412   2.563  0.8956  0.8535  0.4477
 4696TIP3    H135503   2.071   2.361   2.511 -1.1584 -0.1092 -1.2026
 4696TIP3    H235504   1.992   2.490   2.510 -1.5772 -0.3570 -0.7456
 4697TIP3   OH235505   3.916   4.736   0.730 -0.3522 -0.5054  0.0463
 4697TIP3    H135506   3.973   4.662   0.711 -0.6324 -0.4250 -1.2406
 4697TIP3    H235507   3.828   4.697   0.736 -0.5391 -0.2598 -0.9200
 4698TIP3   OH235508   1.638   3.963   1.522  0.5468 -0.3574 -0.2698
 4698TIP3    H135509   1.609   4.035   1.466  1.5488  1.2464  1.1708
 4698TIP3    H235510   1.634   3.885   1.466 -0.2922  0.8487 -1.9600
 4699TIP3   OH235511   0.375   5.864  15.801 -0.0182 -0.1125  0.5248
 4699TIP3    H135512   0.420   5.779  15.809 -0.2796 -0.5494 -1.9883
 4699TIP3    H235513   0.282   5.842  15.804 -0.0850  0.1579  0.4089
 4700TIP3   OH235514   2.824   5.356   2.363  0.2635 -0.7584  0.5018
 4700TIP3    H135515   2.837   5.441   2.322  0.2303 -1.8494 -2.0126
 4700TIP3    H235516   2.749   5.368   2.420 -0.9257  0.5027 -1.2130
 4701TIP3   OH235517   3.442   3.540   4.590  0.1812  0.5044 -0.2506
 4701TIP3    H135518   3.426   3.457   4.545 -0.0147 -0.3877  1.3826
 4701TIP3    H235519   3.513   3.581   4.540  0.0376 -0.4723 -1.2949
 4702TIP3   OH235520   1.458   3.250  16.547 -0.2887 -0.1853 -0.6999
 4702TIP3    H135521   1.480   3.337  16.514 -0.0565 -0.3351 -0.9434
 4702TIP3    H235522   1.516   3.239  16.623 -2.1907  0.9649  1.0218
 4703TIP3   OH235523   2.760   5.861   5.057  1.4157  0.0502  0.4069
 4703TIP3    H135524   2.704   5.786   5.074 -1.9659  2.7154  2.1265
 4703TIP3    H235525   2.790   5.889   5.143 -1.3475  3.3025  0.5093
 4704TIP3   OH235526   5.300   0.901   2.578  0.2301 -0.1769 -0.2170
 4704TIP3    H135527   5.315   0.863   2.665 -0.9258  0.8184  0.4526
 4704TIP3    H235528   5.309   0.996   2.592 -2.7450  0.2199 -0.5326
 4705TIP3   OH235529   4.474   2.598   1.285  0.0489  0.2490  0.4099
 4705TIP3    H135530   4.386   2.564   1.300 -1.1143  2.6846 -0.2935
 4705TIP3    H235531   4.470   2.688   1.317  2.0345  0.6826 -0.4185
 4706TIP3   OH235532   4.788   1.587  12.233 -0.4463 -0.3074 -0.0150
 4706TIP3    H135533   4.737   1.646  12.289  1.1368 -0.2494  1.4345
 4706TIP3    H235534   4.860   1.558  12.288  0.6827 -0.9885 -1.7661
 4707TIP3   OH235535   1.323   0.238  13.525 -0.0762  0.0311  0.0794
 4707TIP3    H135536   1.369   0.295  13.587  0.6994 -1.2329  0.7073
 4707TIP3    H235537   1.240   0.218  13.567  0.3857 -0.7003  0.6807
 4708TIP3   OH235538   0.550   2.722   3.346 -0.1195  0.0426 -0.4580
 4708TIP3    H135539   0.635   2.765   3.353 -0.6942  1.0216  0.7955
 4708TIP3    H235540   0.489   2.793   3.325 -0.9520 -0.2676  0.8139
 4709TIP3   OH235541   4.997   3.969  12.210 -0.0257  0.6007  0.2415
 4709TIP3    H135542   4.940   3.925  12.147 -0.4620  1.1178  0.2621
 4709TIP3    H235543   5.071   4.000  12.158 -0.6292  1.4700 -0.1308
 4710TIP3   OH235544   5.646   5.877  14.014  0.2982 -0.2452 -0.2791
 4710TIP3    H135545   5.610   5.963  14.038  0.4265 -0.1236 -0.5148
 4710TIP3    H235546   5.594   5.814  14.063  1.1969  0.0466  1.1013
 4711TIP3   OH235547   4.184   0.220  11.421  0.4186 -0.3320  0.2717
 4711TIP3    H135548   4.266   0.172  11.407  0.9706  0.8196 -0.6135
 4711TIP3    H235549   4.116   0.153  11.414  1.2378 -1.2017  0.3719
 4712TIP3   OH235550   0.747   3.806   5.429 -0.4609  0.6262 -0.1154
 4712TIP3    H135551   0.830   3.793   5.384 -0.1650 -0.5359  0.7245
 4712TIP3    H235552   0.686   3.832   5.359  0.1577 -0.3921 -1.0674
 4713TIP3   OH235553   3.130   6.545  13.864 -0.1762  0.4498 -0.5200
 4713TIP3    H135554   3.041   6.582  13.871 -0.3002  0.0875 -0.1857
 4713TIP3    H235555   3.139   6.525  13.771 -0.6435  0.0007 -0.4750
 4714TIP3   OH235556   4.427   0.713   3.508  0.2281 -0.4563 -0.3694
 4714TIP3    H135557   4.449   0.799   3.545  0.9656 -1.2201  1.0343
 4714TIP3    H235558   4.502   0.691   3.453 -0.8018  0.6097 -2.3295
 4715TIP3   OH235559   0.936   2.748  10.995 -0.1336 -0.2096  0.2913
 4715TIP3    H135560   0.868   2.703  11.045  0.0042 -0.3017  0.3952
 4715TIP3    H235561   1.010   2.687  10.994  0.4618  0.4521  1.3996
 4716TIP3   OH235562   0.354   3.282   0.153 -0.2898 -0.0544  0.2935
 4716TIP3    H135563   0.263   3.299   0.128  0.3928  1.2946 -1.5432
 4716TIP3    H235564   0.387   3.368   0.179  1.1533  0.0589 -1.6604
 4717TIP3   OH235565   6.411   3.737  16.941  0.1601 -0.4130 -0.5408
 4717TIP3    H135566   6.356   3.674  16.895  0.3231  0.8239 -2.5646
 4717TIP3    H235567   6.362   3.758  17.021  1.1185 -4.6454  1.4146
 4718TIP3   OH235568   2.500   2.037  13.974 -0.4180 -0.3422  0.4416
 4718TIP3    H135569   2.507   2.121  13.929  1.0805 -0.4118  0.4819
 4718TIP3    H235570   2.430   2.049  14.039  1.0540  1.5311  1.7919
 4719TIP3   OH235571   2.432   2.461   1.942 -0.8759  0.7425  0.3565
 4719TIP3    H135572   2.472   2.383   1.902 -1.1763  0.7220  0.0884
 4719TIP3    H235573   2.485   2.534   1.910 -1.3266  0.7611 -0.3843
 4720TIP3   OH235574   4.180   1.772  15.935 -0.3166 -0.9592 -0.6340
 4720TIP3    H135575   4.124   1.845  15.908 -1.5206 -1.4637  0.4122
 4720TIP3    H235576   4.147   1.747  16.022  0.3690 -2.4477 -0.7710
 4721TIP3   OH235577   2.505   5.732  15.907 -0.7247  0.1326  0.5793
 4721TIP3    H135578   2.530   5.654  15.957  0.4215  0.3097  0.3014
 4721TIP3    H235579   2.465   5.790  15.973 -1.4785 -0.6142  0.8099
 4722TIP3   OH235580   0.201   5.272   1.864  0.4296  0.2150  0.1784
 4722TIP3    H135581   0.272   5.211   1.885  0.3390  0.1106  0.1783
 4722TIP3    H235582   0.215   5.346   1.924  0.6589  0.2864  0.0392
 4723TIP3   OH235583   1.556   1.176  12.227  0.5129  0.0235 -0.0982
 4723TIP3    H135584   1.620   1.110  12.254  1.5541  0.4167 -1.4837
 4723TIP3    H235585   1.593   1.215  12.148 -2.0304 -0.6642 -1.7759
 4724TIP3   OH235586   6.413   2.462   0.993 -0.2690 -0.0988  0.2572
 4724TIP3    H135587   6.361   2.399   0.943  0.1193 -0.7495  0.6637
 4724TIP3    H235588   6.365   2.544   0.985 -1.4464 -0.7167  0.7397
 4725TIP3   OH235589   2.634   5.492  12.470  0.4745  0.2642 -0.0807
 4725TIP3    H135590   2.616   5.578  12.433 -0.4883 -0.4875 -1.4220
 4725TIP3    H235591   2.695   5.451  12.408  0.5678 -0.1949  0.3077
 4726TIP3   OH235592   5.495   3.219  12.837 -0.2692  0.4254 -0.3391
 4726TIP3    H135593   5.429   3.164  12.878  1.8569 -2.2317 -0.2093
 4726TIP3    H235594   5.517   3.174  12.755  1.7186  0.8829 -0.1147
 4727TIP3   OH235595   3.639   1.656   4.635  0.5161 -0.3126 -0.2949
 4727TIP3    H135596   3.606   1.687   4.720 -1.1191  3.5331 -2.0869
 4727TIP3    H235597   3.562   1.625   4.589  0.8373  0.4242 -1.3708
 4728TIP3   OH235598   0.366   6.229  16.801  0.4637 -0.6075  0.4306
 4728TIP3    H135599   0.405   6.242  16.887  0.1203  1.4397  0.3473
 4728TIP3    H235600   0.436   6.193  16.747  1.3632  0.2177  1.0201
 4729TIP3   OH235601   0.087   6.655   5.146  0.3096  0.3530  0.3820
 4729TIP3    H135602   0.051   6.659   5.057 -1.4785 -0.2300  1.0249
 4729TIP3    H235603   0.180   6.639   5.134  0.1044  0.3199 -1.3860
 4730TIP3   OH235604   5.096   5.514  16.500  0.1255 -0.4399  0.4457
 4730TIP3    H135605   5.081   5.484  16.411  0.4672 -0.2543  0.3207
 4730TIP3    H235606   5.047   5.596  16.506  0.8537  0.0385  0.1183
 4731TIP3   OH235607   5.015   5.110   1.537 -0.3855 -0.1261 -0.1495
 4731TIP3    H135608   5.004   5.065   1.621 -0.2843  0.6978  0.3282
 4731TIP3    H235609   5.033   5.041   1.474  0.0821 -0.7166  0.6109
 4732TIP3   OH235610   4.176   0.888  16.874  0.6884  0.1594  0.1393
 4732TIP3    H135611   4.102   0.908  16.931  0.0497  0.5369 -0.8034
 4732TIP3    H235612   4.191   0.795  16.886  0.0609  0.0804  0.3484
 4733TIP3   OH235613   3.606   5.659  14.462 -0.2913  0.3210  0.5718
 4733TIP3    H135614   3.558   5.674  14.544  0.3844  1.9166  0.7080
 4733TIP3    H235615   3.538   5.647  14.396 -0.8710  0.9717  1.0405
 4734TIP3   OH235616   0.742   4.982  16.201  0.4440  1.3115  0.2313
 4734TIP3    H135617   0.760   5.068  16.163 -0.1911  0.7945 -1.3294
 4734TIP3    H235618   0.827   4.950  16.229  1.5943  0.4644 -3.6088
 4735TIP3   OH235619   4.108   3.261   3.791 -0.3947 -0.3342  0.1389
 4735TIP3    H135620   4.141   3.194   3.851  0.9554  1.2438  1.2450
 4735TIP3    H235621   4.019   3.233   3.771  0.1138 -2.4283  0.5774
 4736TIP3   OH235622   4.738   3.742   6.533  0.2634  0.3272 -0.3959
 4736TIP3    H135623   4.797   3.761   6.461 -0.2955 -0.3040 -1.0348
 4736TIP3    H235624   4.652   3.767   6.501  0.0728  0.5138  0.2431
 4737TIP3   OH235625   0.219   0.292  15.205 -0.2180 -0.1535  0.1950
 4737TIP3    H135626   0.244   0.359  15.268 -0.8446  0.1765  0.0961
 4737TIP3    H235627   0.142   0.250  15.243 -1.1670  0.6590 -0.7569
 4738TIP3   OH235628   5.012   5.139  11.448  0.2968 -0.4106 -0.2386
 4738TIP3    H135629   5.054   5.129  11.362  2.4276  1.0924  0.5261
 4738TIP3    H235630   5.066   5.205  11.493 -0.5837 -1.3519  2.3727
 4739TIP3   OH235631   4.887   3.233   5.057  0.1766 -0.4072  0.1118
 4739TIP3    H135632   4.857   3.144   5.037  1.4599 -0.6225 -1.0874
 4739TIP3    H235633   4.937   3.224   5.138  2.8547 -1.4527 -1.5166
 4740TIP3   OH235634   1.704   3.029   5.736 -0.4741  0.3563  0.4913
 4740TIP3    H135635   1.782   3.082   5.749 -0.0107 -0.2671  0.3085
 4740TIP3    H235636   1.682   2.997   5.824  0.7071 -1.1476  0.2838
 4741TIP3   OH235637   3.477   6.098  15.036  0.1496  0.5476 -0.2237
 4741TIP3    H135638   3.460   6.008  15.008  1.7352 -0.4161  1.7086
 4741TIP3    H235639   3.390   6.132  15.059 -0.3666 -0.8209 -0.0387
 4742TIP3   OH235640   1.927   1.513  12.438  0.9049 -0.0878 -0.4572
 4742TIP3    H135641   1.959   1.578  12.376  0.8020  0.7310  0.3197
 4742TIP3    H235642   1.871   1.456  12.387  0.3585  0.9184 -1.0027
 4743TIP3   OH235643   1.963   2.062   2.471 -0.6696  0.2563  0.4680
 4743TIP3    H135644   1.876   2.059   2.433 -0.5650 -1.4260  0.2931
 4743TIP3    H235645   1.948   2.075   2.565 -1.0194  1.5419  0.2601
 4744TIP3   OH235646   0.111   0.877  10.807  0.0923  0.4922 -0.1910
 4744TIP3    H135647   0.046   0.814  10.777 -0.1044 -0.0166  1.2391
 4744TIP3    H235648   0.063   0.935  10.866  0.2334  2.1136 -1.6026
 4745TIP3   OH235649   1.072   4.104  11.565  0.5870 -0.5023  0.1019
 4745TIP3    H135650   1.122   4.024  11.586  0.9959 -0.7350 -1.6411
 4745TIP3    H235651   0.985   4.088  11.602  0.6959 -1.7269 -0.1276
 4746TIP3   OH235652   4.451   3.836   2.189 -0.6319  0.2850  0.0530
 4746TIP3    H135653   4.507   3.910   2.164 -0.5475 -0.5355 -2.4741
 4746TIP3    H235654   4.365   3.876   2.206  0.4782  1.5247  3.7135
 4747TIP3   OH235655   5.815   5.117   6.615 -0.2045  0.4120 -0.0103
 4747TIP3    H135656   5.823   5.174   6.539  1.2663 -0.8894 -0.9042
 4747TIP3    H235657   5.906   5.098   6.640 -0.6687 -0.3646  1.1530
 4748TIP3   OH235658   1.508   3.439  16.919  0.2834  0.2030  0.0391
 4748TIP3    H135659   1.536   3.405  16.834 -0.1977  0.0470 -0.0597
 4748TIP3    H235660   1.589   3.468  16.961  0.3698  1.7222 -1.0976
 4749TIP3   OH235661   4.425   6.182   0.469  0.3327 -0.2809  0.7710
 4749TIP3    H135662   4.451   6.147   0.384 -0.2961  1.3893 -0.1388
 4749TIP3    H235663   4.457   6.272   0.469 -2.3209  0.7503  1.0070
 4750TIP3   OH235664   6.181   1.466  17.292  0.5127 -0.7832 -0.1074
 4750TIP3    H135665   6.177   1.427  17.379 -0.4722 -0.4632 -0.0012
 4750TIP3    H235666   6.195   1.559  17.307 -0.2721 -0.6342 -0.2671
 4751TIP3   OH235667   0.800   5.458  10.598 -0.0930  0.1915  0.2055
 4751TIP3    H135668   0.732   5.417  10.544  0.9155  0.1462 -1.1059
 4751TIP3    H235669   0.825   5.537  10.550 -0.3442  1.0862  1.5005
 4752TIP3   OH235670   4.460   4.126   3.060  0.3648 -0.1053 -0.4932
 4752TIP3    H135671   4.401   4.198   3.083  1.4443 -0.0531  2.5934
 4752TIP3    H235672   4.404   4.049   3.058 -0.3652  0.4296 -1.1123
 4753TIP3   OH235673   4.753   6.546   6.097  0.6265  0.1541  0.4989
 4753TIP3    H135674   4.720   6.525   6.185 -1.1398  0.5921 -0.0117
 4753TIP3    H235675   4.761   6.461   6.054  0.6237  0.0014  0.7948
 4754TIP3   OH235676   0.114   0.747   2.506 -0.2336 -0.6932  0.0177
 4754TIP3    H135677   0.119   0.651   2.514 -1.4239 -0.7411  0.2784
 4754TIP3    H235678   0.039   0.763   2.450  0.5133  0.0837 -0.7977
 4755TIP3   OH235679   2.923   0.825  14.801 -0.6410  0.2510  0.1274
 4755TIP3    H135680   2.836   0.863  14.795 -1.3679 -0.7358  2.7758
 4755TIP3    H235681   2.915   0.738  14.761 -0.4754  0.6654 -0.8368
 4756TIP3   OH235682   0.219   4.989   0.082 -0.0419  0.5914  0.2194
 4756TIP3    H135683   0.126   4.990   0.107 -0.2484 -1.7491 -0.2589
 4756TIP3    H235684   0.264   4.955   0.160  0.2872  0.7179  0.0859
 4757TIP3   OH235685   5.424   0.956   0.934 -0.3009  0.3758 -0.1718
 4757TIP3    H135686   5.438   1.009   1.012 -1.1790  1.0638 -0.4720
 4757TIP3    H235687   5.488   0.884   0.942 -0.8174  0.0643  1.5027
 4758TIP3   OH235688   0.368   3.559   0.266  0.4699  0.5835 -0.1917
 4758TIP3    H135689   0.460   3.584   0.260  1.2638 -2.0048 -0.2547
 4758TIP3    H235690   0.353   3.545   0.359  0.9135 -1.3658 -0.3715
 4759TIP3   OH235691   0.440   1.380   1.497 -0.5318  0.2565 -0.9149
 4759TIP3    H135692   0.427   1.380   1.592 -0.6549 -1.5410 -0.8873
 4759TIP3    H235693   0.396   1.459   1.466 -1.9251  0.0172  0.3689
 4760TIP3   OH235694   0.010   3.660   3.922 -1.3011 -0.0880  0.6776
 4760TIP3    H135695   0.057   3.691   3.999  0.0811  0.2536 -0.2507
 4760TIP3    H235696  -0.073   3.626   3.956 -0.8734  0.3501  2.2547
 4761TIP3   OH235697   0.582   1.255  15.238  0.4636 -0.2371  0.0758
 4761TIP3    H135698   0.549   1.319  15.175  0.6742  0.3275  0.5303
 4761TIP3    H235699   0.663   1.294  15.271 -0.9044  0.7054  2.5776
 4762TIP3   OH235700   2.328   5.687  11.549  0.2541 -0.5861 -0.1099
 4762TIP3    H135701   2.304   5.768  11.594 -1.5274 -1.5464  0.7481
 4762TIP3    H235702   2.348   5.715  11.459 -0.5718  0.7722  0.0979
 4763TIP3   OH235703   0.530   3.600  12.312  0.4371  0.4249  0.1309
 4763TIP3    H135704   0.435   3.609  12.304  0.4874 -0.0571 -1.3787
 4763TIP3    H235705   0.566   3.668  12.254  1.0418  1.1254  1.2932
 4764TIP3   OH235706   3.695   5.374  15.113  0.7917  0.1073  0.0998
 4764TIP3    H135707   3.605   5.350  15.134  0.8519 -1.9066 -1.5323
 4764TIP3    H235708   3.687   5.439  15.043  0.5423 -0.9199 -0.8656
 4765TIP3   OH235709   3.807   6.351   4.101  0.4672 -0.0164  0.0657
 4765TIP3    H135710   3.790   6.425   4.159  0.9426 -1.2304  1.8574
 4765TIP3    H235711   3.724   6.303   4.098  0.1931  0.4813 -0.9994
 4766TIP3   OH235712   4.890   4.624  12.158  0.5889  0.3940 -0.2052
 4766TIP3    H135713   4.874   4.570  12.080 -0.8973 -2.0099  1.6033
 4766TIP3    H235714   4.975   4.595  12.190  2.0207  2.5980 -1.7387
 4767TIP3   OH235715   0.594   1.632   5.587 -0.8344 -0.6540 -0.3033
 4767TIP3    H135716   0.546   1.583   5.652 -2.0109 -1.0561 -1.4312
 4767TIP3    H235717   0.686   1.624   5.613 -1.2737 -0.6501  1.3642
 4768TIP3   OH235718   1.849   0.351  12.775 -0.7430  0.7919 -0.2058
 4768TIP3    H135719   1.857   0.322  12.865 -0.1735  3.3522  0.6754
 4768TIP3    H235720   1.937   0.341  12.739 -0.2891  2.2393  0.4190
 4769TIP3   OH235721   2.098   4.065  16.236  0.2690 -0.2043 -0.2767
 4769TIP3    H135722   2.108   3.978  16.197 -0.9964  0.0598 -1.2552
 4769TIP3    H235723   2.080   4.123  16.163  2.7489  1.2571  0.1536
 4770TIP3   OH235724   2.646   2.531   1.279  0.4380 -0.6964  0.7310
 4770TIP3    H135725   2.653   2.483   1.196  2.5980  0.8538 -0.0657
 4770TIP3    H235726   2.558   2.510   1.311 -0.4981 -1.3028 -1.9614
 4771TIP3   OH235727   1.600   6.310  11.869 -0.1998  0.0597  0.4425
 4771TIP3    H135728   1.597   6.362  11.788  1.6343 -1.8695 -0.9760
 4771TIP3    H235729   1.508   6.289  11.887 -0.6010 -0.3681 -1.8054
 4772TIP3   OH235730   3.586   3.975   2.510 -0.1598  0.3334  1.2233
 4772TIP3    H135731   3.576   3.904   2.446  0.4996  0.0557  1.4185
 4772TIP3    H235732   3.560   3.935   2.594 -1.2961  0.7747  1.1084
 4773TIP3   OH235733   0.718   1.300   3.095 -0.2430  0.1219 -0.1951
 4773TIP3    H135734   0.789   1.364   3.103 -0.4993  0.4891 -0.8257
 4773TIP3    H235735   0.740   1.249   3.017  0.1215 -0.7744  0.4793
 4774TIP3   OH235736   2.017   1.873   3.176 -0.1553 -0.3430 -0.6666
 4774TIP3    H135737   2.009   1.782   3.149  0.9491 -0.3640 -0.9514
 4774TIP3    H235738   1.926   1.903   3.187 -0.5788 -0.9317 -2.3587
 4775TIP3   OH235739   5.839   0.151  16.090 -0.2438  0.1550  0.2552
 4775TIP3    H135740   5.921   0.181  16.131 -0.3246  0.0049  0.5311
 4775TIP3    H235741   5.858   0.062  16.062 -0.0690  0.3867 -0.3836
 4776TIP3   OH235742   2.797   2.966   3.547 -0.3553 -0.2328  0.0741
 4776TIP3    H135743   2.771   2.966   3.455  0.2748  0.7366 -0.1122
 4776TIP3    H235744   2.736   2.905   3.589 -0.0864 -1.3732 -1.1335
 4777TIP3   OH235745   3.896   6.153  14.144  0.0460 -0.1019  0.4456
 4777TIP3    H135746   3.957   6.211  14.189  0.0765 -0.3719  0.7580
 4777TIP3    H235747   3.949   6.080  14.113  0.0088  0.0389  0.0488
 4778TIP3   OH235748   3.951   3.461   1.019 -0.0557  0.0105 -0.1557
 4778TIP3    H135749   3.908   3.409   1.086  0.7100 -0.7451 -0.2390
 4778TIP3    H235750   3.938   3.412   0.938  2.0467 -0.9528  0.0091
 4779TIP3   OH235751   5.381   5.673   2.502 -0.1650 -0.4689  0.0319
 4779TIP3    H135752   5.323   5.687   2.577 -0.1886 -1.6388  0.2445
 4779TIP3    H235753   5.321   5.659   2.428 -0.3346  5.0878 -1.3071
 4780TIP3   OH235754   5.960   3.026   4.634  0.3679 -0.7738 -0.4429
 4780TIP3    H135755   5.870   2.994   4.643 -0.3521  1.1573 -0.3311
 4780TIP3    H235756   6.015   2.947   4.644 -1.1734 -1.6285  2.2807
 4781TIP3   OH235757   3.850   0.594  15.518  0.4547 -0.1217  0.3896
 4781TIP3    H135758   3.759   0.617  15.499  0.6493 -0.4325 -1.0664
 4781TIP3    H235759   3.844   0.537  15.595 -0.4307  0.9847  1.1820
 4782TIP3   OH235760   0.665   2.956   1.734 -0.1344 -0.0492  0.1104
 4782TIP3    H135761   0.728   3.008   1.685 -0.0818 -1.0334 -0.8994
 4782TIP3    H235762   0.584   3.007   1.732  0.2602  0.5844  0.2484
 4783TIP3   OH235763   0.681   4.994  14.499  0.0393 -0.0254  0.3819
 4783TIP3    H135764   0.658   4.995  14.406 -1.5435 -0.4662  0.7291
 4783TIP3    H235765   0.608   5.039  14.542  0.7697  0.2101  1.4178
 4784TIP3   OH235766   1.323   6.237  15.185  0.2397  0.5607  0.3749
 4784TIP3    H135767   1.229   6.235  15.205  0.1561  0.0553 -0.0613
 4784TIP3    H235768   1.348   6.328  15.201 -0.3652  0.7426  0.3220
 4785TIP3   OH235769   3.121   6.520   0.547 -0.1956  0.1786  0.4541
 4785TIP3    H135770   3.213   6.545   0.555 -0.0413  0.4233 -1.4536
 4785TIP3    H235771   3.109   6.450   0.611  1.7718 -0.9562 -0.3080
 4786TIP3   OH235772   2.232   2.385   0.953  0.3675 -0.0656 -0.0013
 4786TIP3    H135773   2.314   2.349   0.919 -1.1040 -1.3956 -2.4085
 4786TIP3    H235774   2.202   2.320   1.016  0.9529  0.2540  0.6223
 4787TIP3   OH235775   5.441   1.249   3.517 -0.3408  1.2161  0.4111
 4787TIP3    H135776   5.458   1.155   3.508 -1.9916  0.9767 -0.5194
 4787TIP3    H235777   5.509   1.291   3.465  0.0297  0.5123  0.3179
 4788TIP3   OH235778   5.355   2.299   6.080 -0.2279  0.1933 -0.4049
 4788TIP3    H135779   5.291   2.264   6.141 -0.8850 -0.5072 -1.4572
 4788TIP3    H235780   5.326   2.389   6.064 -0.1348  0.3303  0.2048
 4789TIP3   OH235781   4.924   3.163   5.509  0.5956 -0.6535 -0.1511
 4789TIP3    H135782   4.994   3.120   5.460  0.1434 -1.4383 -0.1171
 4789TIP3    H235783   4.941   3.142   5.600  0.9924  0.1614 -0.0270
 4790TIP3   OH235784   4.678   2.373  14.983 -0.0470 -0.0832  0.2801
 4790TIP3    H135785   4.652   2.288  15.017 -1.1777  0.3039  0.4032
 4790TIP3    H235786   4.601   2.429  14.994  1.3304  1.5846  2.2428
 4791TIP3   OH235787   1.688   0.716   0.050 -0.2636  0.4831 -0.3598
 4791TIP3    H135788   1.698   0.643   0.111  0.6213  0.6578 -0.2789
 4791TIP3    H235789   1.621   0.686  -0.012 -1.3154  0.3902  0.7944
 4792TIP3   OH235790   2.881   1.472  16.544  0.1366 -0.4105 -0.1747
 4792TIP3    H135791   2.969   1.500  16.566 -0.2905  0.1271  0.9185
 4792TIP3    H235792   2.858   1.523  16.465  1.1883 -1.3735 -1.1340
 4793TIP3   OH235793   0.734   4.579   0.221  0.4332 -0.2783 -0.3154
 4793TIP3    H135794   0.708   4.603   0.310  0.5162  1.2699 -0.6745
 4793TIP3    H235795   0.703   4.652   0.166 -2.1052 -2.4077 -2.0084
 4794TIP3   OH235796   1.339   6.408   6.276  0.2071  0.6618  0.0462
 4794TIP3    H135797   1.399   6.371   6.211 -1.1521  0.7661 -1.3133
 4794TIP3    H235798   1.388   6.404   6.358  2.2716  1.2026 -1.0762
 4795TIP3   OH235799   6.015   4.032   3.653  0.3335  0.3372 -0.9752
 4795TIP3    H135800   6.084   3.966   3.646 -0.0300 -0.1683  0.0226
 4795TIP3    H235801   5.943   3.998   3.600  0.1851 -0.0385 -0.5444
 4796TIP3   OH235802   6.352   0.265   5.948  0.4544  0.0030  0.2122
 4796TIP3    H135803   6.354   0.221   6.033 -0.3976 -0.2664  0.1057
 4796TIP3    H235804   6.322   0.354   5.968 -1.8847 -0.6609 -0.0053
 4797TIP3   OH235805   2.479   6.681   1.791  0.3617  0.0144  0.0966
 4797TIP3    H135806   2.410   6.675   1.856  0.7037  1.0414  0.5778
 4797TIP3    H235807   2.528   6.599   1.801 -0.0846 -0.2035  0.5544
 4798TIP3   OH235808   2.132   5.686  11.806  0.0852 -0.2039 -0.1004
 4798TIP3    H135809   2.096   5.757  11.859  0.3045 -0.5668  0.5485
 4798TIP3    H235810   2.120   5.608  11.859 -0.7445 -0.7582 -1.0840
 4799TIP3   OH235811   4.167   4.601  12.906 -0.4791  0.3859 -0.1847
 4799TIP3    H135812   4.230   4.667  12.877 -0.4243  0.4249  0.0232
 4799TIP3    H235813   4.198   4.519  12.867  0.4880  0.1450  1.0468
 4800TIP3   OH235814   3.394   3.744   1.806 -0.1211  0.0623 -0.0528
 4800TIP3    H135815   3.445   3.734   1.726  0.2246  0.1898  0.1526
 4800TIP3    H235816   3.311   3.700   1.787 -0.3244  0.7219 -0.7382
 4801TIP3   OH235817   0.225   4.412  12.132 -0.4292 -0.5347  0.1762
 4801TIP3    H135818   0.261   4.330  12.099 -1.1059 -0.1082 -1.7290
 4801TIP3    H235819   0.296   4.476  12.120 -0.7888 -0.3089 -0.8183
 4802TIP3   OH235820   4.421   6.055  10.874 -0.7407 -0.6371  0.2954
 4802TIP3    H135821   4.500   6.002  10.866  0.8164  1.6459 -0.3365
 4802TIP3    H235822   4.350   5.991  10.880  0.6345 -2.8540 -3.5779
 4803TIP3   OH235823   6.450   4.829   0.875  0.1321  0.0421  0.5736
 4803TIP3    H135824   6.420   4.915   0.904  0.2883  0.4046 -0.3041
 4803TIP3    H235825   6.470   4.782   0.955  3.5157  2.0236  1.0489
 4804TIP3   OH235826   2.092   2.910  14.867  0.4041 -0.2923  0.2290
 4804TIP3    H135827   2.013   2.938  14.912 -0.5794 -0.1085 -1.5494
 4804TIP3    H235828   2.087   2.814  14.866 -0.5671 -0.2566 -1.1280
 4805TIP3   OH235829   5.001   0.843   1.553 -0.0041  0.3266 -0.2302
 4805TIP3    H135830   4.917   0.834   1.508 -0.2986  3.7329 -0.5943
 4805TIP3    H235831   4.985   0.806   1.640 -1.6256  0.1618 -0.5657
 4806TIP3   OH235832   2.371   4.101  16.121  0.2072  0.4080  0.3330
 4806TIP3    H135833   2.379   4.027  16.061  1.1915  1.4526 -0.8596
 4806TIP3    H235834   2.293   4.081  16.173 -0.0181 -1.0570 -0.5194
 4807TIP3   OH235835   0.406   2.938   3.310 -0.0508 -0.1350 -0.4246
 4807TIP3    H135836   0.464   2.982   3.248 -1.5373  2.5315 -0.0324
 4807TIP3    H235837   0.410   2.991   3.390 -2.2820 -0.4198 -0.0556
 4808TIP3   OH235838   1.122   6.468  11.164 -0.5723 -0.0975 -0.1466
 4808TIP3    H135839   1.201   6.413  11.164 -0.4750 -0.0726 -2.9366
 4808TIP3    H235840   1.050   6.406  11.151 -0.9925 -0.0192  1.5297
 4809TIP3   OH235841   3.591   5.117  17.280  0.3081 -0.3643 -0.1220
 4809TIP3    H135842   3.612   5.044  17.338  3.2510 -0.5856 -1.2744
 4809TIP3    H235843   3.622   5.195  17.327  2.5800 -0.5314 -1.2019
 4810TIP3   OH235844   0.332   5.459  17.200  0.3993  0.1432 -0.4055
 4810TIP3    H135845   0.390   5.473  17.125  1.5401  2.7678  0.8384
 4810TIP3    H235846   0.243   5.469  17.164  0.9178  1.1016 -1.4732
 4811TIP3   OH235847   5.805   4.596   2.004  0.0084  0.2044  0.1128
 4811TIP3    H135848   5.744   4.635   1.942  2.0722  1.6375 -1.1724
 4811TIP3    H235849   5.890   4.601   1.959  1.2044 -0.9287  2.1232
 4812TIP3   OH235850   1.695   1.162  13.642 -0.1732  0.5543 -0.3894
 4812TIP3    H135851   1.674   1.254  13.632  0.6140  0.5697 -2.6753
 4812TIP3    H235852   1.767   1.147  13.580 -2.3442 -2.2056 -2.5531
 4813TIP3   OH235853   5.317   0.171  12.108 -0.1479 -0.1092 -0.4656
 4813TIP3    H135854   5.281   0.224  12.179 -0.1444  1.0037 -1.2613
 4813TIP3    H235855   5.255   0.099  12.097  0.1569 -0.6297  1.0335
 4814TIP3   OH235856   0.905   3.638  14.321 -0.4905 -0.0164  0.1204
 4814TIP3    H135857   0.827   3.650  14.268 -0.9738  0.2885  0.8860
 4814TIP3    H235858   0.880   3.667  14.409  0.7196  0.9041  0.2054
 4815TIP3   OH235859   2.586   2.349  11.087  0.8531 -0.0688  0.0957
 4815TIP3    H135860   2.579   2.436  11.047  0.8530 -0.0173  0.2058
 4815TIP3    H235861   2.680   2.339  11.105  1.0910 -0.8075 -1.4849
 4816TIP3   OH235862   5.544   5.201   0.339  0.8146 -0.5847  0.4003
 4816TIP3    H135863   5.449   5.217   0.343  0.7866 -0.3854 -0.8143
 4816TIP3    H235864   5.570   5.190   0.431 -0.5633 -1.7438  0.6950
 4817TIP3   OH235865   4.575   6.481   4.438  0.9415 -0.0031 -0.4716
 4817TIP3    H135866   4.587   6.574   4.420  0.7006 -0.2054 -1.7626
 4817TIP3    H235867   4.561   6.441   4.352 -1.8863 -0.8256  0.2645
 4818TIP3   OH235868   1.235   3.720  13.730 -0.2300 -0.0685  0.0997
 4818TIP3    H135869   1.242   3.680  13.817  0.1359 -0.7675 -0.2397
 4818TIP3    H235870   1.309   3.683  13.681 -0.2985  0.4991 -0.4366
 4819TIP3   OH235871   1.297   1.680  15.661  0.2817 -0.1802 -0.3194
 4819TIP3    H135872   1.345   1.634  15.730 -1.3656  0.2386  1.1706
 4819TIP3    H235873   1.272   1.610  15.600  0.3814 -0.8166  0.3467
 4820TIP3   OH235874   0.845   3.025   2.655 -0.5851  0.4198 -0.5036
 4820TIP3    H135875   0.757   3.028   2.615 -0.9389  0.3502  0.2549
 4820TIP3    H235876   0.840   3.087   2.728 -0.4272 -0.5803  0.3726
 4821TIP3   OH235877   2.582   3.834   4.735  0.5202  0.4020  0.9861
 4821TIP3    H135878   2.655   3.895   4.731  0.4244  0.4559 -1.3422
 4821TIP3    H235879   2.606   3.764   4.674 -1.6519  0.7929 -0.4035
 4822TIP3   OH235880   5.753   4.212   0.715  0.1743 -0.0177 -0.0649
 4822TIP3    H135881   5.725   4.247   0.799  1.1239 -1.1256  0.7554
 4822TIP3    H235882   5.706   4.129   0.707 -0.2155  0.2714 -0.8214
 4823TIP3   OH235883   0.453   2.655   5.351 -0.6118 -0.4097 -0.8369
 4823TIP3    H135884   0.415   2.582   5.400 -2.4258  0.3597 -1.0144
 4823TIP3    H235885   0.378   2.703   5.317  0.5648  0.4943 -2.3076
 4824TIP3   OH235886   2.358   2.240   3.833 -0.4030  0.2049  0.0057
 4824TIP3    H135887   2.291   2.249   3.901 -0.7328  1.3429 -0.4497
 4824TIP3    H235888   2.309   2.234   3.751  0.0363  1.0907 -0.3356
 4825TIP3   OH235889   4.124   5.646   0.209  0.4258 -0.0898 -0.0594
 4825TIP3    H135890   4.044   5.690   0.181  0.3830 -1.1827 -1.8219
 4825TIP3    H235891   4.135   5.671   0.301  0.3665  3.5406 -0.8681
 4826TIP3   OH235892   2.340   6.102  14.403 -0.2466 -0.2644  0.3731
 4826TIP3    H135893   2.289   6.175  14.439 -0.5656 -0.3111  0.0230
 4826TIP3    H235894   2.283   6.064  14.337  0.3215 -0.2009 -0.1587
 4827TIP3   OH235895   4.982   2.090   5.865 -0.0873 -0.5465 -0.2714
 4827TIP3    H135896   4.923   2.119   5.934  0.0648  0.2661 -0.4694
 4827TIP3    H235897   5.061   2.144   5.877  0.8738 -2.0505  0.3877
 4828TIP3   OH235898   3.338   2.779  12.162  0.3393  0.1166  0.3033
 4828TIP3    H135899   3.336   2.683  12.161 -1.2394  0.0823 -1.7942
 4828TIP3    H235900   3.301   2.803  12.247  0.0149 -1.1626  0.5465
 4829TIP3   OH235901   4.818   1.994   3.463  0.3441 -0.4604  0.6809
 4829TIP3    H135902   4.787   1.947   3.541 -0.5214  0.4182  0.8892
 4829TIP3    H235903   4.810   2.086   3.487  0.2726 -0.1834 -0.3885
 4830TIP3   OH235904   5.885   2.036  12.886  0.2422 -0.7485 -0.6573
 4830TIP3    H135905   5.958   2.080  12.841  0.6755 -1.5386 -0.7407
 4830TIP3    H235906   5.858   1.968  12.825 -2.4462  1.2623 -1.8968
 4831TIP3   OH235907   6.193   4.487   2.496  0.0829  0.1894  0.6666
 4831TIP3    H135908   6.184   4.396   2.525 -0.6082  0.2208  0.5716
 4831TIP3    H235909   6.113   4.530   2.527 -0.1884  0.4658 -0.3760
 4832TIP3   OH235910   0.269   2.727   2.745  0.1132  0.3694  0.2157
 4832TIP3    H135911   0.219   2.802   2.711 -1.4807  0.2355  2.1076
 4832TIP3    H235912   0.341   2.717   2.683 -0.5738  2.4107 -1.0247
 4833TIP3   OH235913   3.948   4.534   1.517 -0.2158  0.1744 -0.0750
 4833TIP3    H135914   3.863   4.558   1.553  0.2548  1.4081  0.2821
 4833TIP3    H235915   4.002   4.612   1.531  2.2648 -1.9057  3.6946
 4834TIP3   OH235916   3.063   5.949   5.054  0.2143  0.6158 -0.6474
 4834TIP3    H135917   3.093   5.880   5.113  0.7925  2.5028  1.4396
 4834TIP3    H235918   2.971   5.930   5.040  0.1098 -0.0212  0.7296
 4835TIP3   OH235919   2.974   4.676   1.259 -0.2203 -0.2314 -1.0351
 4835TIP3    H135920   2.945   4.749   1.313 -1.8045 -1.1760 -0.5211
 4835TIP3    H235921   2.967   4.708   1.169  1.0022  0.8632 -0.7634
 4836TIP3   OH235922   3.261   2.350  15.922  0.3052  0.1417  0.6699
 4836TIP3    H135923   3.332   2.365  15.983 -0.9112  0.4606  2.0512
 4836TIP3    H235924   3.291   2.278  15.867  0.9527 -1.0025  2.4449
 4837TIP3   OH235925   0.717   5.104   2.574  0.3986 -0.2540  0.4029
 4837TIP3    H135926   0.632   5.113   2.617  0.5453 -1.0934  0.8792
 4837TIP3    H235927   0.747   5.016   2.597  2.6112  0.9192  2.4400
 4838TIP3   OH235928   6.402   5.224   4.844 -0.5185 -0.9490  0.0927
 4838TIP3    H135929   6.382   5.231   4.937  0.7967 -0.2063  0.3328
 4838TIP3    H235930   6.344   5.154   4.813 -1.3190 -0.8797  1.3533
 4839TIP3   OH235931   1.757   2.621   6.102  0.6316 -0.4073 -0.0566
 4839TIP3    H135932   1.730   2.670   6.181 -2.5250 -1.6851 -0.1831
 4839TIP3    H235933   1.789   2.688   6.042 -0.4692  1.1100  0.9643
 4840TIP3   OH235934   2.265   3.090  16.500 -0.5017 -0.0638 -0.3449
 4840TIP3    H135935   2.350   3.071  16.461 -0.6063 -1.2717 -0.0226
 4840TIP3    H235936   2.202   3.042  16.446 -0.8947  0.1689 -0.1046
 4841TIP3   OH235937   6.525   2.466   4.703  0.0392  0.1443 -0.1005
 4841TIP3    H135938   6.542   2.406   4.631 -2.0147 -0.6603  0.0203
 4841TIP3    H235939   6.431   2.484   4.698  0.5518  3.3423 -0.0799
 4842TIP3   OH235940   5.480   5.619   0.838 -0.3941 -0.1459 -0.0405
 4842TIP3    H135941   5.568   5.657   0.843 -0.2395 -0.3000 -1.2151
 4842TIP3    H235942   5.422   5.690   0.866  0.0668  0.1554  0.1627
 4843TIP3   OH235943   1.070   3.672   2.403 -0.0344  0.1702 -0.4702
 4843TIP3    H135944   1.110   3.658   2.489 -1.5972  1.2255  0.4820
 4843TIP3    H235945   1.140   3.654   2.340  0.6974 -2.2576  0.9357
 4844TIP3   OH235946   1.283   0.625  13.509 -0.0173  0.1838  0.3279
 4844TIP3    H135947   1.232   0.559  13.463 -0.9642  0.3026  1.1606
 4844TIP3    H235948   1.218   0.686  13.543  0.8363  1.5104 -0.3609
 4845TIP3   OH235949   6.737   6.061  14.435 -0.4109  0.1330 -0.1930
 4845TIP3    H135950   6.721   6.022  14.349  1.5639 -0.4445 -0.3530
 4845TIP3    H235951   6.653   6.054  14.480 -0.6957 -2.4678 -0.9563
 4846TIP3   OH235952   5.743   6.260  13.545  0.3945 -0.1824 -0.5581
 4846TIP3    H135953   5.681   6.301  13.606 -0.6651  0.0637 -1.7601
 4846TIP3    H235954   5.774   6.332  13.490  2.9001 -0.0211  0.8896
 4847TIP3   OH235955   3.044   1.600  15.677 -0.1620 -0.1058  0.0612
 4847TIP3    H135956   3.057   1.602  15.582  0.2366  2.1754  0.0985
 4847TIP3    H235957   3.044   1.692  15.703 -2.3553 -0.5548  2.0179
 4848TIP3   OH235958   3.038   2.435  17.113 -0.2089  0.3510  0.9248
 4848TIP3    H135959   3.075   2.514  17.150 -1.2665  2.6480 -2.4615
 4848TIP3    H235960   3.113   2.382  17.087  0.6429  2.1453 -0.4073
 4849TIP3   OH235961   0.822   1.722   1.269 -0.2981  0.0627  0.6684
 4849TIP3    H135962   0.749   1.781   1.289 -1.2165 -0.3509 -1.1898
 4849TIP3    H235963   0.780   1.638   1.249  0.3189  0.4451 -2.9871
 4850TIP3   OH235964   4.816   6.128  11.363  0.1277  0.1407 -0.5663
 4850TIP3    H135965   4.847   6.097  11.278  2.2432  0.2126  0.1171
 4850TIP3    H235966   4.725   6.098  11.368  0.2779 -0.7655 -2.3944
 4851TIP3   OH235967   1.963   1.934   0.592 -0.0688 -0.3442  0.2460
 4851TIP3    H135968   1.875   1.932   0.555 -1.3964  0.2565  3.1433
 4851TIP3    H235969   1.996   1.844   0.582 -0.6501 -0.3986 -1.5266
 4852TIP3   OH235970   5.316   4.172   5.265 -0.0154 -0.0210 -0.1133
 4852TIP3    H135971   5.342   4.110   5.333 -1.9088  0.1145  0.8257
 4852TIP3    H235972   5.366   4.252   5.284  0.7516 -0.5312  0.0481
 4853TIP3   OH235973   2.171   0.158   1.495 -1.0223 -0.8092 -0.0611
 4853TIP3    H135974   2.236   0.110   1.444 -0.6636  0.0667 -0.4481
 4853TIP3    H235975   2.139   0.095   1.559 -0.6076 -1.5771 -0.5974
 4854TIP3   OH235976   4.819   3.566  15.177  0.0923  0.0483 -0.7643
 4854TIP3    H135977   4.782   3.487  15.215 -0.0838  0.5876  0.2316
 4854TIP3    H235978   4.911   3.546  15.162  0.2957 -0.0049  0.4836
 4855TIP3   OH235979   0.652   4.047   2.839 -0.4531 -0.0181 -0.2910
 4855TIP3    H135980   0.694   4.116   2.786  1.1972 -0.5328  0.2859
 4855TIP3    H235981   0.657   3.969   2.784  2.3422 -0.8442  0.9497
 4856TIP3   OH235982   2.085   1.999  16.787  0.1384 -0.1423  0.1647
 4856TIP3    H135983   2.061   2.091  16.789  1.6266  0.5055 -3.5180
 4856TIP3    H235984   2.050   1.967  16.704 -0.3338 -2.9552  1.3415
 4857TIP3   OH235985   1.590   2.407  15.768  0.1390  0.2042 -0.6962
 4857TIP3    H135986   1.509   2.414  15.718  0.5364  2.6468 -1.0973
 4857TIP3    H235987   1.569   2.346  15.839 -1.6053 -0.2733 -1.5576
 4858TIP3   OH235988   0.894   2.484  10.710 -0.0777  0.1935  0.4691
 4858TIP3    H135989   0.973   2.460  10.758  0.1623 -0.0794 -0.0533
 4858TIP3    H235990   0.846   2.542  10.769 -0.1270 -0.6784  1.3204
 4859TIP3   OH235991   2.291   4.594   0.328 -0.1479 -0.1871 -0.1430
 4859TIP3    H135992   2.257   4.658   0.265 -1.1604 -0.9576 -0.3971
 4859TIP3    H235993   2.304   4.645   0.409 -1.9724  0.1354 -0.0182
 4860TIP3   OH235994   2.993   0.249  12.470 -0.0635  0.0467 -0.5577
 4860TIP3    H135995   3.041   0.169  12.493  0.5522  0.4834 -0.3152
 4860TIP3    H235996   2.914   0.217  12.426  1.0640 -0.6656 -2.1649
 4861TIP3   OH235997   4.170   5.919   1.770  0.5480  0.7284 -0.2193
 4861TIP3    H135998   4.130   5.843   1.730  1.3084  1.3488 -2.3113
 4861TIP3    H235999   4.264   5.903   1.764  0.7077  1.6130 -0.2251
 4862TIP3   OH236000   6.247   1.549  12.963 -0.0362 -0.0201 -0.1454
 4862TIP3    H136001   6.153   1.548  12.977  0.2248  0.9076  2.0495
 4862TIP3    H236002   6.280   1.475  13.015  0.7403  1.9621  2.4004
 4863TIP3   OH236003   3.936   6.115   6.071  0.1929 -0.4947  0.0830
 4863TIP3    H136004   3.894   6.154   6.148  0.5680  0.3267 -0.1151
 4863TIP3    H236005   3.884   6.037   6.052 -1.1434  0.4001 -0.0526
 4864TIP3   OH236006   6.391   3.075  14.766  0.1157  0.2909  0.7479
 4864TIP3    H136007   6.448   3.017  14.817  0.4776  0.7798  0.9066
 4864TIP3    H236008   6.338   3.120  14.831  0.1524  0.4684  0.6573
 4865TIP3   OH236009   3.556   3.179   4.280  0.4789 -0.7089 -0.5159
 4865TIP3    H136010   3.593   3.144   4.199 -0.1565  0.7358 -1.4782
 4865TIP3    H236011   3.461   3.174   4.267  0.2597 -3.0724  1.3406
 4866TIP3   OH236012   5.960   2.060  11.417  0.0128 -0.4270 -0.1948
 4866TIP3    H136013   6.018   2.015  11.479 -1.4082 -1.8815  0.1342
 4866TIP3    H236014   6.012   2.068  11.338  1.2520 -0.1581  0.6199
 4867TIP3   OH236015   1.258   5.238   1.801 -0.1451 -0.0763 -0.1362
 4867TIP3    H136016   1.252   5.210   1.710  0.9296 -0.3882 -0.1235
 4867TIP3    H236017   1.293   5.162   1.847  0.6044  0.5168  0.2977
 4868TIP3   OH236018   0.178   0.470   0.252  0.4087 -0.5527 -0.1608
 4868TIP3    H136019   0.257   0.522   0.263  0.9539 -1.2054 -0.9336
 4868TIP3    H236020   0.180   0.407   0.324  0.7746 -0.8031 -0.3921
 4869TIP3   OH236021   5.779   6.219  16.649 -0.0907 -0.5848  0.0542
 4869TIP3    H136022   5.792   6.203  16.743  0.7906 -3.7560 -0.4905
 4869TIP3    H236023   5.867   6.235  16.615 -0.4562  0.9847 -0.2092
 4870TIP3   OH236024   3.971   5.382  15.547 -0.4440 -0.2050  0.3324
 4870TIP3    H136025   3.982   5.325  15.623 -1.6943 -0.5826  0.2583
 4870TIP3    H236026   4.050   5.369  15.496  1.4674  1.7282  2.5998
 4871TIP3   OH236027   4.867   6.280  15.131  0.0180  0.1787  0.2984
 4871TIP3    H136028   4.844   6.230  15.053 -2.8790  0.3834  0.9026
 4871TIP3    H236029   4.933   6.342  15.100  1.9458 -2.3379 -0.9930
 4872TIP3   OH236030   4.978   0.722  14.511  0.0179 -0.4075 -0.4414
 4872TIP3    H136031   5.011   0.759  14.593  1.5891 -0.3501 -1.0625
 4872TIP3    H236032   4.919   0.652  14.538 -1.9847  1.6166  0.7461
 4873TIP3   OH236033   5.468   6.461  15.772  0.2580  0.2289  0.5376
 4873TIP3    H136034   5.382   6.499  15.790  0.0163 -0.1026  0.1114
 4873TIP3    H236035   5.525   6.537  15.757  0.0671  0.4511  0.9235
 4874TIP3   OH236036   1.319   4.628   2.622  0.1895  0.0575  0.2192
 4874TIP3    H136037   1.340   4.561   2.686  2.3852 -0.8964 -1.3588
 4874TIP3    H236038   1.292   4.579   2.544 -3.3458  1.1877  0.5349
 4875TIP3   OH236039   5.367   2.998   0.556  0.1569  0.1336 -0.1096
 4875TIP3    H136040   5.332   3.058   0.622 -0.4708 -1.1570  0.7868
 4875TIP3    H236041   5.333   2.912   0.582  0.9042 -0.5921 -1.4293
 4876TIP3   OH236042   5.168   6.042   0.515  0.4222  0.9151 -0.1857
 4876TIP3    H136043   5.246   5.988   0.524  0.8243  1.3701 -0.8475
 4876TIP3    H236044   5.134   6.019   0.428  0.3366  1.3813 -0.2767
 4877TIP3   OH236045   5.999   3.322  12.855  0.1410  0.7055 -0.2196
 4877TIP3    H136046   5.918   3.305  12.904  0.8558 -1.0850  0.4344
 4877TIP3    H236047   5.972   3.320  12.764 -0.4412 -0.8632 -0.0539
 4878TIP3   OH236048   2.116   3.105  16.732  0.2040 -0.0624 -0.1714
 4878TIP3    H136049   2.178   3.137  16.667 -0.8929  0.0639 -1.1976
 4878TIP3    H236050   2.048   3.060  16.681  2.0132 -4.9631  1.1684
 4879TIP3   OH236051   0.171   4.355   3.706 -0.3568 -0.1042  0.1500
 4879TIP3    H136052   0.157   4.332   3.798  0.3603  2.8672  1.0939
 4879TIP3    H236053   0.084   4.347   3.666 -1.4359  1.7237  1.9197
 4880TIP3   OH236054   6.206   6.093   4.814 -0.3368  0.0443  0.1774
 4880TIP3    H136055   6.218   6.085   4.719 -0.5300 -2.2086  0.2939
 4880TIP3    H236056   6.179   6.184   4.827 -1.9208 -0.0051 -2.1178
 4881TIP3   OH236057   5.667   4.624   3.907 -0.3894 -0.1945 -0.0052
 4881TIP3    H136058   5.571   4.622   3.901 -0.6073 -0.1268  2.3406
 4881TIP3    H236059   5.689   4.717   3.914 -0.3662 -0.2767  1.3489
 4882TIP3   OH236060   5.974   5.852  12.940  0.5624 -0.1711 -0.2578
 4882TIP3    H136061   6.001   5.927  12.887 -1.4678  1.0053  0.2593
 4882TIP3    H236062   6.022   5.861  13.022  1.7845 -0.5675 -0.9028
 4883TIP3   OH236063   0.482   2.978  10.615 -0.2639  0.2638 -0.2454
 4883TIP3    H136064   0.552   3.042  10.628  0.2261 -0.3889  0.4192
 4883TIP3    H236065   0.419   3.022  10.557 -0.4140  1.7013  0.9606
 4884TIP3   OH236066   4.536   0.246  16.970 -0.3640  0.1461 -0.2266
 4884TIP3    H136067   4.524   0.240  16.875 -2.1677  0.2141 -0.0311
 4884TIP3    H236068   4.523   0.157  17.002  0.2791  0.1159 -0.0353
 4885TIP3   OH236069   3.568   5.224  13.543  0.2354  0.1787  0.4196
 4885TIP3    H136070   3.661   5.217  13.522 -0.1031 -0.4844 -1.0246
 4885TIP3    H236071   3.551   5.318  13.549  0.6427  0.3768 -1.1781
 4886TIP3   OH236072   5.218   6.410  16.061 -0.5143  0.2553 -0.9259
 4886TIP3    H136073   5.305   6.370  16.061 -0.4309  0.4366 -1.2846
 4886TIP3    H236074   5.225   6.484  16.001  0.3365  3.0732  2.3720
 4887TIP3   OH236075   1.884   3.522   5.430 -0.4388  0.4809  0.2102
 4887TIP3    H136076   1.820   3.461   5.391  0.0440  0.3245 -0.3584
 4887TIP3    H236077   1.884   3.597   5.371  0.2201  0.2920 -0.0385
 4888TIP3   OH236078   0.082   5.219  13.675  0.5688  0.4123 -0.1599
 4888TIP3    H136079   0.033   5.158  13.729 -1.1106  1.4164 -0.4740
 4888TIP3    H236080   0.015   5.278  13.639  1.9942  1.7212 -0.7666
 4889TIP3   OH236081   3.279   5.663  13.286 -0.2603  0.1798 -0.5226
 4889TIP3    H136082   3.241   5.750  13.270 -0.2310  0.8779  2.6176
 4889TIP3    H236083   3.373   5.675  13.267 -0.5987  0.0712 -2.5168
 4890TIP3   OH236084   0.083   1.776   5.736 -0.3656  0.0067 -0.1400
 4890TIP3    H136085   0.037   1.693   5.752  1.1211 -0.7126  0.6098
 4890TIP3    H236086   0.156   1.752   5.679  1.3195  0.3503  1.7460
 4891TIP3   OH236087   0.768   1.568   2.765  0.1774 -0.2730 -0.1592
 4891TIP3    H136088   0.836   1.620   2.723 -0.6927  1.7430  0.8081
 4891TIP3    H236089   0.809   1.537   2.846  1.3794 -2.9783 -1.6464
 4892TIP3   OH236090   5.825   1.710   6.110 -0.2195  0.6666 -0.2247
 4892TIP3    H136091   5.800   1.658   6.186  1.6274 -0.4756 -0.3352
 4892TIP3    H236092   5.861   1.791   6.147 -2.0042  1.4043 -0.0162
 4893TIP3   OH236093   2.121   2.224   3.275  0.2053 -0.2873 -0.5340
 4893TIP3    H136094   2.053   2.188   3.218  1.1510 -1.0762 -1.1767
 4893TIP3    H236095   2.085   2.309   3.303 -0.3277  0.0917 -2.2318
 4894TIP3   OH236096   4.707   3.145   3.631 -0.0139 -0.2484  0.1559
 4894TIP3    H136097   4.619   3.160   3.596 -0.2016 -2.5640 -0.5336
 4894TIP3    H236098   4.765   3.158   3.556  0.2200  0.8240  0.5041
 4895TIP3   OH236099   3.157   0.665  14.600 -0.2261  0.3140  0.0542
 4895TIP3    H136100   3.080   0.618  14.632 -1.4947  1.0093 -1.7966
 4895TIP3    H236101   3.129   0.703  14.516  1.5200  2.2655  0.2737
 4896TIP3   OH236102   2.706   4.370  15.344 -0.2957 -0.3950  0.5285
 4896TIP3    H136103   2.633   4.419  15.307  0.1878 -0.7807 -0.9822
 4896TIP3    H236104   2.702   4.389  15.438 -1.5195  0.6526  0.2905
 4897TIP3   OH236105   5.440   3.584  17.237 -0.6870 -0.0360 -0.6518
 4897TIP3    H136106   5.356   3.581  17.191 -1.8158  2.1974  1.0521
 4897TIP3    H236107   5.504   3.600  17.168 -1.9133  0.1667 -1.7984
 4898TIP3   OH236108   0.404   2.940   5.684 -0.6415 -0.2555 -0.1966
 4898TIP3    H136109   0.409   2.927   5.779  0.3509 -1.9822 -0.4330
 4898TIP3    H236110   0.488   2.979   5.660 -0.9792  0.3909 -0.3540
 4899TIP3   OH236111   2.442   2.838   2.742  0.3144  0.0342  0.3770
 4899TIP3    H136112   2.381   2.772   2.774  0.0390  0.7881  1.4802
 4899TIP3    H236113   2.396   2.922   2.755  0.1721  0.4166 -2.0712
 4900TIP3   OH236114   0.654   2.192  15.389 -0.0500  0.0215  0.5271
 4900TIP3    H136115   0.626   2.143  15.467  0.4016 -1.8354 -0.4261
 4900TIP3    H236116   0.572   2.223  15.350 -0.2597  1.4143  1.9619
 4901TIP3   OH236117   4.756   0.811  13.041  0.4650 -0.1399 -0.1507
 4901TIP3    H136118   4.829   0.773  12.992  0.0414 -1.3699  0.1408
 4901TIP3    H236119   4.682   0.806  12.981  0.3414 -0.0286 -0.0077
 4902TIP3   OH236120   4.812   0.262   2.165  0.2660 -0.6120 -0.4532
 4902TIP3    H136121   4.868   0.273   2.087 -2.3083 -0.1662 -2.3736
 4902TIP3    H236122   4.836   0.335   2.222  4.2068 -2.4660  0.6502
 4903TIP3   OH236123   3.916   6.417  13.588 -0.3076 -0.1571 -0.7103
 4903TIP3    H136124   3.952   6.332  13.612  0.6758  0.0815 -1.2882
 4903TIP3    H236125   3.877   6.451  13.669  2.9483  0.6539  0.6585
 4904TIP3   OH236126   6.556   0.367  14.204  0.2521 -0.0714 -0.5969
 4904TIP3    H136127   6.566   0.356  14.299 -3.8819 -1.2632 -0.0916
 4904TIP3    H236128   6.586   0.284  14.167 -0.0837 -0.4382 -0.0669
 4905TIP3   OH236129   0.675   1.503   1.190 -0.0819  0.3993 -0.2559
 4905TIP3    H136130   0.704   1.493   1.099  1.8380 -1.7684  0.4909
 4905TIP3    H236131   0.635   1.419   1.211 -1.7585  1.3514  0.5546
 4906TIP3   OH236132   4.704   2.328  10.957 -0.6103 -0.3486  0.0595
 4906TIP3    H136133   4.793   2.326  10.922  0.0757 -0.8154  1.7187
 4906TIP3    H236134   4.648   2.321  10.881  0.7108  1.9496 -1.2515
 4907TIP3   OH236135   1.097   0.588  13.020 -0.1266  0.1080 -0.0337
 4907TIP3    H136136   1.045   0.587  13.101  1.5588 -0.8214  1.1013
 4907TIP3    H236137   1.089   0.499  12.985  0.7563 -0.0729  0.2092
 4908TIP3   OH236138   3.651   1.852  13.700 -1.0553 -0.0276  0.5506
 4908TIP3    H136139   3.565   1.812  13.709 -0.4845 -1.6726 -0.8235
 4908TIP3    H236140   3.710   1.795  13.750 -0.6207  0.6291  0.8075
 4909TIP3   OH236141   2.574   5.445   2.254  0.1058 -0.2614 -0.4116
 4909TIP3    H136142   2.583   5.459   2.348  0.0689 -0.6922 -0.3399
 4909TIP3    H236143   2.480   5.430   2.241  0.1662 -0.6109 -0.4555
 4910TIP3   OH236144   2.101   2.319   2.034 -0.0290  0.0575 -0.5822
 4910TIP3    H136145   2.109   2.252   2.101  1.2600  0.3509 -0.4140
 4910TIP3    H236146   2.146   2.395   2.071 -3.3988  1.8470  0.2340
 4911TIP3   OH236147   6.439   1.701  15.336 -0.0770 -0.0332 -0.4921
 4911TIP3    H136148   6.455   1.792  15.310 -2.4044  0.1708 -1.3857
 4911TIP3    H236149   6.520   1.655  15.312  1.3314  1.8377  0.3920
 4912TIP3   OH236150   5.160   4.508  16.040  0.2194 -0.2526 -0.2063
 4912TIP3    H136151   5.073   4.516  16.001 -1.5921  0.2043  3.4411
 4912TIP3    H236152   5.151   4.438  16.105  2.1684  0.7117  1.2225
 4913TIP3   OH236153   5.651   2.458  14.244 -0.3026  0.0344  0.3242
 4913TIP3    H136154   5.576   2.413  14.281  0.1154 -1.1148 -0.1668
 4913TIP3    H236155   5.659   2.423  14.155 -0.4075  1.6526 -0.3548
 4914TIP3   OH236156   3.467   1.768   1.532 -0.2645  1.0911 -0.4804
 4914TIP3    H136157   3.497   1.754   1.443  1.9274 -2.1184  0.6048
 4914TIP3    H236158   3.410   1.693   1.551 -3.6709  3.4780 -0.1503
 4915TIP3   OH236159   5.130   4.493   0.821  0.0302  0.5818  0.0620
 4915TIP3    H136160   5.199   4.526   0.879 -0.4215 -1.6694  2.0460
 4915TIP3    H236161   5.050   4.502   0.873 -0.9047  1.3182 -1.4458
 4916TIP3   OH236162   3.378   1.914   0.155 -0.3508  0.9180  0.7031
 4916TIP3    H136163   3.432   1.914   0.076  0.0809  0.4956  0.9946
 4916TIP3    H236164   3.288   1.908   0.122 -0.1903  1.0209  0.2357
 4917TIP3   OH236165   4.684   1.812  15.877  0.2096  0.0734  0.0963
 4917TIP3    H136166   4.597   1.843  15.903 -0.1119 -1.0138  0.3561
 4917TIP3    H236167   4.682   1.815  15.781  0.1112  0.6455  0.1148
 4918TIP3   OH236168   4.585   0.643  15.245 -0.1254 -0.2081 -0.4881
 4918TIP3    H136169   4.615   0.654  15.155  0.1377 -2.3812 -0.7275
 4918TIP3    H236170   4.543   0.726  15.267 -1.8772 -0.2332 -3.2725
 4919TIP3   OH236171   3.360   5.644  14.315  0.3085 -0.1230  0.0163
 4919TIP3    H136172   3.367   5.549  14.306 -1.6745 -0.2714 -0.4585
 4919TIP3    H236173   3.287   5.668  14.258  0.0788  1.5380  0.9563
 4920TIP3   OH236174   4.883   2.246  13.961 -0.3358  0.2358  0.0805
 4920TIP3    H136175   4.823   2.173  13.943  1.0089 -1.6057  2.4510
 4920TIP3    H236176   4.914   2.274  13.875  0.1222 -2.9098 -0.8857
 4921TIP3   OH236177   1.278   2.365  16.854  0.6501  0.2392 -0.5883
 4921TIP3    H136178   1.365   2.384  16.818  1.0575  2.4007  1.2854
 4921TIP3    H236179   1.229   2.446  16.840  0.1410  0.3573  1.5910
 4922TIP3   OH236180   2.405   0.160   2.675 -0.2061  0.2394  0.5075
 4922TIP3    H136181   2.337   0.181   2.740  1.7244  1.7783  2.1781
 4922TIP3    H236182   2.447   0.081   2.708  0.6740  0.9342  1.1084
 4923TIP3   OH236183   2.364   6.268   1.837  0.0635 -0.0211 -0.1902
 4923TIP3    H136184   2.320   6.291   1.919 -0.5682 -2.0952  0.1193
 4923TIP3    H236185   2.293   6.260   1.774  0.5740  1.8130 -1.0408
 4924TIP3   OH236186   4.231   5.659   1.654 -0.0399  0.2550 -0.2293
 4924TIP3    H136187   4.173   5.645   1.579 -0.0316  1.0486 -0.3852
 4924TIP3    H236188   4.179   5.630   1.730  0.2019 -1.2074 -0.5853
 4925TIP3   OH236189   6.425   4.012   3.224 -0.1745  0.5920  0.4283
 4925TIP3    H136190   6.512   4.037   3.256  0.7208 -0.2476 -1.2127
 4925TIP3    H236191   6.413   3.922   3.253  0.0609  0.2857 -0.3985
 4926TIP3   OH236192   4.902   1.583  13.337 -0.3661 -0.7339 -0.4607
 4926TIP3    H136193   4.852   1.664  13.326 -0.2902 -0.4878  0.8925
 4926TIP3    H236194   4.868   1.544  13.417  1.8942 -0.3147  0.7870
 4927TIP3   OH236195   2.064   6.043   5.850  0.3071  0.9700 -0.3554
 4927TIP3    H136196   1.978   6.048   5.891 -0.1036  1.7961 -1.2839
 4927TIP3    H236197   2.121   6.092   5.909 -0.1988  1.8450 -0.5855
 4928TIP3   OH236198   1.622   6.539   0.792 -0.2048  0.2693 -0.3037
 4928TIP3    H136199   1.668   6.456   0.781  1.2711  0.9890  0.1390
 4928TIP3    H236200   1.643   6.589   0.713  3.4709  2.2252  1.6308
 4929TIP3   OH236201   2.103   3.102   0.188 -0.1594  0.1522  0.4613
 4929TIP3    H136202   2.042   3.057   0.247 -2.8513  1.5011 -1.1307
 4929TIP3    H236203   2.124   3.184   0.233 -0.2977  0.1183  0.5890
 4930TIP3   OH236204   3.535   0.067  12.364 -0.2884 -0.2632  0.3748
 4930TIP3    H136205   3.511   0.008  12.435 -0.1575  1.6146  2.0439
 4930TIP3    H236206   3.558   0.009  12.291  0.6165 -2.2823  2.1805
 4931TIP3   OH236207   6.378   3.234   5.651  0.2316 -0.0725  0.0392
 4931TIP3    H136208   6.384   3.169   5.722 -1.4820 -0.6671 -0.3029
 4931TIP3    H236209   6.415   3.190   5.575  0.2088 -0.1929  0.0972
 4932TIP3   OH236210   4.358   3.784  14.930 -0.3196 -0.1710 -0.0111
 4932TIP3    H136211   4.342   3.743  15.015  0.1927 -1.2669 -0.4199
 4932TIP3    H236212   4.331   3.718  14.866  0.1188  0.3006 -0.6980
 4933TIP3   OH236213   3.974   2.689  12.439  0.5380 -0.6362 -0.5217
 4933TIP3    H136214   3.990   2.669  12.531  0.0522  0.5413 -0.1660
 4933TIP3    H236215   4.036   2.634  12.391  0.7321 -1.3235  0.5015
 4934TIP3   OH236216   2.775   2.810   2.426 -0.4515 -0.1806 -0.2314
 4934TIP3    H136217   2.804   2.816   2.517  0.9113  0.0453 -0.6563
 4934TIP3    H236218   2.679   2.815   2.430 -0.3209  2.3807  0.9975
 4935TIP3   OH236219   1.284   0.708  12.653  0.4267  0.4263  0.9010
 4935TIP3    H136220   1.342   0.638  12.622  0.2981  0.4627  0.5785
 4935TIP3    H236221   1.212   0.661  12.695 -0.6847  0.2703 -1.0542
 4936TIP3   OH236222   0.146   3.878   3.280  0.1204 -0.4108  0.1989
 4936TIP3    H136223   0.221   3.871   3.339  0.4941 -1.6388 -0.3821
 4936TIP3    H236224   0.174   3.833   3.200 -0.8607  0.0308 -0.4105
 4937TIP3   OH236225   1.513   1.472   1.156  0.2206 -0.0738  0.2959
 4937TIP3    H136226   1.439   1.471   1.218  1.2811 -0.8248  1.6122
 4937TIP3    H236227   1.547   1.383   1.158  0.1655 -0.1747 -1.5777
 4938TIP3   OH236228   6.198   1.507   1.966 -0.0763 -0.3649  0.4082
 4938TIP3    H136229   6.227   1.577   2.025  0.0915 -0.6494  0.6626
 4938TIP3    H236230   6.134   1.550   1.908 -0.5741 -0.1891  1.0749
 4939TIP3   OH236231   1.795   1.439  10.973 -0.4669 -0.1877  0.1754
 4939TIP3    H136232   1.876   1.486  10.991 -1.1884  1.4842 -0.7436
 4939TIP3    H236233   1.749   1.493  10.909 -3.2814  0.0319  2.2049
 4940TIP3   OH236234   2.050   0.759   5.697  0.4254  0.1842  0.4172
 4940TIP3    H136235   2.006   0.831   5.653  0.5396  0.4113  0.6752
 4940TIP3    H236236   2.074   0.699   5.626 -0.7727 -0.2125  0.3256
 4941TIP3   OH236237   4.567   6.691   3.000  0.1492 -0.6052  0.0055
 4941TIP3    H136238   4.503   6.718   3.066 -0.5383 -0.4413 -0.7267
 4941TIP3    H236239   4.625   6.766   2.990 -1.1825  0.2881 -1.3187
 4942TIP3   OH236240   0.906   2.256  10.890  0.5235  0.0252  0.0632
 4942TIP3    H136241   0.851   2.219  10.959  0.4676 -1.3828 -0.6844
 4942TIP3    H236242   0.995   2.249  10.923  0.3689  1.0899  0.7374
 4943TIP3   OH236243   5.998   6.478  13.698  0.3233  0.3356 -0.0214
 4943TIP3    H136244   5.956   6.551  13.743 -0.0431  0.9499 -1.3023
 4943TIP3    H236245   6.083   6.512  13.671  0.3289  0.1604 -0.2349
 4944TIP3   OH236246   3.597   6.551  16.941  0.1007  0.9136  0.0116
 4944TIP3    H136247   3.578   6.584  16.853 -0.2692  0.2805 -0.1569
 4944TIP3    H236248   3.572   6.622  16.999  0.4689  1.3857 -0.4042
 4945TIP3   OH236249   2.227   6.333  11.994  0.1203 -0.0278  0.4185
 4945TIP3    H136250   2.254   6.332  11.902 -3.0831 -0.6711 -0.6308
 4945TIP3    H236251   2.158   6.399  11.997  0.7672  0.6168  2.6099
 4946TIP3   OH236252   4.671   1.293  16.999 -0.1351 -0.0567  0.0230
 4946TIP3    H136253   4.575   1.297  17.001 -0.1685 -0.9665  2.6128
 4946TIP3    H236254   4.691   1.224  16.936 -1.0713  1.2487 -1.8029
 4947TIP3   OH236255   1.496   5.848  15.132 -0.0625 -0.3904 -0.4341
 4947TIP3    H136256   1.433   5.861  15.061  0.8656 -1.4683 -1.4950
 4947TIP3    H236257   1.472   5.763  15.169 -0.5560  0.1778  0.5887
 4948TIP3   OH236258   4.237   6.744  15.984  0.0877 -0.0427 -0.2070
 4948TIP3    H136259   4.195   6.680  16.042  0.2171  0.1040  0.0491
 4948TIP3    H236260   4.287   6.691  15.922  0.4199 -0.1824  0.1774
 4949TIP3   OH236261   5.200   2.565   3.752 -0.2558 -0.3731 -0.3867
 4949TIP3    H136262   5.227   2.646   3.796 -0.7470  0.2812 -1.2714
 4949TIP3    H236263   5.126   2.590   3.697  0.2807 -1.1916 -1.5283
 4950TIP3   OH236264   4.874   1.118   1.587  0.6972  0.3959  0.1563
 4950TIP3    H136265   4.837   1.200   1.553  0.5287 -0.5125 -2.0203
 4950TIP3    H236266   4.798   1.065   1.611  0.7839  0.5491  0.7960
 4951TIP3   OH236267   2.384   1.182  11.782 -0.2062  0.1002  0.0311
 4951TIP3    H136268   2.343   1.151  11.701  0.8499 -1.3314  0.0113
 4951TIP3    H236269   2.466   1.222  11.754  0.2341 -0.5324  0.3838
 4952TIP3   OH236270   5.457   2.503   0.674 -0.6319 -0.1257  0.1256
 4952TIP3    H136271   5.522   2.498   0.744 -0.1384  2.5651 -0.0111
 4952TIP3    H236272   5.381   2.454   0.707 -0.5658  1.3702  2.7686
 4953TIP3   OH236273   4.136   4.345   2.581  0.4803 -0.1443  0.1732
 4953TIP3    H136274   4.152   4.439   2.579 -0.1376  0.0007 -2.8743
 4953TIP3    H236275   4.041   4.338   2.589  0.4832 -0.4869 -0.0891
 4954TIP3   OH236276   4.695   4.269  15.406  0.6999 -0.4948  0.6124
 4954TIP3    H136277   4.632   4.316  15.461 -0.7639 -1.8865  0.2340
 4954TIP3    H236278   4.748   4.219  15.467  1.5429  0.7542  0.9431
 4955TIP3   OH236279   2.211   4.627   3.989 -0.0578  0.3728 -0.1572
 4955TIP3    H136280   2.296   4.590   3.966 -0.3105 -1.0428  1.0439
 4955TIP3    H236281   2.233   4.706   4.039  0.5158  0.6799 -0.8709
 4956TIP3   OH236282   2.427   1.219   2.095 -0.6322  0.1984  0.3737
 4956TIP3    H136283   2.348   1.166   2.083 -1.0765  0.6099  1.3363
 4956TIP3    H236284   2.496   1.156   2.115 -0.6554 -0.1817 -0.6656
 4957TIP3   OH236285   0.023   2.031  13.541  0.1591  0.0161 -0.2379
 4957TIP3    H136286  -0.053   2.080  13.512  0.2151 -0.5661 -1.4127
 4957TIP3    H236287   0.098   2.087  13.520  0.2239 -0.5311 -1.5897
 4958TIP3   OH236288   5.075   3.920   0.353 -0.2652 -0.2458  0.0830
 4958TIP3    H136289   5.032   3.998   0.318  2.3965  0.4951 -1.7928
 4958TIP3    H236290   5.118   3.951   0.433  0.9105  0.3102 -0.7361
 4959TIP3   OH236291   0.868   4.525  17.207  0.1667 -0.0727  0.1623
 4959TIP3    H136292   0.910   4.517  17.292 -1.1424  0.5975  0.9145
 4959TIP3    H236293   0.830   4.613  17.207 -2.2335 -1.0261  0.0534
 4960TIP3   OH236294   6.738   0.587   5.784  0.3597  0.4099 -0.2574
 4960TIP3    H136295   6.759   0.521   5.718 -0.2947 -1.3822  1.2272
 4960TIP3    H236296   6.788   0.560   5.861  0.8702  2.2613  0.1184
 4961TIP3   OH236297   1.687   0.666   2.825 -0.4992 -0.5789 -0.0858
 4961TIP3    H136298   1.740   0.669   2.745 -0.8726  0.2780 -0.3104
 4961TIP3    H236299   1.644   0.580   2.821 -1.5095 -0.0649 -1.4857
 4962TIP3   OH236300   1.841   6.511  14.198  0.0157 -0.2738  0.2932
 4962TIP3    H136301   1.847   6.580  14.131 -1.9191  0.2118  0.5706
 4962TIP3    H236302   1.748   6.496  14.208  0.2113 -0.0259  3.1803
 4963TIP3   OH236303   3.311   3.132   4.166  0.1770 -0.6177 -0.1307
 4963TIP3    H136304   3.315   3.196   4.095  1.0769 -0.6592 -0.1230
 4963TIP3    H236305   3.343   3.051   4.126  2.1948 -0.2864  0.6930
 4964TIP3   OH236306   3.552   4.762  16.192  0.2460 -0.2891 -0.3147
 4964TIP3    H136307   3.581   4.693  16.132 -0.3027 -1.4183  0.6691
 4964TIP3    H236308   3.477   4.802  16.148  1.6148  0.8706 -1.6744
 4965TIP3   OH236309   5.171   3.950   1.145  0.0173  0.0855  0.8434
 4965TIP3    H136310   5.253   3.924   1.105 -1.2858 -2.0320 -0.6685
 4965TIP3    H236311   5.128   4.005   1.079 -0.2587  0.2615  1.1627
 4966TIP3   OH236312   1.489   3.753  14.720  0.2833 -0.4235  0.6644
 4966TIP3    H136313   1.496   3.658  14.730  2.0938 -0.4390 -0.3997
 4966TIP3    H236314   1.549   3.789  14.785  1.1724 -0.0821 -0.3296
 4967TIP3   OH236315   4.430   1.890  13.352  0.1030  0.7019  0.3760
 4967TIP3    H136316   4.399   1.800  13.348  1.1715  0.3023  0.7164
 4967TIP3    H236317   4.363   1.940  13.306 -1.0395 -0.1083  1.1043
 4968TIP3   OH236318   4.610   0.511  13.867  0.1543  0.0625 -0.0840
 4968TIP3    H136319   4.581   0.574  13.933  1.2214  0.2325  0.2426
 4968TIP3    H236320   4.592   0.555  13.783 -0.3142  0.2505  0.1127
 4969TIP3   OH236321   1.296   2.867   4.424  0.0358  0.0698 -0.2943
 4969TIP3    H136322   1.254   2.890   4.507  1.0708 -0.7688  0.4920
 4969TIP3    H236323   1.223   2.848   4.365 -0.7332  1.3670  0.1899
 4970TIP3   OH236324   1.352   1.529  13.673  0.6353 -0.0479 -0.2335
 4970TIP3    H136325   1.304   1.448  13.654  1.4278 -0.4238 -0.6893
 4970TIP3    H236326   1.284   1.596  13.682 -0.0003 -0.6662 -0.3382
 4971TIP3   OH236327   1.497   2.230  12.044  0.4646  0.8574 -0.5010
 4971TIP3    H136328   1.544   2.191  12.118  0.7962  1.5569 -0.3406
 4971TIP3    H236329   1.495   2.323  12.063 -0.5501  0.9029 -0.7616
 4972TIP3   OH236330   2.885   1.248  16.799 -0.3224 -0.1497  0.6625
 4972TIP3    H136331   2.910   1.165  16.759  1.1261  0.2332  0.7432
 4972TIP3    H236332   2.966   1.283  16.836 -0.5334  2.1420 -0.8766
 4973TIP3   OH236333   5.004   5.531  16.225  0.2246 -0.4520  0.3254
 4973TIP3    H136334   4.966   5.584  16.154 -2.2408 -0.5560  1.4519
 4973TIP3    H236335   5.026   5.448  16.183 -0.5818 -0.2862 -0.4697
 4974TIP3   OH236336   2.696   4.177  12.907 -0.3372 -0.4570 -0.7447
 4974TIP3    H136337   2.615   4.141  12.871 -1.9518  0.6083  1.5377
 4974TIP3    H236338   2.671   4.206  12.995  2.2299  1.1109 -0.4558
 4975TIP3   OH236339   3.719   0.066  13.357 -0.3752 -0.0927  0.3698
 4975TIP3    H136340   3.651  -0.002  13.351 -1.2705  0.7879  0.2662
 4975TIP3    H236341   3.674   0.147  13.331  0.8088  0.4567 -0.0071
 4976TIP3   OH236342   0.975   3.551   2.117  0.5246  0.0887  0.1474
 4976TIP3    H136343   1.037   3.596   2.060 -0.5465  1.9227  0.3759
 4976TIP3    H236344   1.031   3.501   2.178  1.6904 -0.7014 -1.5005
 4977TIP3   OH236345   4.921   5.920  13.552  0.2474  0.8580 -0.0454
 4977TIP3    H136346   4.924   5.988  13.484  1.9498  0.4572 -0.4125
 4977TIP3    H236347   5.010   5.916  13.585 -0.0254 -0.6410  0.5567
 4978TIP3   OH236348   0.667   5.850   1.853 -0.3486  0.1039 -0.2081
 4978TIP3    H136349   0.723   5.884   1.783 -0.2247 -0.2590 -0.2864
 4978TIP3    H236350   0.719   5.780   1.893  0.0528  1.0424  0.9863
 4979TIP3   OH236351   5.848   2.806  16.430  0.0928  0.3480 -0.3097
 4979TIP3    H136352   5.840   2.872  16.362 -0.5154  0.9506  0.3304
 4979TIP3    H236353   5.807   2.728  16.393 -0.2674  0.6804 -0.6185
 4980TIP3   OH236354   1.953   6.157  11.960  0.3391 -0.3510  0.0378
 4980TIP3    H136355   1.985   6.239  11.923  0.5317 -0.3896  0.1203
 4980TIP3    H236356   1.866   6.147  11.922 -0.8483  1.2683  2.1470
 4981TIP3   OH236357   0.102   6.286  16.809 -1.1043 -0.2914  0.1524
 4981TIP3    H136358   0.192   6.285  16.839 -0.8418  1.7591 -0.4343
 4981TIP3    H236359   0.097   6.361  16.749 -2.7958 -1.3363 -1.1034
 4982TIP3   OH236360   2.104   2.767   3.276 -0.0989  0.1360 -0.0355
 4982TIP3    H136361   2.100   2.677   3.241  2.2017  0.5273 -1.5468
 4982TIP3    H236362   2.108   2.756   3.371  2.7106 -1.5992 -0.2337
 4983TIP3   OH236363   5.154   3.198   3.423  0.4815  0.5805  0.2851
 4983TIP3    H136364   5.204   3.246   3.357 -0.2494  0.2307 -0.5480
 4983TIP3    H236365   5.126   3.119   3.378 -2.1920  1.4929  0.1580
 4984TIP3   OH236366   1.642   3.526  14.480 -0.2061  0.5635  0.4585
 4984TIP3    H136367   1.707   3.487  14.421 -0.0434  1.1481  0.2495
 4984TIP3    H236368   1.610   3.452  14.531 -1.9559 -0.3710 -1.8217
 4985TIP3   OH236369   4.685   2.380   5.838  0.3083  0.1992  0.1480
 4985TIP3    H136370   4.729   2.350   5.918  0.3709 -0.7307 -0.2305
 4985TIP3    H236371   4.661   2.300   5.792 -1.1132  0.6988 -0.0276
 4986TIP3   OH236372   3.689   0.497  15.039 -0.3493  0.0607  0.4679
 4986TIP3    H136373   3.664   0.447  14.961 -0.1187  1.0451 -0.2738
 4986TIP3    H236374   3.779   0.471  15.057  0.2310  1.1317 -0.7159
 4987TIP3   OH236375   1.200   4.303   3.402  0.2150 -0.5850  0.5398
 4987TIP3    H136376   1.128   4.249   3.370 -0.0716 -1.2301  2.1866
 4987TIP3    H236377   1.271   4.241   3.418  0.3944 -0.2539  1.0165
 4988TIP3   OH236378   4.254   4.584   0.537 -0.0533  0.3271 -0.0673
 4988TIP3    H136379   4.312   4.542   0.601  0.0613 -0.1840 -0.4946
 4988TIP3    H236380   4.168   4.547   0.555 -0.3086  1.2829  0.7383
 4989TIP3   OH236381   3.000   1.885   4.181  0.5431 -0.5020  0.1322
 4989TIP3    H136382   2.939   1.876   4.255  1.5557 -0.2185  1.0227
 4989TIP3    H236383   3.066   1.946   4.212 -0.2905  1.5981 -1.8753
 4990TIP3   OH236384   0.968   2.468  13.456 -0.0048 -0.0185  0.3059
 4990TIP3    H136385   1.021   2.426  13.389 -1.6283 -2.3836  0.3857
 4990TIP3    H236386   0.994   2.426  13.537  1.6803  2.5692  1.2459
 4991TIP3   OH236387   4.582   3.484  14.543 -0.6209  0.1564 -0.0262
 4991TIP3    H136388   4.672   3.458  14.559  0.1543  2.3940 -0.3582
 4991TIP3    H236389   4.536   3.402  14.525  0.9110 -1.2357  1.9792
 4992TIP3   OH236390   1.237   0.703  15.112 -0.7268 -0.1479  0.1688
 4992TIP3    H136391   1.278   0.787  15.091 -0.6243 -0.2959 -0.2344
 4992TIP3    H236392   1.310   0.647  15.141 -0.9102  0.1428  1.1960
 4993TIP3   OH236393   4.463   0.463  15.404 -0.0041 -0.2810  0.2678
 4993TIP3    H136394   4.501   0.534  15.354 -0.5806 -0.1814 -0.0340
 4993TIP3    H236395   4.510   0.385  15.375  1.3504  0.0884  1.3393
 4994TIP3   OH236396   1.854   2.100   5.652  0.1838 -0.0201 -0.4697
 4994TIP3    H136397   1.842   2.005   5.656  1.1672 -0.3084 -2.7479
 4994TIP3    H236398   1.825   2.124   5.565 -1.0686  1.9938  0.4375
 4995TIP3   OH236399   6.201   3.289  17.164  0.7907 -0.3974 -0.4873
 4995TIP3    H136400   6.236   3.377  17.157  2.1202 -0.8408  0.2808
 4995TIP3    H236401   6.198   3.257  17.074 -0.7244  0.7746 -0.9018
 4996TIP3   OH236402   0.105   6.331   1.246 -0.1127 -0.0439 -0.5669
 4996TIP3    H136403   0.031   6.390   1.235 -1.3158 -1.3949 -0.1540
 4996TIP3    H236404   0.066   6.250   1.279  1.5277 -0.8951 -0.5934
 4997TIP3   OH236405   6.673   3.337  12.068  0.2222  0.3879  0.3451
 4997TIP3    H136406   6.727   3.411  12.096 -1.2841  2.0896 -0.9666
 4997TIP3    H236407   6.590   3.348  12.115 -0.1463 -0.2541 -0.1222
 4998TIP3   OH236408   4.104   3.882  14.851 -0.0235 -0.3956 -0.1923
 4998TIP3    H136409   4.196   3.871  14.878  0.0998  1.4230  0.2911
 4998TIP3    H236410   4.109   3.940  14.774 -0.6646 -1.9762 -1.4737
 4999TIP3   OH236411   1.383   6.548  12.013  0.4407 -0.0403 -1.0060
 4999TIP3    H136412   1.344   6.635  12.020  0.6486  0.0976 -1.5395
 4999TIP3    H236413   1.473   6.559  12.044 -0.6400 -0.9385  3.0588
 5000TIP3   OH236414   5.081   2.145   4.763  0.0680  0.1042  0.2675
 5000TIP3    H136415   5.087   2.236   4.791 -3.3636  0.1659  1.2392
 5000TIP3    H236416   5.101   2.095   4.842 -0.0780  0.0836  0.2929
 5001TIP3   OH236417   3.926   5.686  12.353 -0.1441  1.0167 -0.1218
 5001TIP3    H136418   3.871   5.710  12.428 -0.2234  0.5160 -0.0113
 5001TIP3    H236419   3.863   5.664  12.284 -0.0816  0.8032 -0.1118
 5002TIP3   OH236420   2.529   0.191   1.155  0.4737 -0.0423 -0.1198
 5002TIP3    H136421   2.620   0.161   1.154 -0.1825 -2.3319  0.7872
 5002TIP3    H236422   2.516   0.233   1.070  2.6387  1.3375  0.1576
 5003TIP3   OH236423   6.100   0.472  16.219 -0.4315 -0.0557 -0.1044
 5003TIP3    H136424   6.185   0.513  16.236 -1.9678  2.3014  3.0009
 5003TIP3    H236425   6.041   0.546  16.202 -2.2099 -1.4773 -0.4302
 5004TIP3   OH236426   0.915   3.512  17.085 -0.1184 -0.0646  0.0081
 5004TIP3    H136427   0.834   3.512  17.033 -0.8040 -0.1088  1.0507
 5004TIP3    H236428   0.959   3.430  17.060 -0.0998  0.2309 -0.9882
 5005TIP3   OH236429   3.643   1.602   0.687 -0.2813  0.3373 -0.0001
 5005TIP3    H136430   3.663   1.621   0.596 -0.0262  1.5020  0.2832
 5005TIP3    H236431   3.728   1.608   0.732 -0.4047 -0.2188  0.3202
 5006TIP3   OH236432   0.964   4.008   5.935  0.5343 -0.3013  0.0699
 5006TIP3    H136433   0.936   3.916   5.937  0.5794 -0.3106  0.2852
 5006TIP3    H236434   0.889   4.054   5.897 -0.0663 -0.2332  1.2843
 5007TIP3   OH236435   0.550   0.368  15.238  0.3610  0.0143 -0.2177
 5007TIP3    H136436   0.482   0.388  15.303 -1.9215 -0.3797 -2.3186
 5007TIP3    H236437   0.544   0.273  15.227  1.6409 -0.0916 -0.0848
 5008TIP3   OH236438   3.851   3.769  16.098  0.0350 -0.1489 -0.5045
 5008TIP3    H136439   3.814   3.849  16.136  2.3764  0.5146  0.5453
 5008TIP3    H236440   3.776   3.710  16.089 -1.0866  0.6077  2.6790
 5009TIP3   OH236441   2.748   2.288  12.961  0.0956  0.0877  0.1470
 5009TIP3    H136442   2.703   2.370  12.941 -1.0319  0.0824  2.3151
 5009TIP3    H236443   2.724   2.229  12.890 -1.9537  0.6291  0.3129
 5010TIP3   OH236444   5.874   5.320   0.968 -0.1278  0.5371 -0.2222
 5010TIP3    H136445   5.850   5.320   1.060  0.8119 -2.5987  0.1632
 5010TIP3    H236446   5.797   5.286   0.923  0.5186 -1.2470 -0.0769
 5011TIP3   OH236447   5.918   0.189  13.254  0.7068  0.5883 -0.2951
 5011TIP3    H136448   5.954   0.183  13.165 -0.2152  1.8857 -0.7864
 5011TIP3    H236449   5.888   0.280  13.261 -1.4846 -0.1391  0.4552
 5012TIP3   OH236450   1.112   1.439   2.461  0.7596 -0.2646  0.1263
 5012TIP3    H136451   1.157   1.522   2.446 -0.2218  0.4311  0.8882
 5012TIP3    H236452   1.120   1.423   2.555 -0.2709 -0.2911  0.2206
 5013TIP3   OH236453   5.921   2.363   4.236  0.0862  0.4008 -0.4239
 5013TIP3    H136454   5.909   2.422   4.310  1.3163  0.0630  0.0752
 5013TIP3    H236455   5.911   2.419   4.159  1.4124  1.3390  0.0452
 5014TIP3   OH236456   6.546   5.145   5.446 -0.5146 -0.1687  0.1736
 5014TIP3    H136457   6.458   5.115   5.424 -0.7655  0.4578  0.2965
 5014TIP3    H236458   6.551   5.233   5.408 -0.3646  0.2711  1.1836
 5015TIP3   OH236459   1.505   0.272   3.629 -0.3403 -0.0915 -0.2445
 5015TIP3    H136460   1.426   0.300   3.675  0.8497  0.0701  1.8635
 5015TIP3    H236461   1.474   0.221   3.555 -2.4268 -1.9151  1.7381
 5016TIP3   OH236462   1.481   2.000  14.910  0.4740 -0.1667 -1.0853
 5016TIP3    H136463   1.510   2.051  14.834  0.3636 -0.2270 -1.1677
 5016TIP3    H236464   1.538   2.030  14.982  0.5106 -0.0380 -1.1681
 5017TIP3   OH236465   4.925   0.818   5.012  0.6682  0.7312 -0.1674
 5017TIP3    H136466   4.867   0.888   4.984 -0.5991  0.0337  0.6394
 5017TIP3    H236467   4.965   0.785   4.931 -0.0085  1.2698 -0.7274
 5018TIP3   OH236468   5.035   4.272   3.346 -0.0834 -0.6613 -0.1897
 5018TIP3    H136469   5.016   4.362   3.374  0.6387  0.3312 -2.6283
 5018TIP3    H236470   4.954   4.224   3.364 -0.8698  0.7397  0.1636
 5019TIP3   OH236471   3.236   6.594   2.289 -0.1958  0.0063  0.6002
 5019TIP3    H136472   3.279   6.678   2.307 -2.5639  1.1101  1.5373
 5019TIP3    H236473   3.207   6.600   2.198  2.0951 -1.0215 -0.2597
 5020TIP3   OH236474   2.533   5.924  16.948 -0.0062  0.0141  0.1772
 5020TIP3    H136475   2.577   5.838  16.947  2.2782  1.0745  1.2166
 5020TIP3    H236476   2.578   5.974  16.880 -0.9783  0.5498 -0.0760
 5021TIP3   OH236477   0.530   6.625  13.756  0.2827  0.3955 -0.5415
 5021TIP3    H136478   0.455   6.662  13.804 -0.1114 -1.4925  0.4039
 5021TIP3    H236479   0.492   6.592  13.675 -0.1210 -1.2768  0.2834
 5022TIP3   OH236480   6.439   2.389   1.978 -0.4527 -0.2529 -0.0724
 5022TIP3    H136481   6.386   2.450   2.029 -1.9195 -1.5198 -0.0064
 5022TIP3    H236482   6.384   2.312   1.968  1.0152 -1.2455 -0.8988
 5023TIP3   OH236483   2.290   5.017  14.354 -0.0582  0.5639 -0.4681
 5023TIP3    H136484   2.310   4.993  14.263 -3.9419  3.0834 -2.3060
 5023TIP3    H236485   2.311   5.110  14.360 -0.4089  0.5755  1.0262
 5024TIP3   OH236486   4.383   6.288  16.011  0.4720 -0.1632 -0.3990
 5024TIP3    H136487   4.457   6.239  15.975 -0.3382 -0.9266 -1.0696
 5024TIP3    H236488   4.334   6.318  15.935 -1.2494 -1.7691 -0.0073
 5025TIP3   OH236489   1.190   1.903  13.077 -0.3650  0.1482 -0.3920
 5025TIP3    H136490   1.231   1.830  13.122  1.1510  0.0552 -1.8199
 5025TIP3    H236491   1.132   1.863  13.012 -1.1346  0.2546  0.2208
 5026TIP3   OH236492   6.049   0.507  11.311 -0.4331 -0.3737 -0.4736
 5026TIP3    H136493   6.127   0.462  11.278  0.9885  2.5277 -1.4817
 5026TIP3    H236494   5.997   0.526  11.233 -1.4744 -1.0810  0.0376
 5027TIP3   OH236495   2.109   1.578  12.886  0.5565  0.1941 -0.6784
 5027TIP3    H136496   2.084   1.506  12.828  1.1809  0.0205 -0.7423
 5027TIP3    H236497   2.182   1.543  12.938  0.9615  0.8203 -0.8113
 5028TIP3   OH236498   0.754   2.293  14.775  0.0010  0.2769 -0.4878
 5028TIP3    H136499   0.810   2.247  14.711 -1.3209 -1.8188 -0.2505
 5028TIP3    H236500   0.807   2.366  14.805  0.9023  1.0360 -3.5679
 5029TIP3   OH236501   3.636   0.939  12.460 -0.3416 -0.4642 -0.2640
 5029TIP3    H136502   3.723   0.900  12.453 -0.3953 -0.7332  0.5297
 5029TIP3    H236503   3.630   0.970  12.550 -1.2943 -1.0195 -0.1165
 5030TIP3   OH236504   4.555   5.974   5.051  0.0374 -0.1493  0.0600
 5030TIP3    H136505   4.470   5.968   5.009  0.1750 -0.7342 -0.1534
 5030TIP3    H236506   4.561   5.894   5.105 -0.0562  0.4880  1.0372
 5031TIP3   OH236507   6.431   4.266  17.116  0.0224 -0.2297 -0.3614
 5031TIP3    H136508   6.469   4.184  17.145  0.4605 -0.0547 -0.4373
 5031TIP3    H236509   6.372   4.242  17.045  1.0926 -0.3481 -1.2341
 5032TIP3   OH236510   2.733   1.456   5.798 -0.5514  0.1287  0.6914
 5032TIP3    H136511   2.731   1.394   5.725 -0.8825 -0.2070  0.9840
 5032TIP3    H236512   2.643   1.488   5.805 -0.5444  0.0850  1.0108
 5033TIP3   OH236513   6.223   6.008  10.548 -0.0362  0.3313  0.5887
 5033TIP3    H136514   6.284   5.937  10.568  1.4880  0.6798 -2.2465
 5033TIP3    H236515   6.263   6.086  10.587 -0.5117  0.0426  1.6982
 5034TIP3   OH236516   5.236   4.897   3.160 -0.4843  0.1519 -0.0774
 5034TIP3    H136517   5.244   4.986   3.195 -0.0122  0.1369 -0.1368
 5034TIP3    H236518   5.254   4.906   3.067 -2.1551  0.2530 -0.4235
 5035TIP3   OH236519   2.325   3.965  11.390  0.1072 -0.4129  0.1391
 5035TIP3    H136520   2.410   3.980  11.433 -0.1591 -0.1561  0.5793
 5035TIP3    H236521   2.336   4.005  11.304 -0.0853  1.0588  0.7588
 5036TIP3   OH236522   6.384   2.165  16.500  0.1174  0.1195 -0.1217
 5036TIP3    H136523   6.476   2.179  16.480  0.2268 -0.4178  0.0006
 5036TIP3    H236524   6.375   2.191  16.592  0.4291 -1.0676  0.2556
 5037TIP3   OH236525   2.107   1.588  10.387  0.3119 -0.1017  0.7422
 5037TIP3    H136526   2.067   1.514  10.342 -0.3847  0.4217  0.4813
 5037TIP3    H236527   2.046   1.609  10.458  0.1390  0.6679  0.3774
 5038TIP3   OH236528   0.892   0.320   4.934 -0.8586 -0.4400 -0.6010
 5038TIP3    H136529   0.887   0.274   4.850 -1.3194 -3.3111  0.8606
 5038TIP3    H236530   0.802   0.320   4.966 -0.7850  1.1674 -0.3294
 5039TIP3   OH236531   3.212   5.792   3.705 -0.3384 -0.4864  0.7772
 5039TIP3    H136532   3.214   5.725   3.773  3.2214  0.4501  1.8396
 5039TIP3    H236533   3.283   5.852   3.729 -0.3479  1.1049 -2.6061
 5040TIP3   OH236534   6.260   2.635  14.902  0.7245 -0.5228  0.0575
 5040TIP3    H136535   6.189   2.674  14.851 -1.0446 -2.9138  0.5194
 5040TIP3    H236536   6.336   2.640  14.845 -0.1946  0.6083 -1.1265
 5041TIP3   OH236537   3.421   1.308  12.534 -0.2247  0.4501  0.4841
 5041TIP3    H136538   3.355   1.362  12.578  0.3326  1.2874  0.3065
 5041TIP3    H236539   3.488   1.369  12.506  0.5061 -0.3567  0.4131
 5042TIP3   OH236540   6.405   6.042  12.234 -0.1102 -0.3077 -0.3936
 5042TIP3    H136541   6.490   6.087  12.230 -0.1210 -0.1178  1.0649
 5042TIP3    H236542   6.374   6.042  12.144  0.7655  0.9482 -0.7208
 5043TIP3   OH236543   4.006   0.794   5.037 -0.6010 -1.1019 -0.2355
 5043TIP3    H136544   3.923   0.754   5.065 -0.6650  0.2885  1.7878
 5043TIP3    H236545   3.996   0.887   5.058  1.3747 -0.8569 -0.1655
 5044TIP3   OH236546   3.302   4.119  12.210  0.0657  0.2638  0.2914
 5044TIP3    H136547   3.228   4.070  12.175 -1.1769  1.0627  1.6829
 5044TIP3    H236548   3.320   4.185  12.144 -0.4853  0.0825 -0.0466
 5045TIP3   OH236549   5.671   4.678   2.729 -0.1334  0.1122 -0.2996
 5045TIP3    H136550   5.598   4.632   2.688 -0.0378 -0.5519  0.2462
 5045TIP3    H236551   5.735   4.609   2.749  1.2850  0.8512 -2.0363
 5046TIP3   OH236552   4.072   3.040  10.920 -0.8384 -0.3511  0.9792
 5046TIP3    H136553   4.085   3.126  10.881  0.4599 -0.5808  0.8398
 5046TIP3    H236554   4.024   2.990  10.854  2.3167 -1.1087 -0.9817
 5047TIP3   OH236555   5.122   0.151   0.445 -0.0661 -0.1824  0.8835
 5047TIP3    H136556   5.125   0.121   0.354 -1.3578 -0.9917  1.0867
 5047TIP3    H236557   5.169   0.083   0.494  0.1229 -0.0389  0.9049
 5048TIP3   OH236558   5.018   3.134   0.358 -0.3576 -0.2709  0.6373
 5048TIP3    H136559   4.976   3.185   0.288 -0.1025 -0.8077  0.0821
 5048TIP3    H236560   4.990   3.177   0.439 -2.2440 -0.7846  0.3139
 5049TIP3   OH236561   6.703   3.666   1.203  0.0647  0.3159  0.3710
 5049TIP3    H136562   6.744   3.738   1.252  2.0230 -0.1425 -0.4864
 5049TIP3    H236563   6.772   3.600   1.196 -1.0587 -0.7984 -0.5951
 5050TIP3   OH236564   0.193   6.416   3.434  0.3552  0.0177  0.0359
 5050TIP3    H136565   0.126   6.362   3.391  0.6831 -0.6591  0.3660
 5050TIP3    H236566   0.188   6.391   3.526  0.8240  0.2177  0.1162
 5051TIP3   OH236567   1.382   2.587  12.208 -0.1860 -0.3551 -0.7619
 5051TIP3    H136568   1.462   2.619  12.251 -2.2056  1.2264  2.1526
 5051TIP3    H236569   1.349   2.663  12.161 -1.9398  0.3214  1.3688
 5052TIP3   OH236570   5.893   4.600   4.634  0.2865 -0.4567 -0.2275
 5052TIP3    H136571   5.829   4.632   4.570  0.8866 -0.9058 -1.0751
 5052TIP3    H236572   5.863   4.513   4.658 -0.2679 -0.0496  0.5684
 5053TIP3   OH236573   5.352   6.716  11.074  0.4059  0.3217  0.6343
 5053TIP3    H136574   5.446   6.717  11.056  0.1245  0.4203 -0.9615
 5053TIP3    H236575   5.319   6.797  11.036 -0.3958  0.1088  0.8439
 5054TIP3   OH236576   3.845   5.851  15.986 -0.0397  0.3576 -0.7633
 5054TIP3    H136577   3.824   5.769  15.942  1.1856 -0.5990  0.3582
 5054TIP3    H236578   3.939   5.864  15.969  0.2560  0.4315  0.7644
 5055TIP3   OH236579   4.056   2.585  13.541  0.2314 -0.1676 -0.2493
 5055TIP3    H136580   4.098   2.596  13.455 -0.7043 -0.2451 -0.7306
 5055TIP3    H236581   4.012   2.500  13.535  1.8378 -1.1540  1.0517
 5056TIP3   OH236582   0.391   2.258   5.030  0.6211 -0.0730 -0.5314
 5056TIP3    H136583   0.396   2.351   5.050  0.3207  0.0001 -0.7888
 5056TIP3    H236584   0.319   2.251   4.967 -0.5045 -0.6909  0.7562
 5057TIP3   OH236585   3.787   5.096   0.999  0.0358  0.4248 -0.2852
 5057TIP3    H136586   3.796   5.031   1.069 -1.0113  0.0644 -0.4576
 5057TIP3    H236587   3.693   5.114   0.995  0.2511  1.6015 -0.5697
 5058TIP3   OH236588   6.660   1.000   3.078 -0.3995  0.3336 -0.0704
 5058TIP3    H136589   6.646   1.025   2.987  1.7214  0.5413 -0.3929
 5058TIP3    H236590   6.727   0.932   3.074 -0.4757  0.1453  1.3204
 5059TIP3   OH236591   0.897   0.655   2.188 -0.3197 -0.0562 -0.4484
 5059TIP3    H136592   0.824   0.678   2.245  0.0448  1.1623 -0.4421
 5059TIP3    H236593   0.975   0.682   2.237  0.0780 -0.4615 -0.8562
 5060TIP3   OH236594   6.432   2.109   2.312  0.0881 -0.3013 -0.0135
 5060TIP3    H136595   6.391   2.195   2.315  0.0281 -0.3648  1.2837
 5060TIP3    H236596   6.440   2.090   2.218  0.0588  1.0817 -0.3181
 5061TIP3   OH236597   0.477   0.205   2.187 -0.2404 -0.0960 -0.0248
 5061TIP3    H136598   0.520   0.165   2.263  2.8249 -1.8050 -2.4083
 5061TIP3    H236599   0.532   0.281   2.166 -2.0407  1.3780  0.3750
 5062TIP3   OH236600   5.457   2.365  14.408 -0.1364 -0.0731 -0.0074
 5062TIP3    H136601   5.387   2.318  14.362 -0.4712  0.2985  0.1167
 5062TIP3    H236602   5.422   2.381  14.496 -0.6474  1.7500 -0.5019
 5063TIP3   OH236603   3.034   0.940   4.222 -0.2497  0.1007 -0.2817
 5063TIP3    H136604   3.119   0.975   4.194 -0.1911  0.4207  0.2908
 5063TIP3    H236605   3.049   0.909   4.311 -0.1497 -1.9272 -0.9536
 5064TIP3   OH236606   6.709   5.168   5.677 -0.4859  0.1143  0.0888
 5064TIP3    H136607   6.640   5.157   5.611  0.1973 -3.8355 -0.1856
 5064TIP3    H236608   6.707   5.261   5.698 -2.2220  1.1719 -3.8578
 5065TIP3   OH236609   1.921   5.343   5.462  0.1470  0.1415 -0.0846
 5065TIP3    H136610   1.831   5.332   5.494 -0.2162 -0.3192 -1.2264
 5065TIP3    H236611   1.936   5.437   5.466 -0.0456  0.1469  0.9797
 5066TIP3   OH236612   0.087   2.356  11.775  0.4517 -0.3399  0.0258
 5066TIP3    H136613   0.115   2.379  11.863 -3.4282  2.2890  0.8010
 5066TIP3    H236614   0.060   2.264  11.781  0.4929 -0.2678  1.4932
 5067TIP3   OH236615   6.624   5.162   3.334  0.3098 -0.0306 -0.2149
 5067TIP3    H136616   6.587   5.104   3.401 -1.7527  1.0500 -0.3213
 5067TIP3    H236617   6.558   5.230   3.323  0.9283  0.2578 -2.7949
 5068TIP3   OH236618   4.203   0.821   2.263 -0.0267 -0.4878  0.7611
 5068TIP3    H136619   4.134   0.791   2.204  0.9929 -2.1615  0.3372
 5068TIP3    H236620   4.164   0.895   2.310 -1.0950  0.4995 -1.5128
 5069TIP3   OH236621   2.660   6.417   2.177  0.3798 -0.0077 -0.0852
 5069TIP3    H136622   2.709   6.353   2.126  2.5865  0.6460  1.0803
 5069TIP3    H236623   2.672   6.389   2.268 -0.7250  0.6720  0.2913
 5070TIP3   OH236624   1.870   3.523   1.804 -0.5669 -0.1545 -0.3948
 5070TIP3    H136625   1.926   3.447   1.792 -0.9958 -0.5520  0.1065
 5070TIP3    H236626   1.884   3.576   1.725  0.8359 -0.0292 -0.0939
 5071TIP3   OH236627   4.509   3.599   5.344  0.5725  0.0758 -0.2091
 5071TIP3    H136628   4.535   3.530   5.405  1.2784  0.0734 -0.5043
 5071TIP3    H236629   4.488   3.554   5.263  0.3426  0.1500 -0.1933
 5072TIP3   OH236630   0.545   0.906  16.607  0.2229 -0.3895 -0.4350
 5072TIP3    H136631   0.621   0.933  16.556  1.6201  0.0255  1.7127
 5072TIP3    H236632   0.525   0.982  16.662 -0.0965 -1.3745  0.8595
 5073TIP3   OH236633   1.228   3.917  15.022  0.1129  0.1527 -0.3388
 5073TIP3    H136634   1.150   3.972  15.023  0.3279  0.5230 -1.6328
 5073TIP3    H236635   1.194   3.827  15.031 -0.5193  0.2651 -1.4563
 5074TIP3   OH236636   5.542   2.728   1.482 -0.1420 -0.0270 -0.2880
 5074TIP3    H136637   5.491   2.762   1.555 -0.1403 -2.5296  0.9898
 5074TIP3    H236638   5.615   2.789   1.472 -0.1705  0.3942  1.7846
 5075TIP3   OH236639   1.036   3.417   1.010 -0.2369  0.3366 -0.3042
 5075TIP3    H136640   1.012   3.481   0.943 -0.8900 -0.5900 -1.0020
 5075TIP3    H236641   0.967   3.424   1.075 -0.1572  0.5330 -0.2404
 5076TIP3   OH236642   0.185   2.463  16.434  0.5913  0.3941 -0.4351
 5076TIP3    H136643   0.277   2.482  16.455  1.4570 -3.8080  0.5517
 5076TIP3    H236644   0.189   2.408  16.356 -1.1715  0.6143 -0.7278
 5077TIP3   OH236645   6.145   1.840   2.002  0.6041  0.1963  0.7683
 5077TIP3    H136646   6.051   1.836   1.987  0.6832  1.4291 -0.3286
 5077TIP3    H236647   6.157   1.914   2.062  0.8581 -0.0817  1.0630
 5078TIP3   OH236648   3.591   2.231   2.155  0.6237  0.2457 -0.8927
 5078TIP3    H136649   3.573   2.258   2.065  0.8146  0.8149 -0.7694
 5078TIP3    H236650   3.645   2.153   2.146  1.9142  1.1465 -1.3022
 5079TIP3   OH236651   1.986   2.622   2.369  0.1080 -0.3259  0.3349
 5079TIP3    H136652   2.027   2.708   2.376  0.5829 -0.3092 -1.8662
 5079TIP3    H236653   1.912   2.635   2.310 -0.7635 -1.1379  1.2094
 5080TIP3   OH236654   4.058   4.171  14.981 -0.2592 -0.1859 -1.0366
 5080TIP3    H136655   4.061   4.263  15.007  1.6062 -0.6510  0.5931
 5080TIP3    H236656   3.966   4.154  14.962 -0.7658  1.7851 -0.5132
 5081TIP3   OH236657   6.593   1.842   4.360  0.7386 -0.1635 -0.1764
 5081TIP3    H136658   6.533   1.797   4.301  1.0131  0.1386 -0.6856
 5081TIP3    H236659   6.590   1.933   4.333 -0.9302  0.4441  1.7707
 5082TIP3   OH236660   1.588   2.905   1.521  0.5107  0.0531  0.2932
 5082TIP3    H136661   1.496   2.918   1.541  0.2965 -0.6200 -0.2081
 5082TIP3    H236662   1.625   2.993   1.516 -0.1340  0.3284  0.3501
 5083TIP3   OH236663   5.244   6.711   0.604  0.3014 -0.7944  0.0059
 5083TIP3    H136664   5.205   6.738   0.687 -2.0267  0.2478 -1.3257
 5083TIP3    H236665   5.207   6.624   0.587 -0.3201 -0.4233 -0.5743
 5084TIP3   OH236666   3.757   2.846   4.348 -0.3478 -0.4010 -0.3297
 5084TIP3    H136667   3.824   2.802   4.295 -0.4459 -0.7938 -0.1318
 5084TIP3    H236668   3.751   2.793   4.428 -2.0450 -1.3225 -1.0148
 5085TIP3   OH236669   0.096   2.430  14.096  0.5083 -0.6528 -0.0698
 5085TIP3    H136670   0.037   2.443  14.023 -1.0581  1.3501  1.4389
 5085TIP3    H236671   0.039   2.409  14.170  1.7762 -0.0598  1.1258
 5086TIP3   OH236672   3.855   5.894   0.950 -0.5227 -0.0260 -0.2475
 5086TIP3    H136673   3.771   5.849   0.956 -0.5030 -0.0024  0.2400
 5086TIP3    H236674   3.883   5.904   1.041  0.0343 -0.0898 -0.4089
 5087TIP3   OH236675   1.543   0.046  12.468  0.4027 -0.2466 -0.1340
 5087TIP3    H136676   1.518  -0.033  12.515 -1.9790 -1.4799 -3.1676
 5087TIP3    H236677   1.461   0.094  12.454  1.0381  0.3203 -2.4093
 5088TIP3   OH236678   2.969   1.165  17.297  0.4259  0.8887  0.1628
 5088TIP3    H136679   2.911   1.237  17.272  1.6387  1.9277  0.2343
 5088TIP3    H236680   2.944   1.144  17.387 -0.0168  1.1400  0.1033
 5089TIP3   OH236681   0.989   4.573  13.452  0.5607 -0.3636  0.1025
 5089TIP3    H136682   0.954   4.649  13.405 -0.1683  0.0277  1.2318
 5089TIP3    H236683   0.931   4.501  13.427 -0.5543  0.0903  1.2567
 5090TIP3   OH236684   1.524   6.323  11.497  0.4883  0.3543  0.1926
 5090TIP3    H136685   1.431   6.342  11.483  0.2756  0.1872  1.2327
 5090TIP3    H236686   1.552   6.387  11.563  0.6790 -0.6243  1.0843
 5091TIP3   OH236687   0.666   4.355  13.819  0.5651 -0.6577  0.2494
 5091TIP3    H136688   0.688   4.414  13.891  1.0303  0.8797 -1.0950
 5091TIP3    H236689   0.730   4.376  13.751 -1.4936 -0.0916 -1.6353
 5092TIP3   OH236690   3.029   2.190   1.807  0.0596  0.2374  0.2234
 5092TIP3    H136691   3.108   2.243   1.821  0.3319  1.2182 -3.8169
 5092TIP3    H236692   2.958   2.254   1.806 -0.4135 -0.2679  0.8790
 5093TIP3   OH236693   1.813   2.040   0.333 -0.4325 -0.3809  0.0250
 5093TIP3    H136694   1.833   2.125   0.372  1.4626 -0.7568 -0.0353
 5093TIP3    H236695   1.827   2.052   0.240 -1.2036 -0.4895 -0.1102
 5094TIP3   OH236696   1.553   1.144   0.891 -0.0806 -0.5984 -0.2177
 5094TIP3    H136697   1.504   1.225   0.903  2.0068  0.9831 -1.7318
 5094TIP3    H236698   1.628   1.152   0.950  0.9371 -0.6999 -1.4613
 5095TIP3   OH236699   3.950   1.868   0.285  0.1522  0.1801 -0.6034
 5095TIP3    H136700   3.983   1.884   0.197  1.7066  0.6659  0.0497
 5095TIP3    H236701   4.023   1.828   0.331  0.1964  2.1388  1.1478
 5096TIP3   OH236702   1.373   0.528  15.871  0.5429 -0.3799 -0.0791
 5096TIP3    H136703   1.397   0.531  15.779 -0.4489  1.8161 -0.3136
 5096TIP3    H236704   1.285   0.491  15.872  0.4146 -0.0748 -0.0478
 5097TIP3   OH236705   0.593   3.333   4.636  0.0987  0.6367 -0.1236
 5097TIP3    H136706   0.618   3.418   4.599  1.6014  0.9928  1.5587
 5097TIP3    H236707   0.511   3.350   4.681  0.7812  1.4373  0.8765
 5098TIP3   OH236708   3.444   4.333   2.924  0.1074  0.0407 -0.8369
 5098TIP3    H136709   3.429   4.243   2.951 -0.3760  0.0121 -1.1945
 5098TIP3    H236710   3.535   4.351   2.951 -0.2308 -0.1000  0.4778
 5099TIP3   OH236711   0.082   4.032   2.139 -0.3266 -0.7126 -0.3081
 5099TIP3    H136712   0.116   4.054   2.225 -0.3651  3.1372 -1.0677
 5099TIP3    H236713  -0.007   4.000   2.155 -0.0880 -0.6996  1.1087
 5100TIP3   OH236714   4.750   2.357  12.989 -0.2915 -0.2238 -0.0943
 5100TIP3    H136715   4.675   2.323  13.038 -1.5641 -0.0827 -1.8521
 5100TIP3    H236716   4.740   2.452  12.994 -0.1613 -0.2032 -0.2270
 5101TIP3   OH236717   5.745   5.093   1.157  0.2275  0.1695 -0.2296
 5101TIP3    H136718   5.797   5.041   1.219 -1.5922 -0.4300  0.8741
 5101TIP3    H236719   5.740   5.038   1.079 -1.2354 -1.1743  0.7426
 5102TIP3   OH236720   1.030   2.514  16.340  0.1351 -0.4848 -0.0985
 5102TIP3    H136721   1.071   2.509  16.253  0.2957  0.8234 -0.1148
 5102TIP3    H236722   1.058   2.433  16.384  0.7636 -0.7564 -0.9579
 5103TIP3   OH236723   1.875   1.723  12.990  0.0162 -0.0014 -0.2988
 5103TIP3    H136724   1.849   1.751  13.077  0.0431  2.0157 -0.8811
 5103TIP3    H236725   1.950   1.666  13.003 -0.1249  0.0976  0.9932
 5104TIP3   OH236726   3.479   6.665  12.834 -0.0661  0.2938 -0.5347
 5104TIP3    H136727   3.434   6.616  12.902 -0.6920  0.4175 -0.8500
 5104TIP3    H236728   3.505   6.747  12.876 -0.0045  0.1609 -0.3125
 5105TIP3   OH236729   2.439   4.758  12.825  0.1205 -0.1635  0.3096
 5105TIP3    H136730   2.449   4.753  12.920 -1.4696 -1.7439  0.4543
 5105TIP3    H236731   2.366   4.699  12.805 -1.2519  1.9965 -1.6472
 5106TIP3   OH236732   1.784   2.249   3.896  0.8907 -0.2112 -0.0530
 5106TIP3    H136733   1.865   2.217   3.856  1.1919  0.3552  0.0873
 5106TIP3    H236734   1.801   2.244   3.990  0.8029  0.0063 -0.0246
 5107TIP3   OH236735   0.711   5.914  12.977 -0.3694  0.6306 -0.1363
 5107TIP3    H136736   0.759   5.995  12.993 -0.5180  0.8115 -0.6025
 5107TIP3    H236737   0.632   5.923  13.030 -0.2928  0.7030 -0.0327
 5108TIP3   OH236738   6.331   2.478  11.911  0.5352 -0.2925  0.6886
 5108TIP3    H136739   6.282   2.495  11.991 -1.0856 -0.3851 -0.2390
 5108TIP3    H236740   6.415   2.522  11.924  0.1507  0.0248  2.2620
 5109TIP3   OH236741   0.811   2.402   1.579  0.4707 -0.1868 -0.0181
 5109TIP3    H136742   0.829   2.343   1.652 -0.0336  0.2283  0.4570
 5109TIP3    H236743   0.715   2.402   1.571  0.5474 -0.8777 -1.2349
 5110TIP3   OH236744   0.107   3.257  13.838  0.3357 -0.3072  0.3471
 5110TIP3    H136745   0.080   3.275  13.927 -0.6585 -1.1635  0.2302
 5110TIP3    H236746   0.101   3.162  13.829  2.4648 -0.4615  0.0073
 5111TIP3   OH236747   0.949   1.214  11.451  0.2239  0.4641 -0.0349
 5111TIP3    H136748   1.000   1.227  11.531  1.5702 -1.0355 -0.5928
 5111TIP3    H236749   0.997   1.263  11.384 -0.5544  1.1981 -0.0759
 5112TIP3   OH236750   3.190   5.080  12.156  0.2106  0.2757 -0.6609
 5112TIP3    H136751   3.177   5.146  12.087 -0.0524  1.7335  0.7167
 5112TIP3    H236752   3.102   5.053  12.180  0.1380  1.5435  0.6820
 5113TIP3   OH236753   4.498   5.896  14.438 -0.1361 -0.0449 -0.1472
 5113TIP3    H136754   4.423   5.956  14.440 -0.7465 -0.5167 -3.3351
 5113TIP3    H236755   4.463   5.815  14.475 -0.6278  0.2579  0.0779
 5114TIP3   OH236756   6.536   3.109  17.128 -0.4579 -0.1825  0.7104
 5114TIP3    H136757   6.472   3.127  17.197 -0.0918 -0.1934  1.0540
 5114TIP3    H236758   6.620   3.102  17.173 -0.1979 -0.0981  0.2553
 5115TIP3   OH236759   6.751   6.198   0.389 -0.1846 -0.0929 -0.4754
 5115TIP3    H136760   6.682   6.206   0.324 -1.3228 -1.4243  0.5305
 5115TIP3    H236761   6.716   6.139   0.456  0.4037  2.1910  2.0401
 5116TIP3   OH236762   3.391   1.926   2.888  0.0975  0.3150  0.3892
 5116TIP3    H136763   3.447   2.002   2.874  1.3354 -0.8040 -0.9946
 5116TIP3    H236764   3.302   1.962   2.891  0.6369  1.7977 -0.3535
 5117TIP3   OH236765   5.888   6.625  13.008 -0.1677  0.1310  0.2881
 5117TIP3    H136766   5.894   6.720  13.016 -0.3180  0.0495  1.6699
 5117TIP3    H236767   5.880   6.594  13.098  1.3203 -1.3034 -0.0337
 5118TIP3   OH236768   0.262   1.895  17.046 -0.1499  0.5599  0.0096
 5118TIP3    H136769   0.249   1.820  17.105 -0.3116 -1.4340 -2.4181
 5118TIP3    H236770   0.340   1.873  16.995 -0.2820  2.0036 -0.8780
 5119TIP3   OH236771   4.392   2.885   0.885  0.4941 -0.3948  0.5256
 5119TIP3    H136772   4.381   2.910   0.793 -2.6174 -1.7685  0.3978
 5119TIP3    H236773   4.400   2.790   0.883  1.8459 -0.3365  1.6290
 5120TIP3   OH236774   3.300   5.554   0.061  0.1766 -0.2075  0.1810
 5120TIP3    H136775   3.207   5.574   0.050  0.6839  1.1332 -2.2043
 5120TIP3    H236776   3.301   5.464   0.094 -1.9712  0.4790  2.4690
 5121TIP3   OH236777   2.057   3.944   0.559  0.5637  0.0092  0.0916
 5121TIP3    H136778   2.026   3.918   0.646  1.4453 -1.6293 -0.0469
 5121TIP3    H236779   2.150   3.960   0.570  0.2561  2.2272 -0.0758
 5122TIP3   OH236780   2.217   5.292   1.584 -0.0004 -0.3050 -0.1536
 5122TIP3    H136781   2.265   5.276   1.666 -0.1221 -0.0472 -0.0313
 5122TIP3    H236782   2.148   5.226   1.584 -0.9810  0.6939  0.7285
 5123TIP3   OH236783   5.505   1.592   2.915 -1.0845 -0.0047  0.7394
 5123TIP3    H136784   5.559   1.533   2.862 -2.4383  0.2647 -1.0282
 5123TIP3    H236785   5.458   1.534   2.974 -0.9642 -0.5148  0.3446
 5124TIP3   OH236786   3.294   5.896  14.165  0.1249 -0.6292 -0.0263
 5124TIP3    H136787   3.244   5.821  14.133  0.2059 -1.0781  0.8641
 5124TIP3    H236788   3.374   5.895  14.112 -0.0411 -0.9419 -0.2746
 5125TIP3   OH236789   0.311   5.334  15.950 -0.1480 -0.1085  0.4130
 5125TIP3    H136790   0.367   5.410  15.965  0.9039 -0.6268 -0.7328
 5125TIP3    H236791   0.315   5.319  15.856 -2.8403  0.2857  0.1625
 5126TIP3   OH236792   0.628   3.877   2.632  0.0535 -0.5724 -0.1404
 5126TIP3    H136793   0.613   3.923   2.550  1.3710  0.6792  0.2824
 5126TIP3    H236794   0.693   3.811   2.611  0.7197  0.0370 -0.0298
 5127TIP3   OH236795   4.295   1.108   2.326 -0.5363  0.2338  0.0953
 5127TIP3    H136796   4.336   1.095   2.241 -0.7783 -0.1296  0.0327
 5127TIP3    H236797   4.302   1.202   2.342  0.8431  0.1094  0.3526
 5128TIP3   OH236798   1.941   3.481  15.613  0.7754 -0.2089 -0.4011
 5128TIP3    H136799   1.947   3.433  15.696  1.1548 -0.0232 -0.3212
 5128TIP3    H236800   1.973   3.419  15.548 -0.4851 -0.7276 -0.5621
 5129TIP3   OH236801   1.479   1.656  11.502  0.1954  0.1989 -0.0397
 5129TIP3    H136802   1.557   1.667  11.447 -0.4449  1.8097 -0.6610
 5129TIP3    H236803   1.493   1.572  11.546  0.7056 -1.2364 -2.7287
 5130TIP3   OH236804   2.875   2.115  15.694 -0.2416  0.3593  0.4116
 5130TIP3    H136805   2.907   2.127  15.604 -0.9545 -0.1564  0.0800
 5130TIP3    H236806   2.915   2.186  15.743  1.9136 -0.6114  0.1534
 5131TIP3   OH236807   4.156   5.784   5.434 -0.4124 -0.2130  0.0924
 5131TIP3    H136808   4.194   5.706   5.394 -1.9474 -0.1348 -1.6922
 5131TIP3    H236809   4.104   5.750   5.507 -1.5734 -0.9950 -1.0473
 5132TIP3   OH236810   6.289   3.687  14.449  0.5215 -0.1462  0.2896
 5132TIP3    H136811   6.240   3.762  14.415  0.5502 -0.5385 -0.6512
 5132TIP3    H236812   6.301   3.706  14.542 -3.2197 -0.9958  1.0946
 5133TIP3   OH236813   2.574   5.109  14.688 -0.5819 -0.0478 -0.2379
 5133TIP3    H136814   2.632   5.169  14.643 -0.5135 -0.5962 -0.9016
 5133TIP3    H236815   2.612   5.098  14.775 -0.5080  0.7291 -0.1659
 5134TIP3   OH236816   4.990   6.344  11.294  0.3570  0.0081 -0.4372
 5134TIP3    H136817   4.916   6.287  11.314 -0.4996  0.8415 -1.1596
 5134TIP3    H236818   5.067   6.290  11.310 -0.3270 -0.3493  2.0604
 5135TIP3   OH236819   5.796   3.597   3.547  0.3429 -0.9717  0.3288
 5135TIP3    H136820   5.861   3.614   3.615  0.1351  1.8239 -0.0251
 5135TIP3    H236821   5.845   3.601   3.465 -0.1492  1.0334  0.0660
 5136TIP3   OH236822   0.216   3.337   5.833 -0.4124  0.7922  0.0104
 5136TIP3    H136823   0.283   3.355   5.767 -0.7667  0.5097 -0.4271
 5136TIP3    H236824   0.141   3.389   5.806 -0.2784  1.3426  0.6690
 5137TIP3   OH236825   4.546   4.304  16.727  0.7198 -0.0395  0.1496
 5137TIP3    H136826   4.507   4.257  16.801 -0.6157 -0.4999 -0.8209
 5137TIP3    H236827   4.491   4.381  16.717  0.9488  0.0620 -0.3345
 5138TIP3   OH236828   4.164   6.188   5.584 -0.1674  0.0865  0.1476
 5138TIP3    H136829   4.088   6.140   5.616 -0.3045  1.3146  1.7980
 5138TIP3    H236830   4.144   6.210   5.494  0.9170 -5.0040 -1.6621
 5139TIP3   OH236831   0.598   5.106   3.788 -0.0533  0.2354  0.2551
 5139TIP3    H136832   0.548   5.047   3.844 -0.7646 -0.7438 -1.3188
 5139TIP3    H236833   0.683   5.063   3.778 -0.4979 -0.4689 -0.7170
 5140TIP3   OH236834   5.926   4.313   0.524  0.4812  0.4540  0.4409
 5140TIP3    H136835   5.911   4.407   0.514  0.1727  0.5353  1.5235
 5140TIP3    H236836   5.876   4.289   0.602  0.6874 -0.5810  0.2688
 5141TIP3   OH236837   1.950   5.988   7.021  0.5246 -0.1432 -0.3396
 5141TIP3    H136838   1.893   5.936   6.964 -0.6511 -0.2047  0.8175
 5141TIP3    H236839   2.039   5.962   6.998  0.0965 -0.0191 -2.2400
 5142TIP3   OH236840   2.556   2.056   3.784 -0.2363  0.3984  0.0717
 5142TIP3    H136841   2.478   2.109   3.802  0.4552  1.7763 -0.7856
 5142TIP3    H236842   2.604   2.055   3.867 -1.7371 -1.5627  0.9954
 5143TIP3   OH236843   2.899   6.433  12.687 -0.7835 -0.3898 -0.5771
 5143TIP3    H136844   2.819   6.390  12.718 -1.0541 -1.9480 -3.1073
 5143TIP3    H236845   2.949   6.362  12.647  0.7107  1.0134 -1.2891
 5144TIP3   OH236846   2.564   2.579  13.474  0.9024  0.3839 -0.0103
 5144TIP3    H136847   2.636   2.538  13.524  0.6304  0.5502  0.5251
 5144TIP3    H236848   2.487   2.566  13.529  0.5241  0.2455 -0.5657
 5145TIP3   OH236849   4.169   1.705   0.388  0.2878  0.4937  0.3352
 5145TIP3    H136850   4.117   1.645   0.335  1.4790 -0.7582  0.5276
 5145TIP3    H236851   4.168   1.666   0.476  0.4132  1.1849  0.6473
 5146TIP3   OH236852   4.565   0.472  11.320  0.2377  0.1963  0.5853
 5146TIP3    H136853   4.612   0.526  11.256 -1.6938 -0.7476 -1.8068
 5146TIP3    H236854   4.506   0.533  11.364  0.7954  0.6689  0.6913
 5147TIP3   OH236855   3.344   0.942  11.723  0.2272 -1.0544 -0.7256
 5147TIP3    H136856   3.366   0.945  11.816  1.0586 -0.1256 -0.9262
 5147TIP3    H236857   3.332   0.849  11.704  1.0356 -1.3449  0.0911
 5148TIP3   OH236858   3.518   6.661   5.022  0.7050 -0.0611  0.4362
 5148TIP3    H136859   3.430   6.660   5.059 -0.3551  1.0497 -1.8243
 5148TIP3    H236860   3.571   6.612   5.084 -1.3037  0.0178  2.3395
 5149TIP3   OH236861   0.460   3.277  13.826 -0.0132 -0.0062  0.1212
 5149TIP3    H136862   0.416   3.275  13.910  1.0150  0.4508  0.6879
 5149TIP3    H236863   0.393   3.307  13.764 -0.8681 -0.6867  0.6977
 5150TIP3   OH236864   4.234   2.533   3.437 -0.1613  0.0411 -0.5168
 5150TIP3    H136865   4.212   2.622   3.465 -0.4232 -0.2431  0.2035
 5150TIP3    H236866   4.257   2.542   3.345 -2.0861  0.5669 -0.9952
 5151TIP3   OH236867   6.274   6.302   5.765  0.1174 -0.2547 -0.1014
 5151TIP3    H136868   6.241   6.226   5.814 -0.9969  0.4952  0.3505
 5151TIP3    H236869   6.312   6.358   5.832  2.7847 -1.2562 -0.6404
 5152TIP3   OH236870   2.623   6.751   3.853 -0.1294  0.1496 -0.6432
 5152TIP3    H136871   2.614   6.688   3.925  0.0696 -0.7766 -1.4023
 5152TIP3    H236872   2.640   6.835   3.896 -0.9206 -0.2143  0.4141
 5153TIP3   OH236873   6.276   0.988   5.682 -0.1534 -0.2082  0.3339
 5153TIP3    H136874   6.242   1.066   5.638  1.1325 -0.5242 -1.3212
 5153TIP3    H236875   6.201   0.952   5.729 -0.9566  1.5841  0.5121
 5154TIP3   OH236876   2.884   4.835   6.060  0.4001 -0.0245  0.0690
 5154TIP3    H136877   2.975   4.852   6.037  0.0949  3.2642  0.7505
 5154TIP3    H236878   2.876   4.867   6.150 -2.0189  2.7123 -0.9663
 5155TIP3   OH236879   3.943   3.746  12.234  0.2091 -0.0990  0.0455
 5155TIP3    H136880   3.963   3.734  12.141 -1.4364 -0.9346 -0.2408
 5155TIP3    H236881   3.969   3.836  12.253  1.7434 -0.3059 -0.8850
 5156TIP3   OH236882   1.344   1.608  14.593  0.1986 -0.0586 -0.4492
 5156TIP3    H136883   1.338   1.672  14.663  0.7912 -0.3085 -0.1574
 5156TIP3    H236884   1.430   1.625  14.553  1.0242 -1.6108  0.5786
 5157TIP3   OH236885   3.978   4.499  13.615  0.7202  0.2867 -0.2789
 5157TIP3    H136886   4.005   4.559  13.546  1.9297  1.0822  0.8454
 5157TIP3    H236887   4.056   4.488  13.669 -0.2399 -0.1920  1.0604
 5158TIP3   OH236888   0.462   2.414   0.097  0.7089 -0.3547 -0.9989
 5158TIP3    H136889   0.444   2.497   0.140  3.2072 -0.5354  0.5705
 5158TIP3    H236890   0.497   2.438   0.011  0.7309  0.1753 -0.8416
 5159TIP3   OH236891   5.341   6.186  12.232  0.9769 -0.2886  0.3623
 5159TIP3    H136892   5.328   6.118  12.298  0.9082  1.0409  1.7507
 5159TIP3    H236893   5.254   6.227  12.222  1.1390 -0.0413 -0.0548
 5160TIP3   OH236894   4.442   2.902   0.594  0.0509 -0.1465  0.2579
 5160TIP3    H136895   4.476   2.989   0.613  1.9691 -0.9045  0.4391
 5160TIP3    H236896   4.457   2.890   0.500 -1.6788  0.2919 -0.1194
 5161TIP3   OH236897   3.461   2.695  15.776 -0.4091 -0.1965  1.0297
 5161TIP3    H136898   3.442   2.625  15.715 -1.0084  2.1349 -1.6592
 5161TIP3    H236899   3.381   2.705  15.828 -1.3173  0.1682 -0.3826
 5162TIP3   OH236900   0.153   2.218   4.911 -0.4135 -0.2453 -0.2761
 5162TIP3    H136901   0.157   2.221   4.815 -2.2110 -2.4063 -0.4975
 5162TIP3    H236902   0.063   2.193   4.930  0.2508 -1.1734  1.9276
 5163TIP3   OH236903   6.100   1.840  11.958  0.0129  0.3109 -0.3680
 5163TIP3    H136904   6.106   1.819  12.051 -1.0406  0.8839 -0.1535
 5163TIP3    H236905   6.187   1.872  11.935  0.6320 -0.9705  0.1141
 5164TIP3   OH236906   2.335   3.783   6.460  0.4353 -0.5019  0.2148
 5164TIP3    H136907   2.363   3.874   6.470  0.0811 -0.3915  0.2123
 5164TIP3    H236908   2.332   3.749   6.550 -0.1797 -0.2828  0.2832
 5165TIP3   OH236909   2.989   4.293   4.954  0.5899 -0.3544  0.0546
 5165TIP3    H136910   2.996   4.282   5.049 -0.5837  0.2215  0.2209
 5165TIP3    H236911   2.896   4.289   4.936  0.8395 -1.0863 -1.1690
 5166TIP3   OH236912   4.064   6.364  12.911 -0.1628  0.4691  0.2961
 5166TIP3    H136913   3.988   6.365  12.853 -0.6293  1.8197  0.8957
 5166TIP3    H236914   4.093   6.455  12.914 -0.3028  0.4823  2.3746
 5167TIP3   OH236915   3.464   2.473  10.829 -0.0919 -0.4575 -0.0898
 5167TIP3    H136916   3.495   2.418  10.757 -1.5241 -1.2430 -0.1448
 5167TIP3    H236917   3.428   2.551  10.787  1.8151  0.4986 -0.0201
 5168TIP3   OH236918   1.324   4.481  13.067  0.1525 -0.3639  0.2043
 5168TIP3    H136919   1.352   4.549  13.129  0.7622 -1.2171  0.8934
 5168TIP3    H236920   1.229   4.489  13.064  0.2328  0.7546 -0.0167
 5169TIP3   OH236921   4.672   2.686  17.221  0.1636  0.7613  0.6862
 5169TIP3    H136922   4.692   2.765  17.271  2.0390  0.4487  0.4822
 5169TIP3    H236923   4.753   2.635  17.222 -0.4577 -0.3283 -0.7166
 5170TIP3   OH236924   1.896   4.890   5.504  0.4565  0.2537 -0.4250
 5170TIP3    H136925   1.936   4.953   5.445 -1.3289  1.1885 -0.7000
 5170TIP3    H236926   1.970   4.846   5.546  1.7462  1.9158 -0.8641
 5171TIP3   OH236927   2.539   0.625   0.263 -0.1580 -0.1957 -0.2484
 5171TIP3    H136928   2.451   0.652   0.290 -0.6782 -0.6644 -1.4296
 5171TIP3    H236929   2.537   0.530   0.267  0.3603 -0.2046 -0.1259
 5172TIP3   OH236930   3.242   0.725  10.666  0.3403  0.2416  0.2328
 5172TIP3    H136931   3.330   0.724  10.628 -0.0652 -2.2195 -0.8654
 5172TIP3    H236932   3.185   0.748  10.593 -0.0857 -0.1980  0.4269
 5173TIP3   OH236933   1.056   3.432   4.852 -0.1964  0.1463 -0.4344
 5173TIP3    H136934   1.079   3.355   4.800  0.8624 -0.2992  0.6623
 5173TIP3    H236935   1.136   3.485   4.852  0.1070 -0.2657  1.4269
 5174TIP3   OH236936   4.332   0.864   6.307 -0.3137 -0.2718 -0.0503
 5174TIP3    H136937   4.274   0.830   6.375  0.3302  0.7363  1.0545
 5174TIP3    H236938   4.393   0.792   6.290  0.6739  0.0491  1.8383
 5175TIP3   OH236939   3.051   0.291  12.910  0.4506 -0.2675  0.6323
 5175TIP3    H136940   3.010   0.321  12.829 -1.2631 -1.4209  1.0157
 5175TIP3    H236941   3.108   0.219  12.883 -1.5761 -1.9530  0.5932
 5176TIP3   OH236942   3.534   0.678  12.073  0.4556 -0.2766  0.0290
 5176TIP3    H136943   3.624   0.649  12.062  0.3087 -0.7277 -0.0048
 5176TIP3    H236944   3.522   0.685  12.168  0.7090  0.3684  0.0116
 5177TIP3   OH236945   3.503   6.657  13.449  0.2163 -0.2243  0.6341
 5177TIP3    H136946   3.467   6.681  13.534  0.9149  1.0403  0.5997
 5177TIP3    H236947   3.440   6.691  13.386 -0.2076 -0.9946  0.6445
 5178TIP3   OH236948   5.990   2.597  15.326  0.0829 -0.0123  0.3524
 5178TIP3    H136949   6.007   2.559  15.240  1.9374  1.5463 -0.0427
 5178TIP3    H236950   6.071   2.583  15.375 -0.5404  0.1379  1.4569
 5179TIP3   OH236951   0.509   2.432  13.210 -0.3496 -0.0979  0.1172
 5179TIP3    H136952   0.546   2.377  13.141  2.8100  1.1165  0.6297
 5179TIP3    H236953   0.581   2.443  13.272 -1.7771  2.1622  1.5246
 5180TIP3   OH236954   2.630   3.741  11.555  0.4002  0.6399  0.3016
 5180TIP3    H136955   2.656   3.737  11.463 -2.3105 -1.5199 -0.5135
 5180TIP3    H236956   2.587   3.825  11.565  0.5444  0.8114 -0.4731
 5181TIP3   OH236957   2.646   6.681   1.126 -0.2428 -0.0798  0.1043
 5181TIP3    H136958   2.587   6.627   1.179  0.2043 -0.4138  0.2736
 5181TIP3    H236959   2.589   6.734   1.072 -0.8595  2.5812  3.0956
 5182TIP3   OH236960   0.191   5.044  12.363  0.0396  0.2356  0.6068
 5182TIP3    H136961   0.106   5.006  12.384  0.0129 -0.9529 -1.3791
 5182TIP3    H236962   0.178   5.139  12.371 -1.6533  0.1097 -0.2225
 5183TIP3   OH236963   0.004   2.952   3.592 -0.5360  0.4394  0.1220
 5183TIP3    H136964   0.028   3.030   3.641  0.4358  0.7023 -0.7383
 5183TIP3    H236965  -0.092   2.948   3.599 -0.6288  1.8903 -0.0769
 5184TIP3   OH236966   5.044   6.071   1.223  0.3760 -0.2665 -0.2943
 5184TIP3    H136967   5.013   6.024   1.146  1.5950  0.5789 -1.3188
 5184TIP3    H236968   5.102   6.008   1.267  0.6636 -0.3086 -0.7356
 5185TIP3   OH236969   2.060   5.267  17.057  0.1086  0.4386  0.6516
 5185TIP3    H136970   2.117   5.343  17.067 -0.0526  0.6624 -0.1093
 5185TIP3    H236971   2.091   5.223  16.978 -0.7471  0.5475  0.2366
 5186TIP3   OH236972   4.474   1.703  15.429  0.2280  1.1747  0.0212
 5186TIP3    H136973   4.442   1.637  15.368  1.8591 -0.4590  0.8592
 5186TIP3    H236974   4.468   1.785  15.380 -2.0739  0.5042 -0.9637
 5187TIP3   OH236975   6.552   2.225  11.404 -0.3346 -0.5707  0.9448
 5187TIP3    H136976   6.536   2.295  11.467 -0.1297  1.1427 -0.8207
 5187TIP3    H236977   6.647   2.222  11.395 -0.2827 -1.6859  1.6100
 5188TIP3   OH236978   1.039   5.262   6.540 -0.0118  0.2356  0.0492
 5188TIP3    H136979   1.015   5.355   6.536  0.0626  0.2651  0.2656
 5188TIP3    H236980   1.099   5.250   6.467  0.7363  0.5869  0.5853
 5189TIP3   OH236981   3.081   0.307  14.040  0.1637  0.1340  0.3905
 5189TIP3    H136982   3.110   0.382  13.988  1.2183 -1.1913 -1.0681
 5189TIP3    H236983   2.986   0.306  14.030  0.3699 -0.5601 -2.3675
 5190TIP3   OH236984   2.810   0.718   3.136  0.4452 -0.3954  0.2868
 5190TIP3    H136985   2.875   0.773   3.182 -0.2306  0.1961  0.5491
 5190TIP3    H236986   2.860   0.642   3.108  1.0963 -0.3272  1.1841
 5191TIP3   OH236987   0.377   6.311  14.306  0.4563 -0.0844  0.1226
 5191TIP3    H136988   0.284   6.332  14.299  0.9277  1.8797 -1.2610
 5191TIP3    H236989   0.419   6.368  14.241  2.6257 -0.9000  0.7263
 5192TIP3   OH236990   0.092   6.651  11.287  0.0735 -0.2299 -0.2194
 5192TIP3    H136991   0.008   6.697  11.286 -0.3265 -0.9464  0.0135
 5192TIP3    H236992   0.148   6.704  11.231 -0.9742 -0.5742 -1.6427
 5193TIP3   OH236993   4.684   5.110  13.903  0.1160  0.6220 -0.2839
 5193TIP3    H136994   4.765   5.061  13.891 -0.5926 -0.6548 -0.0298
 5193TIP3    H236995   4.697   5.191  13.855  1.7022  0.6202  0.1008
 5194TIP3   OH236996   6.210   4.944   2.800 -0.6215 -0.0641  0.0049
 5194TIP3    H136997   6.241   4.993   2.876  1.0028 -1.8628  0.5777
 5194TIP3    H236998   6.283   4.946   2.738 -1.4917  0.3821 -1.0430
 5195TIP3   OH236999   2.008   6.206  14.571 -0.0928 -0.1700  0.1125
 5195TIP3    H137000   1.999   6.252  14.487 -2.1163 -0.1295  0.3116
 5195TIP3    H237001   1.946   6.250  14.629  1.8789  0.3503  1.9261
 5196TIP3   OH237002   5.343   3.882   6.297  0.1616 -0.4410 -0.2155
 5196TIP3    H137003   5.253   3.899   6.326 -0.0589 -1.6851 -0.1371
 5196TIP3    H237004   5.335   3.863   6.204  0.1154 -2.1210  0.1054
 5197TIP3   OH237005   4.078   0.021   1.432 -0.3040  0.1923 -0.5993
 5197TIP3    H137006   4.066   0.076   1.354  0.4907  0.0423 -0.8368
 5197TIP3    H237007   4.002   0.040   1.487  1.1553  3.5898  0.5649
 5198TIP3   OH237008   1.170   5.171   2.160 -0.9450 -0.3935  0.0284
 5198TIP3    H137009   1.087   5.186   2.115 -0.6045 -1.2732 -0.9084
 5198TIP3    H237010   1.145   5.154   2.251 -1.7220  0.1253 -0.0760
 5199TIP3   OH237011   4.908   4.099   2.828  0.2772 -0.2273 -0.1307
 5199TIP3    H137012   4.817   4.095   2.797  0.7258 -1.1242 -1.4297
 5199TIP3    H237013   4.900   4.112   2.923 -1.1650  2.3370 -0.5203
 5200TIP3   OH237014   5.988   1.597   1.808  0.0846 -0.4419  0.3301
 5200TIP3    H137015   5.965   1.671   1.751 -0.8493 -0.1174  1.0998
 5200TIP3    H237016   5.981   1.520   1.751 -0.7695 -0.1186 -0.0288
 5201TIP3   OH237017   3.226   3.591   3.730  0.7080  0.2376 -0.3753
 5201TIP3    H137018   3.320   3.602   3.746  0.6301  0.0600  0.2319
 5201TIP3    H237019   3.194   3.544   3.807  0.2265 -0.2327 -0.8495
 5202TIP3   OH237020   5.653   6.483  13.998 -0.6216 -0.3030  0.1542
 5202TIP3    H137021   5.746   6.467  14.014 -0.0429  0.4031 -2.1446
 5202TIP3    H237022   5.638   6.571  14.033 -0.1796 -0.0282 -0.3384
 5203TIP3   OH237023   4.473   1.288   3.169 -0.3921  0.2187 -0.1874
 5203TIP3    H137024   4.382   1.292   3.200 -0.9405 -0.6712 -1.5702
 5203TIP3    H237025   4.524   1.266   3.246 -1.7554 -2.3232  0.1022
 5204TIP3   OH237026   0.862   5.578  11.773  0.5801 -0.1199  0.4009
 5204TIP3    H137027   0.769   5.556  11.763  0.4726 -0.2830  1.6299
 5204TIP3    H237028   0.896   5.578  11.684 -0.8798  1.1914 -0.2023
 5205TIP3   OH237029   2.949   0.342   1.594  0.2661  0.7270  0.2983
 5205TIP3    H137030   2.879   0.344   1.660 -0.1471 -1.0429 -0.0395
 5205TIP3    H237031   2.969   0.250   1.583  1.9498  1.1444 -0.3918
 5206TIP3   OH237032   6.410   0.607   4.488 -0.0686 -0.1699 -0.3941
 5206TIP3    H137033   6.499   0.579   4.468  0.3359  0.9362 -0.2495
 5206TIP3    H237034   6.394   0.574   4.577  0.2371 -0.2970 -0.3857
 5207TIP3   OH237035   0.898   4.374  16.473  0.5813 -0.0394  0.0547
 5207TIP3    H137036   0.813   4.416  16.458  1.3948  1.6480 -0.1145
 5207TIP3    H237037   0.877   4.283  16.491 -1.3456  0.5510  1.0785
 5208TIP3   OH237038   5.476   0.076  13.815 -0.1610  0.6452 -0.0455
 5208TIP3    H137039   5.535   0.009  13.781  0.8108  0.5994  1.5868
 5208TIP3    H237040   5.469   0.141  13.746 -0.2130 -0.5642 -1.2218
 5209TIP3   OH237041   3.036   6.517   2.023 -0.4004  0.2732 -0.0736
 5209TIP3    H137042   3.102   6.532   1.956 -0.6008  1.2396 -0.0779
 5209TIP3    H237043   3.031   6.422   2.032  1.7812  0.1745  0.7152
 5210TIP3   OH237044   2.879   5.689   1.581  0.5141  0.3280  0.1862
 5210TIP3    H137045   2.903   5.641   1.502 -2.9228  1.0238 -1.4957
 5210TIP3    H237046   2.783   5.685   1.583  0.0581  5.4269  0.9763
 5211TIP3   OH237047   3.933   2.953  12.303  0.3505 -0.4086 -0.4179
 5211TIP3    H137048   4.008   2.945  12.243  1.0928  0.6468  0.3389
 5211TIP3    H237049   3.930   2.869  12.348  0.5767 -0.7492 -1.0173
 5212TIP3   OH237050   5.656   4.174  15.892 -0.3768  0.2267  0.1683
 5212TIP3    H137051   5.749   4.180  15.867 -0.0158  1.0354  1.5900
 5212TIP3    H237052   5.628   4.089  15.859  0.0566  1.1247 -2.8333
 5213TIP3   OH237053   1.889   2.945  11.942  0.0562 -0.2731 -0.0103
 5213TIP3    H137054   1.836   2.970  11.867 -2.4057  0.8409  1.9725
 5213TIP3    H237055   1.916   2.855  11.923 -0.0338  0.1353 -2.4089
 5214TIP3   OH237056   5.950   2.971  12.610 -0.7453 -0.2044  0.6916
 5214TIP3    H137057   5.873   2.997  12.559  0.6422  0.1248 -1.4144
 5214TIP3    H237058   6.011   3.045  12.600  1.3671 -2.0405 -1.2024
 5215TIP3   OH237059   0.653   2.999   4.700  0.1815  0.0397 -0.5425
 5215TIP3    H137060   0.595   2.975   4.771  0.9894  0.6868  0.3606
 5215TIP3    H237061   0.631   3.090   4.679  0.0587 -0.0933 -1.0130
 5216TIP3   OH237062   0.563   5.646   1.667 -0.3758  0.2731  0.1708
 5216TIP3    H137063   0.522   5.681   1.588 -1.4731  0.8495  0.9770
 5216TIP3    H237064   0.580   5.723   1.721 -0.2304 -0.1808  0.7792
 5217TIP3   OH237065   5.836   0.461  13.260 -0.6522  0.1928  0.2446
 5217TIP3    H137066   5.757   0.480  13.209  0.4195  2.0743 -0.7996
 5217TIP3    H237067   5.902   0.521  13.226  0.9907 -0.6771  1.7421
 5218TIP3   OH237068   3.362   6.589   1.193  0.1841  0.4781 -0.2101
 5218TIP3    H137069   3.356   6.544   1.109 -0.7701  1.6896 -0.8318
 5218TIP3    H237070   3.329   6.526   1.257  1.1502 -0.5424 -0.6913
 5219TIP3   OH237071   6.063   3.959  11.598 -0.1317  0.2741 -0.3161
 5219TIP3    H137072   6.045   3.910  11.678 -0.5307 -0.1968 -0.6956
 5219TIP3    H237073   6.137   4.016  11.622 -0.4447  0.3653  0.4772
 5220TIP3   OH237074   6.117   2.451   1.830 -0.0438 -0.2516 -0.3425
 5220TIP3    H137075   6.205   2.422   1.808 -0.2817 -0.9707 -0.3576
 5220TIP3    H237076   6.095   2.404   1.910 -0.1763  0.4045  0.0187
 5221TIP3   OH237077   5.372   4.317  11.957  0.2919 -0.5148 -0.3057
 5221TIP3    H137078   5.437   4.250  11.977  0.0805 -0.9275 -0.9606
 5221TIP3    H237079   5.366   4.370  12.037 -0.9409 -2.4286  0.9430
 5222TIP3   OH237080   6.241   6.678  15.891 -0.1698 -0.0233  0.0242
 5222TIP3    H137081   6.231   6.663  15.985  0.6471  0.4870  0.2003
 5222TIP3    H237082   6.242   6.591  15.852  1.2895 -0.3188  0.6774
 5223TIP3   OH237083   1.347   4.598  16.248 -0.7945  0.3065  0.6338
 5223TIP3    H137084   1.438   4.611  16.274 -1.0285 -0.6265  2.0259
 5223TIP3    H237085   1.330   4.505  16.264 -1.0311 -0.3957 -2.8951
 5224TIP3   OH237086   4.756   5.376   6.251 -0.0277 -0.1354 -0.5490
 5224TIP3    H137087   4.800   5.291   6.247  1.5614  0.6174 -0.1506
 5224TIP3    H237088   4.708   5.382   6.169  0.2320 -1.2235 -0.7943
 5225TIP3   OH237089   5.585   3.089  14.431  0.2288 -0.1514 -0.1998
 5225TIP3    H137090   5.591   3.019  14.365  1.0180  0.1818 -0.4903
 5225TIP3    H237091   5.493   3.089  14.457  0.0631 -0.7935 -0.7535
 5226TIP3   OH237092   1.560   3.981   6.716 -0.3984  0.1110  0.5986
 5226TIP3    H137093   1.530   4.009   6.802 -3.9049  0.5277 -0.6130
 5226TIP3    H237094   1.490   4.006   6.656  1.3360 -1.2582 -2.2409
 5227TIP3   OH237095   1.092   2.556   4.999 -0.4740  0.2519 -0.4381
 5227TIP3    H137096   1.081   2.647   5.027  0.9930  0.1813  0.4870
 5227TIP3    H237097   1.185   2.549   4.977 -0.3568 -1.2366  0.3915
 5228TIP3   OH237098   5.470   6.355   0.476  0.2166 -0.0353 -0.4390
 5228TIP3    H137099   5.463   6.445   0.444 -2.3479 -0.2337 -0.6772
 5228TIP3    H237100   5.538   6.315   0.422 -0.0907  1.1981 -1.7986
 5229TIP3   OH237101   1.412   4.981  11.745  0.0397 -0.0029 -0.4338
 5229TIP3    H137102   1.344   5.004  11.808  0.5784  2.0205 -0.5457
 5229TIP3    H237103   1.393   5.034  11.668  2.3556  1.4847 -0.0604
 5230TIP3   OH237104   2.823   5.760   5.863 -0.1693  0.2282  0.1603
 5230TIP3    H137105   2.739   5.785   5.902 -1.0388 -0.9814 -0.8501
 5230TIP3    H237106   2.874   5.725   5.936 -1.2006 -0.6079  0.5104
 5231TIP3   OH237107   2.163   5.830   5.754 -0.2115  0.0185 -0.6493
 5231TIP3    H137108   2.119   5.913   5.769 -0.2995 -0.3813  1.8342
 5231TIP3    H237109   2.138   5.776   5.830  1.5413 -1.5048 -1.0876
 5232TIP3   OH237110   0.823   0.330   2.856  0.2661  0.0402  0.2136
 5232TIP3    H137111   0.761   0.401   2.871  1.1261  0.8628 -0.0240
 5232TIP3    H237112   0.782   0.275   2.790 -0.4617  0.2468  0.4872
 5233TIP3   OH237113   6.033   5.333  14.642 -0.8096 -0.5684 -0.4106
 5233TIP3    H137114   5.959   5.369  14.691 -1.5403 -0.9594 -1.1910
 5233TIP3    H237115   6.107   5.388  14.665 -1.4133  0.0181  0.1570
 5234TIP3   OH237116   1.784   2.720  13.456 -0.3060 -0.4954  0.7362
 5234TIP3    H137117   1.748   2.688  13.539 -0.9378  1.8584  1.4716
 5234TIP3    H237118   1.879   2.706  13.464 -0.5608 -2.4501  0.8001
 5235TIP3   OH237119   4.903   3.642   3.995  0.5905  0.4688 -0.4029
 5235TIP3    H137120   4.880   3.550   4.002  0.4385  0.4251 -1.3864
 5235TIP3    H237121   4.949   3.661   4.077 -0.2652 -0.2104  0.2607
 5236TIP3   OH237122   4.461   2.220  13.704  0.7498  0.5997 -0.2829
 5236TIP3    H137123   4.551   2.186  13.697  1.1828  1.3638  1.1100
 5236TIP3    H237124   4.445   2.261  13.619  1.5494  0.0536 -0.7159
 5237TIP3   OH237125   0.770   6.489  14.816  0.1927 -0.1216 -0.3876
 5237TIP3    H137126   0.731   6.454  14.736 -1.0274  1.3842 -0.4982
 5237TIP3    H237127   0.697   6.500  14.877  1.0145 -0.6801  0.7350
 5238TIP3   OH237128   0.396   2.459  17.010 -0.0102 -0.4999  0.1475
 5238TIP3    H137129   0.404   2.366  16.989  0.1693 -0.1090 -1.7222
 5238TIP3    H237130   0.304   2.480  16.993 -0.5615 -0.7379  2.5440
 5239TIP3   OH237131   1.011   5.092  11.763 -0.0075 -0.0750  0.0041
 5239TIP3    H137132   0.953   5.160  11.798  1.0125  0.4587  0.7112
 5239TIP3    H237133   1.036   5.124  11.676 -1.9444 -1.0373 -0.9622
 5240TIP3   OH237134   6.641   4.767  16.496 -0.4037  0.1367  1.0112
 5240TIP3    H137135   6.615   4.836  16.556 -3.1829  0.4083 -0.3384
 5240TIP3    H237136   6.577   4.697  16.511 -1.2079  0.2169 -1.5156
 5241TIP3   OH237137   5.205   0.086  12.485  0.5679  0.4468  0.3457
 5241TIP3    H137138   5.208   0.133  12.568 -1.2622 -1.6177  1.6765
 5241TIP3    H237139   5.221  -0.005  12.508 -1.1004 -0.3568 -1.3818
 5242TIP3   OH237140   3.103   1.015  14.977 -0.1871 -0.5875 -0.2083
 5242TIP3    H137141   3.065   1.102  14.969 -1.2146 -1.0875 -1.0420
 5242TIP3    H237142   3.060   0.964  14.909  1.0971 -1.5092 -0.3520
 5243TIP3   OH237143   2.734   3.344  13.524  0.1041 -0.3374  0.2447
 5243TIP3    H137144   2.753   3.345  13.618 -2.7571  2.4907  0.9959
 5243TIP3    H237145   2.681   3.266  13.511 -1.2940  0.3400  1.5323
 5244TIP3   OH237146   0.919   1.951  16.422 -0.4701 -0.2473 -0.5810
 5244TIP3    H137147   0.985   2.006  16.378 -1.8970  1.0309 -1.2076
 5244TIP3    H237148   0.862   1.920  16.352 -0.5623 -1.3439 -0.0496
 5245TIP3   OH237149   5.712   1.409   5.679 -0.3897 -0.0918  0.9142
 5245TIP3    H137150   5.620   1.434   5.693 -1.0417 -0.8612 -1.5100
 5245TIP3    H237151   5.715   1.377   5.589  1.9937 -1.4543  1.3861
 5246TIP3   OH237152   5.490   5.865   6.665  0.0374  0.2047  0.4251
 5246TIP3    H137153   5.505   5.793   6.727 -1.5113  0.2598  0.8846
 5246TIP3    H237154   5.487   5.944   6.719  1.0631  0.5642 -0.0098
 5247TIP3   OH237155   6.175   6.088   0.852 -0.3080 -0.4170  0.2237
 5247TIP3    H137156   6.105   6.022   0.847  0.6821 -1.4378 -1.1974
 5247TIP3    H237157   6.254   6.040   0.828  0.6868  0.9915  0.5814
 5248TIP3   OH237158   0.076   4.131   1.461  0.4299 -0.5841 -0.3252
 5248TIP3    H137159   0.170   4.147   1.472  0.2093  0.3243  0.2789
 5248TIP3    H237160   0.043   4.121   1.550 -0.4219  1.3279 -0.3816
 5249TIP3   OH237161   2.743   3.764  12.096 -0.1365  0.0334  0.5555
 5249TIP3    H137162   2.723   3.678  12.133  0.8370 -1.7765 -2.7523
 5249TIP3    H237163   2.826   3.753  12.051  0.4162  2.9737  0.6424
 5250TIP3   OH237164   0.539   4.185   2.198  0.4910 -0.0427 -0.4797
 5250TIP3    H137165   0.448   4.169   2.222  0.1422  0.1606 -1.6277
 5250TIP3    H237166   0.561   4.268   2.241 -0.3025  0.6178 -1.3322
 5251TIP3   OH237167   0.696   0.137   1.545  0.0075 -0.0136 -0.1029
 5251TIP3    H137168   0.739   0.059   1.510  0.2135  0.6423 -1.3716
 5251TIP3    H237169   0.768   0.194   1.573 -0.1093  0.1037 -0.0384
 5252TIP3   OH237170   2.359   5.957  10.780 -0.1628 -0.1618  0.0776
 5252TIP3    H137171   2.299   5.922  10.714 -0.3689  1.0631 -0.4201
 5252TIP3    H237172   2.446   5.935  10.747 -0.2631  0.4546 -0.6376
 5253TIP3   OH237173   2.216   1.869   5.222  0.3489 -0.2839 -0.1871
 5253TIP3    H137174   2.266   1.918   5.288  2.2236 -1.1086 -0.9118
 5253TIP3    H237175   2.188   1.937   5.160  1.6459  0.0826 -0.4050
 5254TIP3   OH237176   4.364   5.262  13.899  0.2250  0.3335  0.0169
 5254TIP3    H137177   4.282   5.244  13.945  0.3688  1.5195  0.7835
 5254TIP3    H237178   4.342   5.332  13.837  0.1304 -0.9668 -1.4699
 5255TIP3   OH237179   4.167   6.106   1.497  0.3125 -0.4635  0.0828
 5255TIP3    H137180   4.248   6.142   1.532 -0.7276  1.5289  0.5992
 5255TIP3    H237181   4.172   6.012   1.517  1.9635 -0.2032  1.1231
 5256TIP3   OH237182   6.286   3.740  13.261 -0.0437 -0.4831 -0.5929
 5256TIP3    H137183   6.341   3.774  13.190  0.0560  0.2828 -0.1563
 5256TIP3    H237184   6.328   3.771  13.341 -0.0314 -1.5253 -0.1797
 5257TIP3   OH237185   3.411   2.398   3.991  0.4845 -0.1496  0.3625
 5257TIP3    H137186   3.458   2.387   3.908 -1.5469  1.2958 -1.0796
 5257TIP3    H237187   3.363   2.480   3.981 -0.3339 -0.2591  2.7531
 5258TIP3   OH237188   6.750   4.573  12.502  0.1167  0.2770 -0.6467
 5258TIP3    H137189   6.831   4.523  12.491  0.0282  0.3737 -1.9434
 5258TIP3    H237190   6.756   4.611  12.590 -0.1124 -2.5126  0.6618
 5259TIP3   OH237191   3.381   2.771   3.740 -0.1531  0.1763  0.8360
 5259TIP3    H137192   3.346   2.859   3.753 -0.3933 -0.0500  1.8737
 5259TIP3    H237193   3.421   2.773   3.654 -1.5484  0.8310  0.1736
 5260TIP3   OH237194   0.691   6.499   3.345  0.6713 -0.0223  0.1004
 5260TIP3    H137195   0.596   6.488   3.347  0.5944  0.6350  1.4432
 5260TIP3    H237196   0.708   6.544   3.262 -0.1318 -0.5085 -0.3484
 5261TIP3   OH237197   0.755   1.077   0.821 -0.0392  0.9552  0.3461
 5261TIP3    H137198   0.737   1.083   0.728  1.8827  2.4889 -0.0016
 5261TIP3    H237199   0.723   1.160   0.857  0.8379  1.1468  0.7132
 5262TIP3   OH237200   5.812   4.335   2.171  0.0951 -0.5802 -0.0810
 5262TIP3    H137201   5.863   4.414   2.152 -0.5969 -0.0698  0.1064
 5262TIP3    H237202   5.757   4.323   2.093  0.9488 -1.4983 -0.5516
 5263TIP3   OH237203   1.901   0.070  10.797  0.0700 -0.2974 -0.1356
 5263TIP3    H137204   1.948   0.140  10.843  1.3476 -0.1959 -1.4725
 5263TIP3    H237205   1.813   0.070  10.834  0.0523  1.9955 -0.0390
 5264TIP3   OH237206   0.531   6.085  16.630  0.2555 -0.0061  0.2372
 5264TIP3    H137207   0.625   6.071  16.638  0.2498  0.1735  0.6619
 5264TIP3    H237208   0.495   5.999  16.606  0.2811 -0.6564  2.2664
 5265TIP3   OH237209   1.374   0.592  14.539  0.3630  0.0845 -0.1094
 5265TIP3    H137210   1.324   0.606  14.619 -0.2923 -1.9414 -0.0910
 5265TIP3    H237211   1.413   0.505  14.550  0.8562  0.0662 -1.6904
 5266TIP3   OH237212   6.265   3.197  15.428  0.0682 -0.5871  0.8463
 5266TIP3    H137213   6.267   3.168  15.519  0.9881 -2.2298  0.3294
 5266TIP3    H237214   6.335   3.148  15.385  0.3239  0.9089 -0.5456
 5267TIP3   OH237215   1.679   6.754   3.352  0.4049 -0.1722 -0.0424
 5267TIP3    H137216   1.591   6.751   3.315  1.2345 -1.4616 -2.0494
 5267TIP3    H237217   1.665   6.763   3.447 -1.9061 -1.9721 -0.1369
 5268TIP3   OH237218   5.276   2.114  13.438 -0.5246 -0.6469  0.2207
 5268TIP3    H137219   5.349   2.069  13.394 -0.0876  0.2182  0.0461
 5268TIP3    H237220   5.248   2.181  13.376 -1.8187 -1.3047  0.0765
 5269TIP3   OH237221   1.491   3.169   2.189  0.2935  0.1553  0.4710
 5269TIP3    H137222   1.404   3.153   2.227  0.0180 -0.1288 -0.2687
 5269TIP3    H237223   1.482   3.144   2.097  0.7391  1.5925  0.0194
 5270TIP3   OH237224   2.673   4.504  13.710 -0.1701  0.4429 -0.2785
 5270TIP3    H137225   2.667   4.504  13.805 -2.1033 -1.6511 -0.3349
 5270TIP3    H237226   2.663   4.597  13.686  0.2310  0.9921  1.5132
 5271TIP3   OH237227   4.907   4.404   4.364  0.3822  0.4576 -0.2064
 5271TIP3    H137228   4.942   4.317   4.384 -0.3327  0.3581  0.6879
 5271TIP3    H237229   4.964   4.465   4.411  1.0492  0.5108 -1.0529
 5272TIP3   OH237230   2.365   2.599  14.915  0.2591 -0.0171 -0.2249
 5272TIP3    H137231   2.332   2.614  14.827 -1.8413  1.0468  0.6642
 5272TIP3    H237232   2.434   2.663  14.927  1.5623 -1.1195 -1.5472
 5273TIP3   OH237233   3.483   1.285   6.533  0.0741  0.1943 -0.1560
 5273TIP3    H137234   3.544   1.214   6.515 -1.1083 -0.7136 -0.7246
 5273TIP3    H237235   3.537   1.354   6.571  1.6211 -0.1950 -1.5197
 5274TIP3   OH237236   1.174   5.715  13.665 -0.2833  0.3568  0.0167
 5274TIP3    H137237   1.226   5.639  13.639  0.1981  0.8145 -0.3786
 5274TIP3    H237238   1.115   5.730  13.590  0.1371  0.8245 -0.2226
 5275TIP3   OH237239   1.218   2.363   3.127  0.1060 -0.0253  0.1752
 5275TIP3    H137240   1.246   2.335   3.214  0.4166  0.7862  0.3409
 5275TIP3    H237241   1.239   2.288   3.070 -0.5690 -0.7620  0.8683
 5276TIP3   OH237242   3.266   5.573  11.648  0.1632 -0.2819  0.0645
 5276TIP3    H137243   3.207   5.632  11.602 -0.7102 -0.9463  0.3124
 5276TIP3    H237244   3.255   5.594  11.740  1.2982  0.4775  0.0527
 5277TIP3   OH237245   6.406   4.775   3.425 -0.5396  0.8182 -0.1044
 5277TIP3    H137246   6.330   4.818   3.465  0.3341  0.5948  1.9501
 5277TIP3    H237247   6.369   4.715   3.360 -2.2773 -0.4142  1.8876
 5278TIP3   OH237248   3.639   4.224  11.984 -0.0640  0.0746 -0.3844
 5278TIP3    H137249   3.549   4.249  12.002 -0.1881 -1.5450  1.5787
 5278TIP3    H237250   3.685   4.307  11.970 -1.5153  1.0135  0.2317
 5279TIP3   OH237251   6.628   1.499   2.106  0.0715  0.2574 -0.1536
 5279TIP3    H137252   6.656   1.548   2.029 -0.7799  2.6613  0.9420
 5279TIP3    H237253   6.699   1.437   2.124  0.7726  0.4206 -2.1815
 5280TIP3   OH237254   3.956   5.069  17.020  0.2214 -0.2444  0.3295
 5280TIP3    H137255   3.951   5.161  16.997  0.2945 -0.6818 -1.6046
 5280TIP3    H237256   3.872   5.032  16.991  0.1750 -0.7967  1.1125
 5281TIP3   OH237257   1.893   0.350   5.101  0.0284 -0.0106  0.2553
 5281TIP3    H137258   1.888   0.312   5.013  5.1028 -1.0902  0.0913
 5281TIP3    H237259   1.863   0.280   5.159  2.1531 -1.6359 -0.4605
 5282TIP3   OH237260   3.917   1.666   4.636  0.4410 -0.4087 -0.4787
 5282TIP3    H137261   3.823   1.657   4.651  0.3287 -0.2327 -1.0598
 5282TIP3    H237262   3.955   1.661   4.724 -0.2656  1.2827 -0.0292
 5283TIP3   OH237263   5.703   4.008   5.767  0.1280  0.0450 -0.6633
 5283TIP3    H137264   5.771   3.942   5.781 -1.2080 -1.2060  0.2371
 5283TIP3    H237265   5.713   4.033   5.675  3.5176  1.9760  0.0550
 5284TIP3   OH237266   1.886   2.769   2.652  0.9222  0.5399 -0.0741
 5284TIP3    H137267   1.830   2.817   2.591 -0.7993 -0.1356  0.8896
 5284TIP3    H237268   1.975   2.787   2.623  0.2786 -1.9971 -4.6050
 5285TIP3   OH237269   6.440   5.112  12.044  0.0376  0.1468  0.2672
 5285TIP3    H137270   6.386   5.056  12.099 -1.0815  0.9868  0.0862
 5285TIP3    H237271   6.394   5.113  11.959  1.3574 -0.5870 -0.4918
 5286TIP3   OH237272   0.909   4.893   0.731 -0.0539  0.8622 -0.1500
 5286TIP3    H137273   0.949   4.917   0.814 -1.6116 -1.1189  1.3007
 5286TIP3    H237274   0.972   4.833   0.690 -0.3977 -0.2657  0.9189
 5287TIP3   OH237275   4.977   4.865   2.764  0.1664  0.5446 -0.0506
 5287TIP3    H137276   5.001   4.773   2.776  0.3176  0.8057  2.1424
 5287TIP3    H237277   5.048   4.901   2.711 -0.2211 -0.7025 -1.4972
 5288TIP3   OH237278   2.170   3.578   6.005  0.0599 -0.2555  0.2790
 5288TIP3    H137279   2.090   3.592   5.955 -0.6140 -0.6646  1.2139
 5288TIP3    H237280   2.148   3.510   6.068  1.4030 -0.9827  0.0074
 5289TIP3   OH237281   0.911   3.734   0.989 -0.1705  0.1360  0.2036
 5289TIP3    H137282   0.904   3.727   1.084 -0.0265  1.2158  0.3104
 5289TIP3    H237283   0.874   3.820   0.969  1.3319  0.6360 -0.5401
 5290TIP3   OH237284   3.676   5.901   2.004 -0.2830  0.0383  0.6763
 5290TIP3    H137285   3.663   5.987   1.963  1.5129  0.7461  1.4382
 5290TIP3    H237286   3.740   5.918   2.073 -0.5600 -1.7764  1.4294
 5291TIP3   OH237287   0.646   3.013  16.134 -0.2308  0.2154 -0.3181
 5291TIP3    H137288   0.722   2.960  16.159 -0.4141  0.2697  0.3821
 5291TIP3    H237289   0.680   3.102  16.126 -0.3392  0.3621  0.6825
 5292TIP3   OH237290   0.226   6.128   5.066 -0.1664  0.2141 -0.2159
 5292TIP3    H137291   0.145   6.146   5.114  0.4628  1.0520  0.5734
 5292TIP3    H237292   0.197   6.085   4.986 -1.4034  0.5955  0.0019
 5293TIP3   OH237293   1.669   2.273  15.523 -0.5054  0.1099 -0.0489
 5293TIP3    H137294   1.666   2.306  15.612  0.7428 -0.4351  0.2235
 5293TIP3    H237295   1.603   2.204  15.520 -0.1861 -0.2334  0.6153
 5294TIP3   OH237296   4.635   2.133  11.132  0.1426  0.3681  0.1854
 5294TIP3    H137297   4.680   2.180  11.202  2.1040 -0.6494 -0.3288
 5294TIP3    H237298   4.679   2.161  11.052 -1.1867  0.4901 -0.5363
 5295TIP3   OH237299   3.168   0.788   1.290  0.4507  0.5164  0.6868
 5295TIP3    H137300   3.083   0.831   1.297 -0.3991 -1.1985  1.8123
 5295TIP3    H237301   3.147   0.694   1.293  2.3698  0.0555  0.9527
 5296TIP3   OH237302   1.521   3.970   0.238  0.0622  0.7995  0.2843
 5296TIP3    H137303   1.573   3.889   0.240 -0.2566  0.5510 -0.7571
 5296TIP3    H237304   1.430   3.941   0.246  0.0612  1.2604  2.4541
 5297TIP3   OH237305   5.370   6.467  12.263  0.3212  0.0826  0.1372
 5297TIP3    H137306   5.362   6.383  12.219 -2.3001 -0.3307  1.2862
 5297TIP3    H237307   5.465   6.478  12.275  0.9325 -1.3506 -2.4633
 5298TIP3   OH237308   3.919   0.600   3.656 -0.2942  0.2286 -0.1402
 5298TIP3    H137309   4.007   0.637   3.650 -0.3879  0.3801 -0.6189
 5298TIP3    H237310   3.877   0.649   3.726 -1.0082  2.2909 -1.9113
 5299TIP3   OH237311   1.427   6.038   5.135 -0.2957 -0.2427 -0.1299
 5299TIP3    H137312   1.480   6.041   5.055 -0.1775  1.4924 -0.0306
 5299TIP3    H237313   1.342   6.076   5.109  0.0459  1.2005  0.7397
 5300TIP3   OH237314   5.741   1.160   2.231  0.9116  0.1877 -0.5202
 5300TIP3    H137315   5.690   1.162   2.150  0.0778  0.0212 -0.0041
 5300TIP3    H237316   5.681   1.127   2.297  1.9355 -0.8833 -0.0755
 5301TIP3   OH237317   2.313   5.608   0.580  0.7421  0.3414  0.1861
 5301TIP3    H137318   2.281   5.636   0.666 -0.1670  0.9899 -0.3420
 5301TIP3    H237319   2.235   5.607   0.525  0.9695 -1.9222 -0.1942
 5302TIP3   OH237320   4.344   5.705  12.800 -0.5359 -0.6520  0.0485
 5302TIP3    H137321   4.317   5.780  12.747  1.6812  0.2921  0.1794
 5302TIP3    H237322   4.427   5.677  12.763 -0.2010 -1.6093  1.4298
 5303TIP3   OH237323   1.052   4.777  14.915 -0.2570  0.0980  0.1291
 5303TIP3    H137324   1.060   4.872  14.920  0.8301 -0.0294  0.9780
 5303TIP3    H237325   1.018   4.761  14.827 -0.5454  1.2663  0.0106
 5304TIP3   OH237326   1.655   5.101  14.957 -0.0979  0.8141  0.5826
 5304TIP3    H137327   1.671   5.056  14.874 -0.0055  2.5635 -0.4068
 5304TIP3    H237328   1.561   5.090  14.973 -0.5208  2.0203 -0.7814
 5305TIP3   OH237329   2.798   5.380   0.865  0.2168 -0.2848  0.1049
 5305TIP3    H137330   2.746   5.453   0.899  0.7265 -1.2444  3.3383
 5305TIP3    H237331   2.883   5.418   0.843 -0.6890  0.6827 -1.9694
 5306TIP3   OH237332   2.052   1.466  17.178  0.6637  0.3167 -0.0589
 5306TIP3    H137333   1.960   1.448  17.158  0.7838 -0.1911 -0.1522
 5306TIP3    H237334   2.051   1.555  17.214  0.1675  0.4084 -0.2828
 5307TIP3   OH237335   1.811   3.410  16.258 -0.2389  0.6424  0.0760
 5307TIP3    H137336   1.882   3.347  16.246 -0.8192  0.1791 -1.0745
 5307TIP3    H237337   1.830   3.481  16.197 -0.2004  1.0410  0.5410
 5308TIP3   OH237338   3.246   3.764   0.729  0.0634  0.3334  0.4799
 5308TIP3    H137339   3.330   3.795   0.694  0.4776 -0.0233  1.1309
 5308TIP3    H237340   3.209   3.711   0.659  1.9100 -2.2338  1.2797
 5309TIP3   OH237341   2.339   4.591  16.517  0.1032 -0.2007 -0.1035
 5309TIP3    H137342   2.375   4.547  16.594  1.1436  1.5444  0.4542
 5309TIP3    H237343   2.244   4.590  16.531  0.1923 -1.0572  0.5360
 5310TIP3   OH237344   4.729   6.758  11.844  0.5069 -0.6237  0.4049
 5310TIP3    H137345   4.775   6.828  11.892 -2.1270  0.8713  0.9472
 5310TIP3    H237346   4.787   6.738  11.770  3.2457 -0.8093  2.4375
 5311TIP3   OH237347   6.097   3.297  11.881  0.0687  0.5800  0.3908
 5311TIP3    H137348   6.082   3.222  11.938 -0.2478 -0.0808 -0.5384
 5311TIP3    H237349   6.010   3.332  11.862  0.1618  0.7201  0.2125
 5312TIP3   OH237350   6.063   0.957   5.057  0.1105  0.0611  0.6790
 5312TIP3    H137351   6.134   1.005   5.101 -1.1636  0.1060  2.8001
 5312TIP3    H237352   6.027   0.900   5.125 -2.1589  0.3427 -0.2180
 5313TIP3   OH237353   3.663   3.150   1.263  0.0972  0.0388  0.0879
 5313TIP3    H137354   3.718   3.226   1.282 -1.0496  0.9983 -0.2332
 5313TIP3    H237355   3.664   3.143   1.168 -0.5069  0.2146  0.0640
 5314TIP3   OH237356   4.759   6.045  16.568 -0.3928  0.4549 -0.3698
 5314TIP3    H137357   4.708   5.989  16.509 -1.2185 -0.2764  0.9913
 5314TIP3    H237358   4.743   6.134  16.535 -1.8913  0.1740 -0.5001
 5315TIP3   OH237359   3.390   2.659  17.026  0.3005  0.7446 -0.1415
 5315TIP3    H137360   3.441   2.615  17.094 -1.2189 -0.3193  0.3791
 5315TIP3    H237361   3.407   2.608  16.947 -0.9805 -0.4708  0.3299
 5316TIP3   OH237362   1.574   2.495  14.761  0.0480  0.0665 -0.8970
 5316TIP3    H137363   1.518   2.418  14.769  0.6843 -0.3183  0.0370
 5316TIP3    H237364   1.653   2.462  14.717  0.8983 -0.1541  0.7265
 5317TIP3   OH237365   0.975   5.598  15.786  0.1527 -0.4281 -0.4283
 5317TIP3    H137366   1.011   5.668  15.731  0.6308 -0.6858 -0.4501
 5317TIP3    H237367   0.912   5.554  15.730 -0.1676 -0.0016 -0.4097
 5318TIP3   OH237368   4.360   1.692   0.197 -0.5715  0.6134 -0.2244
 5318TIP3    H137369   4.319   1.665   0.115 -0.1039 -1.2779  0.1260
 5318TIP3    H237370   4.286   1.717   0.254 -0.9717  0.8291 -0.8330
 5319TIP3   OH237371   1.463   2.657   3.321 -0.3294  0.1974  0.2438
 5319TIP3    H137372   1.529   2.711   3.364  0.0386 -0.7020  0.8478
 5319TIP3    H237373   1.433   2.597   3.389 -0.3567 -0.6928 -0.5188
 5320TIP3   OH237374   4.579   4.949  14.888  0.8165 -0.4794  0.0844
 5320TIP3    H137375   4.531   5.028  14.911 -0.2384 -1.0324 -0.1294
 5320TIP3    H237376   4.588   4.952  14.793  3.1605  0.6788  0.2684
 5321TIP3   OH237377   5.629   1.339   5.407 -0.7534 -0.6962  0.1206
 5321TIP3    H137378   5.552   1.320   5.353 -0.8082 -2.5314  0.8107
 5321TIP3    H237379   5.693   1.375   5.345 -2.2842  1.3719 -0.3797
 5322TIP3   OH237380   0.125   4.051   4.336 -0.1102 -0.1006 -0.4264
 5322TIP3    H137381   0.097   4.127   4.388  1.7748  0.1456  0.3037
 5322TIP3    H237382   0.073   3.978   4.370 -0.9392  0.5886 -0.1716
 5323TIP3   OH237383   3.314   6.468  11.055 -0.7239  0.2048  0.2668
 5323TIP3    H137384   3.391   6.446  11.107 -1.2156 -0.2610  0.8225
 5323TIP3    H237385   3.348   6.514  10.978  0.1723 -0.7535  0.0717
 5324TIP3   OH237386   4.463   2.299   1.469  0.2122 -0.9043 -0.1972
 5324TIP3    H137387   4.540   2.263   1.425  0.9817  0.4366 -0.0344
 5324TIP3    H237388   4.461   2.254   1.553  0.6117 -1.2205 -0.3516
 5325TIP3   OH237389   4.302   1.565  15.252  0.2438  0.3745 -0.1906
 5325TIP3    H137390   4.285   1.476  15.283 -1.9604  0.3205 -1.2913
 5325TIP3    H237391   4.224   1.614  15.279  0.9627  1.7132 -0.5070
 5326TIP3   OH237392   4.023   0.038   6.295 -0.3801 -0.0998  0.0087
 5326TIP3    H137393   3.953  -0.006   6.344 -0.2885  0.8868  1.0658
 5326TIP3    H237394   4.099   0.033   6.353  0.5995 -1.5356 -1.2945
 5327TIP3   OH237395   2.452   3.335   0.585 -0.3664 -0.1391 -0.0379
 5327TIP3    H137396   2.427   3.419   0.547  0.8290  0.3801  0.2694
 5327TIP3    H237397   2.373   3.303   0.628 -2.1370 -1.2436 -3.7412
 5328TIP3   OH237398   2.119   5.562   4.586 -0.2931 -0.1007  0.2675
 5328TIP3    H137399   2.075   5.615   4.519  0.4770  0.9879  0.5905
 5328TIP3    H237400   2.148   5.626   4.651  1.4135 -0.8263  0.2692
 5329TIP3   OH237401   2.822   3.166   5.217 -0.8302  0.0934  0.2852
 5329TIP3    H137402   2.826   3.118   5.300 -2.5630  0.0865  0.4081
 5329TIP3    H237403   2.748   3.226   5.228 -0.3605  0.9128 -0.8437
 5330TIP3   OH237404   3.146   5.566   0.854 -0.3362 -0.1232  0.3869
 5330TIP3    H137405   3.196   5.645   0.834 -1.0953  0.4493  0.7042
 5330TIP3    H237406   3.115   5.580   0.943 -0.5481 -0.7459  0.4120
 5331TIP3   OH237407   2.907   1.961   5.382 -0.5299 -0.3907 -0.1034
 5331TIP3    H137408   2.980   1.936   5.438  1.3733  2.5541 -1.0168
 5331TIP3    H237409   2.895   1.886   5.323 -0.1446 -2.0323  1.8187
 5332TIP3   OH237410   0.858   2.452   3.608 -0.3867 -0.0412  0.2213
 5332TIP3    H137411   0.771   2.413   3.622  0.1471 -0.6645  2.0526
 5332TIP3    H237412   0.902   2.391   3.548 -1.7536  1.1989 -2.2224
 5333TIP3   OH237413   1.179   4.284   5.721 -0.6676  0.2702 -0.0899
 5333TIP3    H137414   1.114   4.294   5.791 -2.4737  1.5727 -1.8518
 5333TIP3    H237415   1.164   4.196   5.687  0.0842 -0.2928  0.9948
 5334TIP3   OH237416   6.612   2.239  15.587 -0.0563  0.2480 -0.0140
 5334TIP3    H137417   6.559   2.257  15.665  0.2927  0.8818  0.0874
 5334TIP3    H237418   6.693   2.288  15.601  0.4055 -0.4046 -0.3393
 5335TIP3   OH237419   6.331   3.679   4.702 -0.7539 -0.2841  0.0588
 5335TIP3    H137420   6.315   3.670   4.608 -1.7326 -1.1839  0.3043
 5335TIP3    H237421   6.384   3.759   4.709 -0.8509 -0.0842 -1.2322
 5336TIP3   OH237422   3.150   2.299  15.043  0.3710  0.5857  0.2865
 5336TIP3    H137423   3.189   2.345  15.117  3.2081  3.2005 -2.5056
 5336TIP3    H237424   3.222   2.249  15.004 -0.6663  0.3297 -1.4298
 5337TIP3   OH237425   1.852   3.587   4.595  0.1973  0.1277 -0.3891
 5337TIP3    H137426   1.833   3.662   4.539  0.4161 -0.0780 -0.7385
 5337TIP3    H237427   1.780   3.587   4.659 -0.5673 -0.1724 -1.2146
 5338TIP3   OH237428   6.264   2.458  16.812  0.2272  0.2095 -0.3123
 5338TIP3    H137429   6.220   2.495  16.736  0.7031  0.4339 -0.4752
 5338TIP3    H237430   6.356   2.477  16.799  0.3264  0.1397  0.2609
 5339TIP3   OH237431   1.209   1.916   2.329  0.3054  0.1921  0.3906
 5339TIP3    H137432   1.279   1.960   2.377  1.6678 -0.8845 -0.5492
 5339TIP3    H237433   1.241   1.910   2.239 -0.1221 -2.0490  0.3331
 5340TIP3   OH237434   3.752   5.460   5.260  0.5340 -0.3000  0.8048
 5340TIP3    H137435   3.670   5.476   5.214  0.7289  1.1329  0.9203
 5340TIP3    H237436   3.820   5.483   5.197  0.8107  2.8948  2.1207
 5341TIP3   OH237437   5.093   6.446  15.348 -0.1971 -0.2543  0.5269
 5341TIP3    H137438   5.060   6.535  15.339 -1.2632 -0.6720  0.0762
 5341TIP3    H237439   5.111   6.418  15.258  0.8573 -0.2438  0.7199
 5342TIP3   OH237440   3.134   2.910  14.152 -0.3468 -0.2753  0.5602
 5342TIP3    H137441   3.148   2.998  14.186  1.7540  0.0440 -0.9290
 5342TIP3    H237442   3.173   2.853  14.218  0.6275  0.1094  0.3349
 5343TIP3   OH237443   6.633   1.167  13.553  0.3290  0.2662 -0.3550
 5343TIP3    H137444   6.614   1.259  13.572  1.1599 -0.0090  2.1084
 5343TIP3    H237445   6.725   1.156  13.576 -0.2778 -1.6276  1.5271
 5344TIP3   OH237446   6.463   4.986  16.289  0.2547 -0.3232 -0.3643
 5344TIP3    H137447   6.410   5.004  16.211 -1.8403  0.1488  1.0752
 5344TIP3    H237448   6.407   4.931  16.344  1.6655 -0.6523  0.8121
 5345TIP3   OH237449   3.111   4.231  15.602  0.2514  0.1718 -0.2767
 5345TIP3    H137450   3.074   4.248  15.515  1.4068 -0.4361 -0.9232
 5345TIP3    H237451   3.171   4.304  15.616 -0.5966  0.7505  0.4271
 5346TIP3   OH237452   5.043   3.103  13.732 -0.1858  0.0584 -0.5710
 5346TIP3    H137453   4.981   3.054  13.785  0.3784  0.1462  0.1845
 5346TIP3    H237454   5.110   3.040  13.707  0.3413  0.3440  0.0882
 5347TIP3   OH237455   4.929   2.456  16.677 -0.2676  0.2351  0.0401
 5347TIP3    H137456   4.901   2.545  16.655 -1.1793 -0.1720 -0.4906
 5347TIP3    H237457   4.970   2.423  16.597  0.3085  0.2693  0.3198
 5348TIP3   OH237458   3.202   4.879   0.432 -0.1768 -0.6519 -0.1200
 5348TIP3    H137459   3.224   4.929   0.510  0.5457 -0.8280 -0.2019
 5348TIP3    H237460   3.286   4.840   0.405 -0.9397 -3.1652  0.8435
 5349TIP3   OH237461   3.394   3.504  15.960  0.2696  0.0933 -0.0435
 5349TIP3    H137462   3.385   3.475  15.869  0.2582 -0.2867  0.0787
 5349TIP3    H237463   3.309   3.484  16.000  0.7441 -1.0669  0.4244
 5350TIP3   OH237464   2.017   0.698  13.397 -0.6420  0.1308  0.4875
 5350TIP3    H137465   1.983   0.652  13.320 -1.1171 -0.3158  0.9577
 5350TIP3    H237466   1.965   0.665  13.470  0.8702 -0.6678  1.2597
 5351TIP3   OH237467   4.146   0.987   4.701  0.1864  0.4971 -0.6549
 5351TIP3    H137468   4.058   1.014   4.726 -0.1390  1.6143 -2.7449
 5351TIP3    H237469   4.204   1.047   4.748 -0.3847  2.2942 -2.0827
 5352TIP3   OH237470   3.788   0.036   3.910 -0.3255  0.2648 -0.4832
 5352TIP3    H137471   3.854   0.105   3.899 -0.5879  0.4515 -0.9466
 5352TIP3    H237472   3.724   0.074   3.971 -0.8117  0.7028 -1.2394
 5353TIP3   OH237473   4.496   1.949   1.353  0.2940 -0.0823 -0.0709
 5353TIP3    H137474   4.519   2.021   1.294 -1.3303 -0.1323 -0.8378
 5353TIP3    H237475   4.419   1.980   1.400 -0.5097 -1.3419 -0.5039
 5354TIP3   OH237476   5.503   2.751   0.935  0.0493 -0.1635 -0.3661
 5354TIP3    H137477   5.419   2.794   0.947 -0.6493 -1.1937 -1.4012
 5354TIP3    H237478   5.528   2.722   1.023 -0.9781 -0.3884 -0.1382
 5355TIP3   OH237479   2.904   4.413   4.480  0.7148  0.1403 -0.2489
 5355TIP3    H137480   2.877   4.408   4.389 -0.9595  3.4054 -0.0678
 5355TIP3    H237481   2.832   4.373   4.529  0.1931  1.0928 -0.2243
 5356TIP3   OH237482   4.013   3.963   5.096 -0.6854  0.2446  0.0360
 5356TIP3    H137483   3.998   3.988   5.005 -2.2389 -1.7406 -0.3187
 5356TIP3    H237484   4.106   3.938   5.099 -0.3712  1.2668 -0.7318
 5357TIP3   OH237485   3.494   0.762   0.507 -0.1009  0.3219 -0.3450
 5357TIP3    H137486   3.582   0.728   0.519 -0.1936  0.5900  1.3175
 5357TIP3    H237487   3.492   0.793   0.417  1.8416  1.2825 -0.1043
 5358TIP3   OH237488   4.941   5.018  17.211 -0.5145  0.5138  0.2759
 5358TIP3    H137489   4.866   5.009  17.152  0.6456 -0.1992 -1.1619
 5358TIP3    H237490   4.986   4.934  17.206  0.3161  0.8797  1.2086
 5359TIP3   OH237491   2.891   0.641   2.161  0.0555  0.2579 -0.3142
 5359TIP3    H137492   2.923   0.564   2.113  0.1948 -0.2156  0.5301
 5359TIP3    H237493   2.925   0.630   2.250 -1.7630  0.1649  0.3943
 5360TIP3   OH237494   1.225   5.957   4.841  0.5530 -0.0070 -0.3296
 5360TIP3    H137495   1.169   5.880   4.831  0.5769 -0.1442  0.4999
 5360TIP3    H237496   1.314   5.922   4.841  0.5711  0.0386 -0.1202
 5361TIP3   OH237497   5.888   0.208  13.961  0.5500  0.3054 -0.2692
 5361TIP3    H137498   5.797   0.230  13.982  0.6657  1.6549 -1.0544
 5361TIP3    H237499   5.907   0.258  13.881  1.8174 -0.3796 -0.4254
 5362TIP3   OH237500   2.002   2.650   4.419 -0.2283 -0.7455  0.3929
 5362TIP3    H137501   1.946   2.638   4.342 -0.3993  0.8592  0.2410
 5362TIP3    H237502   1.948   2.621   4.493 -0.0804 -2.2546 -0.0493
 5363TIP3   OH237503   4.682   5.605   4.860  0.1119 -0.2445 -0.3386
 5363TIP3    H137504   4.766   5.562   4.877 -0.6045 -1.5717 -0.0359
 5363TIP3    H237505   4.626   5.535   4.826 -1.7765 -0.1371  2.2487
 5364TIP3   OH237506   2.108   5.245  14.240 -0.2761  0.3015  0.2817
 5364TIP3    H137507   2.179   5.238  14.176 -1.0050 -0.6779 -0.4506
 5364TIP3    H237508   2.142   5.201  14.318 -0.5730 -1.5038 -0.5438
 5365TIP3   OH237509   2.995   4.701   4.409 -0.4949  0.4076 -0.6404
 5365TIP3    H137510   2.941   4.626   4.435  1.0285 -0.2354  0.7960
 5365TIP3    H237511   2.971   4.770   4.469 -1.5086  0.9412 -1.6233
 5366TIP3   OH237512   0.553   1.729  13.718  0.3091 -0.1123  0.5622
 5366TIP3    H137513   0.497   1.798  13.681  0.0975  0.9310  2.6957
 5366TIP3    H237514   0.642   1.760  13.701  0.2560 -0.5240 -0.5811
 5367TIP3   OH237515   3.814   2.000  13.530  0.1384 -0.0192 -0.3216
 5367TIP3    H137516   3.747   1.964  13.588  0.5992 -2.3108 -1.0965
 5367TIP3    H237517   3.883   2.030  13.589  0.2917 -1.6616  0.3867
 5368TIP3   OH237518   5.659   2.701   4.042  0.3444 -0.4840  0.1280
 5368TIP3    H137519   5.628   2.709   3.952 -3.2354  0.2101  1.2740
 5368TIP3    H237520   5.651   2.607   4.062  0.5220 -0.5430 -0.0751
 5369TIP3   OH237521   0.346   2.541   5.067 -0.2199 -0.1189 -0.2551
 5369TIP3    H137522   0.343   2.609   5.134  0.3926 -0.7258  0.4137
 5369TIP3    H237523   0.286   2.571   4.999  0.9058  1.6608 -0.5311
 5370TIP3   OH237524   3.010   3.288  15.289 -0.3042 -0.3144  0.1225
 5370TIP3    H137525   2.921   3.264  15.314 -0.3775 -0.7509 -0.5132
 5370TIP3    H237526   2.999   3.341  15.210 -0.0737  0.8882  0.8738
 5371TIP3   OH237527   5.977   5.788   5.959 -0.1177 -0.1599  0.8830
 5371TIP3    H137528   6.070   5.796   5.979  0.0246 -1.8790  1.0179
 5371TIP3    H237529   5.959   5.863   5.901  1.1975  0.5171  1.3036
 5372TIP3   OH237530   3.955   0.489  15.185  0.0778 -0.0994 -0.2535
 5372TIP3    H137531   3.921   0.579  15.184 -0.6619 -0.3661 -1.6120
 5372TIP3    H237532   4.044   0.498  15.220 -0.0504  1.1308 -0.1794
 5373TIP3   OH237533   4.400   5.271   1.542 -0.0799 -0.4699 -0.0941
 5373TIP3    H137534   4.494   5.285   1.533 -0.0031 -1.3143 -0.8161
 5373TIP3    H237535   4.387   5.250   1.635  0.3776  0.0569  0.0920
 5374TIP3   OH237536   0.077   2.135  13.951  0.2276  0.5884  0.0444
 5374TIP3    H137537  -0.009   2.174  13.940  0.1539  0.3325 -0.3215
 5374TIP3    H237538   0.136   2.209  13.965  0.0474  0.8168 -0.3854
 5375TIP3   OH237539   4.841   4.352  14.211 -0.0206  0.2211  0.2976
 5375TIP3    H137540   4.865   4.439  14.179 -0.8126  0.4656  0.3451
 5375TIP3    H237541   4.865   4.293  14.139  1.3956  0.3560  0.6398
 5376TIP3   OH237542   3.599   2.298  15.795 -0.8239  0.0224  0.3405
 5376TIP3    H137543   3.631   2.384  15.822 -0.1519  0.4325 -1.6278
 5376TIP3    H237544   3.647   2.236  15.851  0.6206  0.8120  0.0142
 5377TIP3   OH237545   4.367   0.640   5.600 -0.5656  0.0173 -0.2704
 5377TIP3    H137546   4.331   0.703   5.661 -1.0412  2.2028 -2.6199
 5377TIP3    H237547   4.441   0.600   5.647 -3.0347 -1.1665  2.9470
 5378TIP3   OH237548   3.750   5.536   1.652  0.3689  0.2681 -0.4437
 5378TIP3    H137549   3.729   5.558   1.743  0.6425  1.0778 -0.5670
 5378TIP3    H237550   3.664   5.534   1.608  0.3754  1.9617 -0.5996
 5379TIP3   OH237551   5.479   4.133   4.336  0.0160 -0.2732  0.1949
 5379TIP3    H137552   5.432   4.056   4.369  0.4531  0.0002  1.5454
 5379TIP3    H237553   5.555   4.141   4.394  0.8399  0.2489 -0.9289
 5380TIP3   OH237554   0.423   5.113  15.705  0.3030 -0.1215  0.3664
 5380TIP3    H137555   0.459   5.120  15.793  0.9313 -0.1316  0.1191
 5380TIP3    H237556   0.343   5.062  15.715 -0.5027  1.2151  1.1587
 5381TIP3   OH237557   2.637   1.256  15.653 -0.0529 -0.1019 -0.1835
 5381TIP3    H137558   2.654   1.188  15.717  0.8635 -1.3875 -1.7275
 5381TIP3    H237559   2.715   1.311  15.654 -0.4255  0.4271  0.4377
 5382TIP3   OH237560   2.253   0.149  13.776 -0.2501  0.3895  0.4873
 5382TIP3    H137561   2.216   0.173  13.691  1.0712 -3.7368 -1.5233
 5382TIP3    H237562   2.348   0.146  13.761 -0.1009 -5.8408  0.0068
 5383TIP3   OH237563   4.128   1.969   2.115 -0.0171  0.4387  0.1739
 5383TIP3    H137564   4.183   1.973   2.037 -1.0489  0.1209 -0.5955
 5383TIP3    H237565   4.064   2.040   2.103 -0.5144  0.0473  0.4574
 5384TIP3   OH237566   0.656   0.432   2.269  0.6320 -0.2022  0.3161
 5384TIP3    H137567   0.692   0.363   2.325  0.3712  0.4517  1.3185
 5384TIP3    H237568   0.706   0.510   2.292 -0.1756  0.3088  0.3863
 5385TIP3   OH237569   1.951   2.664   1.956 -0.2264  0.7480 -0.2710
 5385TIP3    H137570   2.046   2.660   1.956 -0.0400  2.8550 -1.9782
 5385TIP3    H237571   1.929   2.722   2.029  0.0624  2.4516 -1.4646
 5386TIP3   OH237572   0.531   1.065   4.394  0.5557 -0.4653  0.6251
 5386TIP3    H137573   0.538   1.134   4.460 -1.4244 -1.5588  2.0776
 5386TIP3    H237574   0.596   1.000   4.421  0.7900 -0.2335  0.6222
 5387TIP3   OH237575   0.265   4.188   0.150  0.1478 -0.5193 -0.0677
 5387TIP3    H137576   0.345   4.201   0.202 -0.5810  1.4701  0.6471
 5387TIP3    H237577   0.244   4.095   0.162  1.4365 -0.6953  1.1106
 5388TIP3   OH237578   4.635   3.418   4.177  0.1147 -0.1093  0.4137
 5388TIP3    H137579   4.665   3.398   4.266 -0.7493  0.8679  0.9339
 5388TIP3    H237580   4.595   3.337   4.147  0.5723 -0.5032  0.8350
 5389TIP3   OH237581   2.236   4.351  12.012  0.1758  0.0396 -0.0550
 5389TIP3    H137582   2.322   4.309  12.018  1.3993  2.0431 -1.9791
 5389TIP3    H237583   2.195   4.337  12.098  2.8961  0.0118  1.3262
 5390TIP3   OH237584   3.377   5.998  11.939 -0.2822 -0.0912  0.6070
 5390TIP3    H137585   3.322   6.052  11.996 -0.4453 -0.0093  0.3744
 5390TIP3    H237586   3.328   5.992  11.858 -0.2249 -0.5270  0.6062
 5391TIP3   OH237587   6.596   3.649  13.083  0.0001  0.6878  0.0358
 5391TIP3    H137588   6.558   3.737  13.079 -0.4706  0.4598 -2.6406
 5391TIP3    H237589   6.597   3.619  12.992  1.4684 -1.5409  0.6862
 5392TIP3   OH237590   3.419   6.461   3.797  0.4067  0.3430  0.6773
 5392TIP3    H137591   3.347   6.478   3.737  0.8285  1.7582  0.5428
 5392TIP3    H237592   3.385   6.483   3.883  0.3858  0.0740  0.7409
 5393TIP3   OH237593   3.157   4.218   3.183  0.4044 -0.3405 -0.1561
 5393TIP3    H137594   3.096   4.291   3.170 -0.7648 -0.9074  1.7856
 5393TIP3    H237595   3.121   4.147   3.130 -0.5676 -0.6188  0.8497
 5394TIP3   OH237596   4.992   2.609   0.669  0.2025 -0.0439  0.0609
 5394TIP3    H137597   5.048   2.675   0.627  0.9905  0.0378  1.2071
 5394TIP3    H237598   4.994   2.631   0.762 -1.1506 -0.4953  0.2272
 5395TIP3   OH237599   4.631   4.191   6.034 -0.1832 -0.5789 -0.3758
 5395TIP3    H137600   4.645   4.249   6.109 -3.9208 -0.2493  0.2443
 5395TIP3    H237601   4.696   4.122   6.044 -0.3067 -0.3400  2.9960
 5396TIP3   OH237602   6.395   5.212  15.282 -0.5115 -0.1135 -0.0578
 5396TIP3    H137603   6.366   5.172  15.200  0.2777  0.7365 -0.7810
 5396TIP3    H237604   6.446   5.143  15.325  2.0628  0.4465 -1.9595
 5397TIP3   OH237605   5.755   2.583   4.673 -0.2449  0.4048 -1.1091
 5397TIP3    H137606   5.690   2.536   4.621 -1.4421  0.3396  0.3600
 5397TIP3    H237607   5.710   2.603   4.755  1.3169  1.1734 -0.3880
 5398TIP3   OH237608   5.455   1.765   2.131 -0.1245 -0.1877  0.0414
 5398TIP3    H137609   5.448   1.767   2.227  1.7914  1.6659  0.2296
 5398TIP3    H237610   5.504   1.685   2.113  3.6268  1.5842  1.1521
 5399TIP3   OH237611   2.964   4.711  15.644 -0.0328 -0.1134 -0.6933
 5399TIP3    H137612   3.028   4.674  15.584  2.3302 -1.4365  2.3854
 5399TIP3    H237613   2.995   4.686  15.731 -3.9325  0.5269  1.1016
 5400TIP3   OH237614   2.080   0.131  12.771 -0.5499  0.9649 -0.0073
 5400TIP3    H137615   2.072   0.132  12.866  0.4576  0.1638  0.1172
 5400TIP3    H237616   2.109   0.041  12.751  0.5896  1.5016 -0.9226
 5401TIP3   OH237617   2.555   4.669   2.758 -0.2489 -0.4291 -0.2884
 5401TIP3    H137618   2.473   4.709   2.787  1.0478  2.0623  0.1335
 5401TIP3    H237619   2.623   4.714   2.807  1.4599 -1.9382 -1.1527
 5402TIP3   OH237620   2.276   4.864   4.154 -0.0119  0.2839 -0.1248
 5402TIP3    H137621   2.306   4.938   4.208 -0.7982  0.8080 -0.3962
 5402TIP3    H237622   2.224   4.905   4.085  0.5235 -0.4296 -0.9671
 5403TIP3   OH237623   6.351   1.288  13.798  0.2671 -0.4221 -0.4899
 5403TIP3    H137624   6.346   1.383  13.795  2.3609 -0.2555 -0.4109
 5403TIP3    H237625   6.313   1.259  13.716 -0.4607  0.4704 -0.4812
 5404TIP3   OH237626   0.390   4.019  17.086 -0.4283  0.1265 -0.6816
 5404TIP3    H137627   0.429   4.042  17.170 -2.5254  2.1185 -0.1580
 5404TIP3    H237628   0.366   3.927  17.094 -0.9113  0.3809  1.0687
 5405TIP3   OH237629   4.790   3.173   3.354  0.2035 -0.1431 -0.2109
 5405TIP3    H137630   4.831   3.091   3.324  0.5916  0.5182 -1.5541
 5405TIP3    H237631   4.830   3.241   3.301  1.6490  1.2706  2.5012
 5406TIP3   OH237632   2.101   0.326   4.202 -0.3937  0.5155  0.1814
 5406TIP3    H137633   2.152   0.283   4.271 -1.3675  0.1259  0.6744
 5406TIP3    H237634   2.010   0.307   4.224 -0.6975 -0.5215 -1.8180
 5407TIP3   OH237635   5.857   1.470   4.581  0.4249  0.1588  0.3043
 5407TIP3    H137636   5.939   1.483   4.628  0.5758  4.3756 -0.6809
 5407TIP3    H237637   5.813   1.555   4.586 -2.3359 -0.9676 -2.0155
 5408TIP3   OH237638   3.571   3.239  14.165  0.1553  0.0169  0.6399
 5408TIP3    H137639   3.528   3.244  14.080  1.7960  0.2139 -0.2326
 5408TIP3    H237640   3.542   3.317  14.212 -0.3384  0.1950  0.0451
 5409TIP3   OH237641   0.076   3.906  12.093 -0.2160  0.3470 -0.1041
 5409TIP3    H137642  -0.011   3.867  12.100  0.0616 -0.1898  0.6115
 5409TIP3    H237643   0.116   3.864  12.017 -0.6595  0.7744 -0.5814
 5410TIP3   OH237644   6.569   1.003  11.230  0.4350 -0.1124  0.2184
 5410TIP3    H137645   6.636   1.070  11.213  0.8185 -0.3802  0.6342
 5410TIP3    H237646   6.550   1.011  11.323  0.4683 -0.5628  0.2694
 5411TIP3   OH237647   1.683   5.865   0.963 -0.2319  0.2768  0.3088
 5411TIP3    H137648   1.596   5.902   0.983 -0.3949 -0.7891  1.7097
 5411TIP3    H237649   1.676   5.773   0.987  1.0968  0.0106 -0.2410
 5412TIP3   OH237650   3.729   2.002   4.062 -0.7884 -0.0486 -0.0851
 5412TIP3    H137651   3.786   2.038   4.130 -0.0949 -0.6516 -0.3282
 5412TIP3    H237652   3.713   1.912   4.091 -1.1632 -0.0511 -0.3028
 5413TIP3   OH237653   3.470   4.545   5.267  0.0622  0.5061 -0.3380
 5413TIP3    H137654   3.408   4.581   5.204  0.3521 -0.9872 -1.5320
 5413TIP3    H237655   3.553   4.542   5.220  0.5901  0.5680  0.5551
 5414TIP3   OH237656   0.667   4.872  17.059  0.0127  0.1728  0.2575
 5414TIP3    H137657   0.660   4.967  17.065  0.8603  0.2194  0.6350
 5414TIP3    H237658   0.726   4.847  17.130 -1.9041 -0.8652  1.5532
 5415TIP3   OH237659   6.486   6.164  10.855  0.2695  0.3818 -0.1185
 5415TIP3    H137660   6.464   6.208  10.937 -1.7369 -2.9517  1.3152
 5415TIP3    H237661   6.421   6.195  10.792 -0.9456 -0.2400  0.7898
 5416TIP3   OH237662   5.509   5.538   1.633  0.1039  0.0647  0.2626
 5416TIP3    H137663   5.577   5.557   1.697  0.4255  0.2163 -0.1172
 5416TIP3    H237664   5.527   5.448   1.604 -1.0461 -0.6443  1.6028
 5417TIP3   OH237665   0.274   2.863  11.315 -0.1937  0.2321 -0.0136
 5417TIP3    H137666   0.210   2.793  11.304  0.3289 -0.0720 -1.3415
 5417TIP3    H237667   0.287   2.869  11.409 -0.7061 -1.0422  0.1608
 5418TIP3   OH237668   3.205   0.627   6.574  0.8010 -0.1148 -0.3194
 5418TIP3    H137669   3.170   0.556   6.627  2.4102  0.8602  2.1966
 5418TIP3    H237670   3.137   0.694   6.577  1.3930  0.4707  1.7738
 5419TIP3   OH237671   6.656   4.358   3.688 -0.3669 -0.2111  0.0067
 5419TIP3    H137672   6.597   4.426   3.657 -0.5724 -1.3390 -2.2950
 5419TIP3    H237673   6.667   4.376   3.782 -4.4238 -0.0331  0.5893
 5420TIP3   OH237674   4.688   4.446   5.089 -0.2083  0.1385 -0.4283
 5420TIP3    H137675   4.719   4.409   5.006 -0.9438  1.4232 -1.3097
 5420TIP3    H237676   4.696   4.374   5.151  0.8307 -0.7118 -1.4920
 5421TIP3   OH237677   6.722   1.248  11.229 -0.0681 -0.1631 -0.0157
 5421TIP3    H137678   6.646   1.303  11.246  0.1606  0.7640 -1.8309
 5421TIP3    H237679   6.798   1.302  11.252  0.1055 -1.2320  2.2087
 5422TIP3   OH237680   6.136   0.180  15.780 -0.3261  0.2010 -0.0317
 5422TIP3    H137681   6.162   0.243  15.847  0.4504 -0.2301  0.0891
 5422TIP3    H237682   6.184   0.100  15.802  1.1158  0.4802 -1.9311
 5423TIP3   OH237683   2.532   3.069   4.644 -0.3367 -0.0250 -0.0192
 5423TIP3    H137684   2.552   3.016   4.567  0.4503  1.1885 -0.6878
 5423TIP3    H237685   2.436   3.071   4.648 -0.3793 -1.1802 -0.1769
 5424TIP3   OH237686   3.714   3.325   1.914  0.4856  0.3750  0.1659
 5424TIP3    H137687   3.767   3.399   1.943  1.7245  0.4136 -1.9385
 5424TIP3    H237688   3.768   3.248   1.935 -0.0311  0.1831  0.8064
 5425TIP3   OH237689   3.705   6.117   2.795 -0.4402  0.0068 -0.1990
 5425TIP3    H137690   3.635   6.054   2.811 -1.0810  0.8129  0.2658
 5425TIP3    H237691   3.686   6.190   2.855 -1.0855  1.7066 -2.3647
 5426TIP3   OH237692   3.252   0.466   3.955 -0.1195 -0.4843 -0.3468
 5426TIP3    H137693   3.217   0.526   4.021  2.3487  1.2251 -0.4650
 5426TIP3    H237694   3.174   0.424   3.918 -1.7319  0.0199  2.1754
 5427TIP3   OH237695   3.386   5.551  15.304 -0.2807  0.3186 -0.3986
 5427TIP3    H137696   3.378   5.529  15.397 -0.7230 -0.9499 -0.7176
 5427TIP3    H237697   3.476   5.530  15.282 -0.4348 -0.2984 -0.4681
 5428TIP3   OH237698   0.822   5.303  15.231  0.6793 -0.0573 -0.5361
 5428TIP3    H137699   0.842   5.395  15.245 -0.5470 -0.0279  1.4148
 5428TIP3    H237700   0.905   5.263  15.205  1.9685  1.0322  1.6672
 5429TIP3   OH237701   6.476   6.161   2.858 -0.2832  0.2885 -0.8342
 5429TIP3    H137702   6.529   6.217   2.915  2.6461 -0.7955 -2.2464
 5429TIP3    H237703   6.515   6.171   2.772 -1.4339 -1.7819 -1.6787
 5430TIP3   OH237704   3.438   0.368  16.490 -0.3028  0.3741 -0.1833
 5430TIP3    H137705   3.496   0.435  16.527 -0.1762  0.1338  0.0535
 5430TIP3    H237706   3.498   0.300  16.458 -0.4520  0.1560 -0.0007
 5431TIP3   OH237707   0.261   0.366  14.093 -0.3542 -0.0934  0.0949
 5431TIP3    H137708   0.356   0.354  14.090 -0.4589 -1.0386  0.1366
 5431TIP3    H237709   0.245   0.446  14.044  0.4666  0.0704  0.0811
 5432TIP3   OH237710   4.217   0.889   5.429 -0.3394 -0.1180 -0.3845
 5432TIP3    H137711   4.127   0.857   5.422 -0.5911  0.7100 -0.9679
 5432TIP3    H237712   4.245   0.861   5.517 -0.1157 -3.0022 -1.2572
 5433TIP3   OH237713   0.786   3.202  12.994  0.5102  0.1477  0.1609
 5433TIP3    H137714   0.864   3.256  12.980  0.2520  0.7872  1.1545
 5433TIP3    H237715   0.751   3.231  13.078  0.4082 -1.6237  0.7679
 5434TIP3   OH237716   3.892   6.504   3.290 -0.4823  0.4665  0.4032
 5434TIP3    H137717   3.819   6.482   3.233  2.3486 -1.6874 -2.8047
 5434TIP3    H237718   3.923   6.419   3.322  1.4596  1.1471  0.4493
 5435TIP3   OH237719   0.499   3.868   3.595  0.2747 -0.3879 -0.2968
 5435TIP3    H137720   0.425   3.848   3.537  0.4483 -0.7429 -0.4015
 5435TIP3    H237721   0.473   3.834   3.680 -0.9033  2.0581  0.3926
 5436TIP3   OH237722   6.296   0.456   1.065  0.0621 -0.4275  0.3658
 5436TIP3    H137723   6.232   0.387   1.078 -0.2673 -0.4042 -0.9879
 5436TIP3    H237724   6.245   0.531   1.035  0.0115  1.3735  4.2620
 5437TIP3   OH237725   5.844   1.161   3.543  0.8239 -0.3921 -0.2400
 5437TIP3    H137726   5.788   1.218   3.490  1.3819 -0.6318 -1.1036
 5437TIP3    H237727   5.790   1.140   3.620  0.3868  0.8126 -0.1799
 5438TIP3   OH237728   5.622   1.501  16.817 -0.0510 -0.5259  0.3671
 5438TIP3    H137729   5.593   1.555  16.743 -0.8354 -1.5847 -0.1151
 5438TIP3    H237730   5.583   1.416  16.802  1.2670 -1.2928  1.0551
 5439TIP3   OH237731   2.526   6.125  12.543 -0.7414 -0.0398 -0.2162
 5439TIP3    H137732   2.548   6.175  12.464  1.3304 -0.7805 -0.1760
 5439TIP3    H237733   2.573   6.169  12.613 -1.0096 -0.5200  0.2721
 5440TIP3   OH237734   6.306   0.117   3.030 -0.1189  0.3963  0.4837
 5440TIP3    H137735   6.214   0.144   3.032  0.4672  3.1028 -2.2150
 5440TIP3    H237736   6.345   0.158   3.107 -1.1865 -1.2516  1.9845
 5441TIP3   OH237737   5.860   2.468   0.097  0.1517 -0.1308 -0.3656
 5441TIP3    H137738   5.931   2.482   0.161 -0.4044 -0.0831  0.2521
 5441TIP3    H237739   5.876   2.533   0.029 -1.0225  1.9719  1.2650
 5442TIP3   OH237740   0.025   5.311  11.472 -0.6615  0.0902 -0.2455
 5442TIP3    H137741   0.116   5.292  11.451 -1.0198 -1.3859 -0.5833
 5442TIP3    H237742   0.028   5.393  11.520  1.0895 -1.0176  1.7025
 5443TIP3   OH237743   3.726   3.597  17.306  0.4345 -0.0418 -0.1028
 5443TIP3    H137744   3.801   3.540  17.323  2.7387  2.6580 -0.4015
 5443TIP3    H237745   3.747   3.638  17.222 -1.0240  1.3500  0.1849
 5444TIP3   OH237746   3.705   3.927  12.013 -0.3162 -0.1265 -0.4261
 5444TIP3    H137747   3.757   3.848  12.025  1.4053  1.0429  0.1110
 5444TIP3    H237748   3.614   3.896  12.014  0.1853 -1.8349  2.1957
 5445TIP3   OH237749   4.488   3.987  15.411  0.0407 -0.2645 -0.0730
 5445TIP3    H137750   4.412   3.952  15.457  1.4811 -0.7885  2.0171
 5445TIP3    H237751   4.453   4.060  15.360 -1.3735  1.8736  3.5668
 5446TIP3   OH237752   4.635   4.920  15.900 -1.0105 -0.1694 -0.0421
 5446TIP3    H137753   4.595   4.940  15.985 -1.9807 -3.1417  0.3232
 5446TIP3    H237754   4.717   4.876  15.923 -0.8643 -0.2323 -0.6839
 5447TIP3   OH237755   0.621   2.172   0.815  0.1739  0.5471  0.7416
 5447TIP3    H137756   0.533   2.159   0.849 -0.1667 -0.9183 -0.5960
 5447TIP3    H237757   0.608   2.186   0.721  1.4304 -0.9261  0.3125
 5448TIP3   OH237758   5.849   5.296   4.954  0.4869  0.3377  0.1654
 5448TIP3    H137759   5.859   5.258   5.041 -0.7264  1.9788  1.0816
 5448TIP3    H237760   5.805   5.228   4.903  1.7916 -0.8840  0.6119
 5449TIP3   OH237761   2.868   4.527   2.616 -0.4746  0.3702 -0.3558
 5449TIP3    H137762   2.931   4.589   2.578 -1.7432  1.0406 -1.4401
 5449TIP3    H237763   2.798   4.521   2.551 -1.8707  0.1454  1.1017
 5450TIP3   OH237764   1.350   4.469   3.970 -0.2556  0.2300 -0.2597
 5450TIP3    H137765   1.423   4.436   3.919 -1.5435  0.1556 -2.1747
 5450TIP3    H237766   1.310   4.391   4.009 -0.6221  0.0217 -1.0459
 5451TIP3   OH237767   0.097   0.950  16.796 -0.0499 -0.2556 -0.6148
 5451TIP3    H137768   0.036   1.021  16.817 -2.4471 -1.5809 -2.5578
 5451TIP3    H237769   0.106   0.901  16.877 -0.6800  0.6075 -0.0027
 5452TIP3   OH237770   2.436   3.413   1.493  0.0288  0.8389 -0.3561
 5452TIP3    H137771   2.417   3.471   1.419  2.3304  2.5632  0.2947
 5452TIP3    H237772   2.529   3.426   1.510 -0.0568 -0.8348  1.7725
 5453TIP3   OH237773   0.941   4.244  12.036  0.1152  0.0362 -0.0504
 5453TIP3    H137774   0.928   4.313  12.102  2.8103  1.1115 -0.5354
 5453TIP3    H237775   0.969   4.290  11.957 -1.5836 -1.3680 -1.5617
 5454TIP3   OH237776   6.302   4.696   4.067 -0.2700 -0.1295 -0.0883
 5454TIP3    H137777   6.208   4.714   4.068 -0.2729  0.0576  2.6221
 5454TIP3    H237778   6.309   4.609   4.029 -1.5367 -0.1411 -0.3376
 5455TIP3   OH237779   2.815   6.577  11.915 -0.2400  0.0666 -0.1160
 5455TIP3    H137780   2.908   6.566  11.896 -0.1399  1.3883 -0.5323
 5455TIP3    H237781   2.794   6.508  11.978  0.9267 -0.4787 -0.3135
 5456TIP3   OH237782   1.562   6.107   4.481  0.1357  0.2887  0.3460
 5456TIP3    H137783   1.642   6.113   4.534  0.4593  0.9130 -0.1931
 5456TIP3    H237784   1.542   6.197   4.458  0.1439  0.0164 -0.7885
 5457TIP3   OH237785   1.366   1.815  14.771  0.0695 -0.0414  0.0508
 5457TIP3    H137786   1.288   1.865  14.745  1.3948  1.1528 -1.8716
 5457TIP3    H237787   1.416   1.876  14.826  0.9087  0.1982 -0.9511
 5458TIP3   OH237788   1.950   2.867  12.818  0.8394  0.7403  0.5605
 5458TIP3    H137789   1.949   2.808  12.743 -2.2166 -0.1129  1.1338
 5458TIP3    H237790   1.907   2.947  12.786 -0.9891  0.1709  1.4492
 5459TIP3   OH237791   0.522   4.062   0.912 -0.0806  0.1599 -0.4250
 5459TIP3    H137792   0.591   3.996   0.905  0.3222  0.2951  1.5412
 5459TIP3    H237793   0.443   4.018   0.880  0.4805 -0.7690 -0.5714
 5460TIP3   OH237794   5.660   5.681  12.414  0.3984 -0.2387  0.1238
 5460TIP3    H137795   5.608   5.630  12.352  1.4101 -2.5887  1.0817
 5460TIP3    H237796   5.597   5.711  12.479 -0.0878 -1.3453  0.1902
 5461TIP3   OH237797   1.602   6.367  16.953 -0.0723  0.5548  0.2705
 5461TIP3    H137798   1.652   6.295  16.991 -0.8394 -0.3127 -0.3334
 5461TIP3    H237799   1.510   6.345  16.970 -0.3046  1.7996  0.8009
 5462TIP3   OH237800   1.586   5.106   5.237  0.5302  0.1838 -0.1779
 5462TIP3    H137801   1.676   5.075   5.225 -0.1782 -2.0502 -0.2308
 5462TIP3    H237802   1.552   5.115   5.147  0.1364 -0.8513 -0.1434
 5463TIP3   OH237803   3.899   0.399   6.003  0.2294  0.1937  0.1118
 5463TIP3    H137804   3.953   0.348   6.063  0.8779 -0.3243 -0.8910
 5463TIP3    H237805   3.866   0.471   6.056  2.6384  1.0692  0.5408
 5464TIP3   OH237806   0.814   1.166   4.851 -0.5479 -0.3878 -0.4498
 5464TIP3    H137807   0.734   1.176   4.799  0.4103  0.8593 -1.7483
 5464TIP3    H237808   0.885   1.192   4.792  0.9063 -2.0487  0.4565
 5465TIP3   OH237809   4.541   5.591   4.224 -0.1422 -0.8326 -0.1685
 5465TIP3    H137810   4.604   5.561   4.289 -3.3489 -0.9399  3.2542
 5465TIP3    H237811   4.500   5.510   4.192 -1.5709 -0.6880  1.1414
 5466TIP3   OH237812   6.645   5.435   5.875 -0.1746 -0.3916  0.5132
 5466TIP3    H137813   6.661   5.425   5.969 -1.3464 -2.3979  0.5347
 5466TIP3    H237814   6.733   5.448   5.838  0.7197 -2.8910  1.5387
 5467TIP3   OH237815   2.400   3.571   3.980  0.2051 -0.4405  0.1681
 5467TIP3    H137816   2.459   3.569   4.056  1.3286 -1.1585 -0.6858
 5467TIP3    H237817   2.385   3.479   3.960  2.4109 -0.3999 -2.2932
 5468TIP3   OH237818   5.800   0.613   4.520  0.1713  0.2463 -0.1287
 5468TIP3    H137819   5.858   0.639   4.449 -0.2262  0.0061 -0.5482
 5468TIP3    H237820   5.858   0.597   4.594  0.4578  1.9705  0.0590
 5469TIP3   OH237821   5.193   2.746   5.810 -0.5187  0.2937  0.0877
 5469TIP3    H137822   5.277   2.746   5.765 -0.1160 -3.6632  0.4708
 5469TIP3    H237823   5.128   2.747   5.740 -0.1036  1.0913 -0.2931
 5470TIP3   OH237824   4.924   2.143  13.023  0.4297 -0.0145  0.1424
 5470TIP3    H137825   4.865   2.217  13.015  2.1345  1.2287 -2.7830
 5470TIP3    H237826   4.895   2.082  12.956  0.6110 -0.8104  0.7756
 5471TIP3   OH237827   4.185   4.901  11.350 -0.3610 -0.0133 -0.0512
 5471TIP3    H137828   4.119   4.873  11.413  1.3527 -3.0751  0.5698
 5471TIP3    H237829   4.220   4.983  11.387 -0.8217 -0.6410  1.8835
 5472TIP3   OH237830   1.088   5.348  16.465 -0.1922  0.1419 -0.1575
 5472TIP3    H137831   1.150   5.294  16.416  1.6135  0.2561  1.8581
 5472TIP3    H237832   1.056   5.291  16.534 -1.3204  0.5220 -0.3428
 5473TIP3   OH237833   4.475   3.792  13.948  0.1959 -0.0941  0.0156
 5473TIP3    H137834   4.555   3.827  13.988  2.0584 -2.6102 -1.2411
 5473TIP3    H237835   4.407   3.807  14.014  1.1479  3.9225  0.3660
 5474TIP3   OH237836   1.141   0.465   1.924 -0.1946  0.0130  0.3195
 5474TIP3    H137837   1.216   0.510   1.962 -0.3956 -0.8637  1.8513
 5474TIP3    H237838   1.104   0.415   1.997 -0.8397 -1.4505 -0.9567
 5475TIP3   OH237839   5.144   2.639   5.411 -0.0864 -0.2987  0.7222
 5475TIP3    H137840   5.188   2.718   5.443  1.2247 -0.6678 -0.0868
 5475TIP3    H237841   5.051   2.656   5.427 -0.0549  2.1940 -1.0108
 5476TIP3   OH237842   1.958   0.796  12.261  0.1679  0.6947  0.2834
 5476TIP3    H137843   1.920   0.752  12.336  1.8030 -0.6485  0.3805
 5476TIP3    H237844   2.032   0.845  12.297 -1.6160  3.6806  0.1885
 5477TIP3   OH237845   2.766   6.709   1.486  0.0212  0.2553 -0.2051
 5477TIP3    H137846   2.724   6.635   1.530  0.3678 -0.3553 -0.8754
 5477TIP3    H237847   2.703   6.780   1.494 -1.7278 -0.9419 -2.2269
 5478TIP3   OH237848   2.478   2.240  16.248 -0.2304  0.2613 -0.0968
 5478TIP3    H137849   2.463   2.146  16.254 -0.6334  0.3711  0.6947
 5478TIP3    H237850   2.563   2.254  16.289 -0.0625  0.2199 -0.4240
 5479TIP3   OH237851   5.531   3.686   3.382 -0.3031 -0.1800  0.1056
 5479TIP3    H137852   5.537   3.663   3.475 -2.5714  1.2651  0.7045
 5479TIP3    H237853   5.475   3.764   3.381 -0.8682 -0.5432 -2.5303
 5480TIP3   OH237854   4.577   5.819  16.333 -0.3952 -0.3031  0.7800
 5480TIP3    H137855   4.563   5.820  16.427 -1.1024  0.0236  0.6723
 5480TIP3    H237856   4.516   5.883  16.298  0.9570  0.7558  0.2400
 5481TIP3   OH237857   2.323   0.003  14.913  0.3034 -0.1488  0.0252
 5481TIP3    H137858   2.245   0.039  14.955 -0.0631 -0.1315 -0.6534
 5481TIP3    H237859   2.312  -0.092  14.919  0.2568 -0.1463 -0.0098
 5482TIP3   OH237860   2.585   1.795   2.163 -0.0674  0.0757  0.1447
 5482TIP3    H137861   2.564   1.703   2.151  0.7296 -0.1237  0.2515
 5482TIP3    H237862   2.505   1.841   2.137 -0.6930 -0.6659  0.7260
 5483TIP3   OH237863   2.420   0.236   3.096 -0.2304  0.4259 -0.9883
 5483TIP3    H137864   2.445   0.150   3.062  0.1368  0.6538 -1.2995
 5483TIP3    H237865   2.329   0.225   3.123 -0.2860  0.0264 -1.3248
 5484TIP3   OH237866   0.979   2.069  10.612 -0.2395 -0.0139  0.4239
 5484TIP3    H137867   0.930   2.130  10.668  0.0357  1.2646 -0.6887
 5484TIP3    H237868   1.033   2.125  10.556  0.7695 -1.3241  0.0308
 5485TIP3   OH237869   2.233   2.286  13.495  1.0098  0.1951  0.2344
 5485TIP3    H137870   2.197   2.197  13.500 -1.0597  0.9966  0.8392
 5485TIP3    H237871   2.214   2.314  13.405 -1.8379  1.2742  1.0305
 5486TIP3   OH237872   1.339   6.561  14.815  0.1370  0.2876 -0.3735
 5486TIP3    H137873   1.357   6.483  14.762 -0.6413  1.1368 -1.9506
 5486TIP3    H237874   1.251   6.547  14.849  0.5965 -0.2094  0.6386
 5487TIP3   OH237875   5.815   0.048  15.422 -0.7628  0.1930 -0.4604
 5487TIP3    H137876   5.901   0.085  15.406 -0.4366 -0.4437 -0.1997
 5487TIP3    H237877   5.754   0.114  15.388 -0.2331  1.3854  0.8154
 5488TIP3   OH237878   4.344   0.573  16.850  0.4689  0.1914 -0.4381
 5488TIP3    H137879   4.397   0.589  16.773  1.6922  0.2014  0.3786
 5488TIP3    H237880   4.377   0.635  16.915 -0.3245 -0.0289  0.1967
 5489TIP3   OH237881   4.588   1.651   4.291 -0.0198 -0.4525  0.6919
 5489TIP3    H137882   4.535   1.621   4.365 -2.4792 -0.2517 -0.8734
 5489TIP3    H237883   4.526   1.693   4.232  1.9514 -0.0031 -1.2069
 5490TIP3   OH237884   2.602   5.659   0.779 -0.3790  0.4579  0.1377
 5490TIP3    H137885   2.581   5.580   0.828  1.1866  1.2380  2.2446
 5490TIP3    H237886   2.629   5.628   0.693 -1.7162 -1.1038  0.2230
 5491TIP3   OH237887   2.860   5.234  16.451 -0.5216 -0.1398 -0.8433
 5491TIP3    H137888   2.947   5.270  16.469 -1.6651  1.8854  1.2911
 5491TIP3    H237889   2.855   5.233  16.355  1.2765  1.2453 -1.0346
 5492TIP3   OH237890   2.846   5.302   5.669  0.0254 -0.1424  0.7439
 5492TIP3    H137891   2.897   5.364   5.617  1.6808 -2.2995 -0.3623
 5492TIP3    H237892   2.882   5.308   5.757  0.5983  0.0229  0.5001
 5493TIP3   OH237893   4.364   5.970   5.463 -0.2465  0.2753  0.1498
 5493TIP3    H137894   4.340   6.062   5.454  0.5583  0.4149 -0.7376
 5493TIP3    H237895   4.322   5.942   5.544 -1.2565  1.1699 -0.0442
 5494TIP3   OH237896   3.559   2.815   3.231  0.0198 -0.3090 -0.3604
 5494TIP3    H137897   3.632   2.810   3.169  1.1694 -0.1856  0.9278
 5494TIP3    H237898   3.567   2.736   3.284  1.6024  1.4499  2.2619
 5495TIP3   OH237899   1.649   6.714  14.615  0.2552 -0.6027 -0.8016
 5495TIP3    H137900   1.564   6.698  14.655  0.7219  0.1637  0.5705
 5495TIP3    H237901   1.629   6.765  14.536 -0.4597  1.2680  0.5181
 5496TIP3   OH237902   4.196   6.053   2.226 -0.1176  0.8238 -0.1116
 5496TIP3    H137903   4.188   6.042   2.131  3.1809 -0.0451 -0.4172
 5496TIP3    H237904   4.118   6.103   2.251 -1.6522  0.1371 -3.0754
 5497TIP3   OH237905   6.361   0.682   2.360  0.3372  0.1330 -0.1923
 5497TIP3    H137906   6.304   0.698   2.285  1.8187  2.2215 -0.9546
 5497TIP3    H237907   6.303   0.687   2.436 -0.7026  1.0411 -1.0195
 5498TIP3   OH237908   3.449   3.830  15.853 -0.6161  0.6569 -0.0484
 5498TIP3    H137909   3.456   3.884  15.931  1.3488  0.7407 -0.2374
 5498TIP3    H237910   3.390   3.759  15.878 -0.3089  0.8932  1.3919
 5499TIP3   OH237911   5.724   6.346  15.325  0.2535  0.2598  0.5917
 5499TIP3    H137912   5.809   6.380  15.351  1.2768 -2.3921  1.0740
 5499TIP3    H237913   5.686   6.312  15.406 -1.4056  1.5591  0.4159
 5500TIP3   OH237914   6.130   0.757   3.176 -0.1808  0.1268  0.0137
 5500TIP3    H137915   6.216   0.754   3.135 -0.0666 -0.5037  0.2920
 5500TIP3    H237916   6.110   0.850   3.183 -0.0079  0.2617 -1.0589
 5501TIP3   OH237917   3.157   2.122  12.475  0.4314  0.4575 -0.0363
 5501TIP3    H137918   3.070   2.163  12.466  0.5049  0.5973 -0.1097
 5501TIP3    H237919   3.140   2.041  12.524 -0.0996 -0.6906 -2.0144
 5502TIP3   OH237920   2.816   1.684  13.745 -0.1352  0.3119 -0.4043
 5502TIP3    H137921   2.850   1.654  13.661 -1.1722 -0.3692 -0.6030
 5502TIP3    H237922   2.750   1.750  13.723 -0.1591  0.3906 -0.1098
 5503TIP3   OH237923   4.404   4.186   0.667  0.2297  0.1157 -0.2430
 5503TIP3    H137924   4.422   4.137   0.587  0.6036 -0.2569  0.0672
 5503TIP3    H237925   4.319   4.153   0.696  0.6277 -0.5822  0.1374
 5504TIP3   OH237926   1.663   6.258  16.631 -0.1130 -0.2553 -0.0927
 5504TIP3    H137927   1.755   6.230  16.626 -0.4195 -1.2735 -0.2961
 5504TIP3    H237928   1.627   6.209  16.706 -0.3872  0.4555  0.2457
 5505TIP3   OH237929   4.328   4.595   1.550  0.3505  0.0164  0.1543
 5505TIP3    H137930   4.251   4.652   1.554 -0.0871 -0.6183  1.1568
 5505TIP3    H237931   4.372   4.608   1.634  1.4755  0.5335 -0.4885
 5506TIP3   OH237932   2.765   0.021   5.639 -0.1927 -0.0196 -0.1226
 5506TIP3    H137933   2.817   0.088   5.594  1.0650  0.2988  1.6939
 5506TIP3    H237934   2.727   0.066   5.714  0.2164 -1.1983  0.8192
 5507TIP3   OH237935   3.090   3.576  13.024 -0.7372  0.8374  0.4145
 5507TIP3    H137936   3.086   3.664  12.987 -0.5615  0.7964  0.2988
 5507TIP3    H237937   3.036   3.523  12.965  1.2945  0.3100 -1.0888
 5508TIP3   OH237938   4.813   3.759  16.743  0.6404  0.4400 -0.2303
 5508TIP3    H137939   4.806   3.766  16.648 -0.4320  0.1326 -0.1794
 5508TIP3    H237940   4.797   3.667  16.763 -0.8137  0.7959  0.3690
 5509TIP3   OH237941   6.648   2.469  15.110 -0.0276 -0.4318 -0.0613
 5509TIP3    H137942   6.628   2.513  15.192 -0.4970 -0.1254 -0.3360
 5509TIP3    H237943   6.565   2.467  15.063  0.3964  0.0650 -0.8501
 5510TIP3   OH237944   4.044   3.808  12.836  0.5205 -0.1907 -0.6117
 5510TIP3    H137945   4.064   3.848  12.921  0.4401  0.7713 -1.0354
 5510TIP3    H237946   4.014   3.720  12.858  0.7231 -0.0364  0.3416
 5511TIP3   OH237947   2.809   6.464  16.184 -0.2871 -0.2945 -0.7451
 5511TIP3    H137948   2.884   6.453  16.243 -1.6038  0.8888  1.2774
 5511TIP3    H237949   2.840   6.528  16.119  1.3674 -2.0229 -1.7459
 5512TIP3   OH237950   6.399   1.597   0.505  0.2307 -0.1334 -0.5142
 5512TIP3    H137951   6.309   1.582   0.477 -0.3028  1.0439  0.5357
 5512TIP3    H237952   6.436   1.655   0.438 -0.5793  1.4388  0.3634
 5513TIP3   OH237953   0.250   2.942  17.163 -0.0339 -0.2945 -0.7021
 5513TIP3    H137954   0.295   2.917  17.243 -0.9278 -1.3429 -0.4957
 5513TIP3    H237955   0.297   2.897  17.093 -0.1611 -0.6158 -0.5875
 5514TIP3   OH237956   5.216   1.310  15.397  0.1714  0.0880  0.1083
 5514TIP3    H137957   5.241   1.235  15.343  0.4422 -2.2372  3.2412
 5514TIP3    H237958   5.132   1.286  15.435 -0.1402  1.7497  0.5636
 5515TIP3   OH237959   4.107   0.014  10.713  0.0922 -0.3177 -0.0494
 5515TIP3    H137960   4.198   0.012  10.682  0.5725 -0.3358  1.2825
 5515TIP3    H237961   4.055   0.026  10.634  1.3717  1.7492 -0.6434
 5516TIP3   OH237962   2.162   2.749  12.459 -0.2875  0.0188  0.1749
 5516TIP3    H137963   2.229   2.768  12.525  0.6788  0.9470 -1.0396
 5516TIP3    H237964   2.137   2.835  12.425 -1.1647 -0.4123 -0.3108
 5517TIP3   OH237965   2.736   2.462   0.642  0.2830 -0.2120  0.3067
 5517TIP3    H137966   2.796   2.523   0.598 -0.5893 -0.0640 -0.7406
 5517TIP3    H237967   2.784   2.380   0.646  0.7190  0.0125 -0.1485
 5518TIP3   OH237968   5.795   5.964  13.223 -0.2508 -0.1492  0.3314
 5518TIP3    H137969   5.766   5.913  13.298  0.5100 -1.3578 -0.1693
 5518TIP3    H237970   5.748   5.928  13.149  0.8687 -0.6638 -0.1487
 5519TIP3   OH237971   4.347   1.162   4.832 -0.5397  0.2017 -0.5113
 5519TIP3    H137972   4.400   1.191   4.906  0.2756 -3.4203  0.4931
 5519TIP3    H237973   4.412   1.139   4.765 -0.7612 -2.8137  0.1780
 5520TIP3   OH237974   6.183   4.495   4.628  1.0532 -0.1578  0.3275
 5520TIP3    H137975   6.092   4.523   4.629  1.0887 -0.0451  0.3575
 5520TIP3    H237976   6.220   4.536   4.549  0.5372 -1.9020 -0.8877
 5521TIP3   OH237977   6.147   3.285   2.160  0.6453  0.1615 -0.1131
 5521TIP3    H137978   6.109   3.199   2.177 -2.8846  1.2723 -1.4718
 5521TIP3    H237979   6.130   3.301   2.067 -0.5397  2.9934  0.4693
 5522TIP3   OH237980   3.001   2.892   5.714 -0.2082  0.3250  0.1165
 5522TIP3    H137981   3.072   2.878   5.777 -0.6312 -0.6906  0.3852
 5522TIP3    H237982   3.043   2.883   5.628  0.0989  0.3312  0.2657
 5523TIP3   OH237983   3.196   0.011  16.388  0.1949  0.3698 -0.0320
 5523TIP3    H137984   3.158   0.054  16.464 -1.6589  0.1918 -0.8001
 5523TIP3    H237985   3.258  -0.052  16.424  0.8180  1.6426  1.2199
 5524TIP3   OH237986   5.388   5.505  13.954 -0.1743  0.6799  0.3134
 5524TIP3    H137987   5.399   5.470  13.865 -2.3234  2.1922 -0.6432
 5524TIP3    H237988   5.330   5.442  13.997  1.0447 -0.1701  0.7667
 5525TIP3   OH237989   4.607   4.725   2.561  0.5913  0.0515  0.3821
 5525TIP3    H137990   4.662   4.708   2.484  1.0917  0.1625  0.7115
 5525TIP3    H237991   4.540   4.657   2.558  0.6931 -0.0349 -0.0688
 5526TIP3   OH237992   6.264   3.170   3.352  0.2735  0.5540 -0.4342
 5526TIP3    H137993   6.345   3.179   3.402  1.1026  3.1222 -2.0714
 5526TIP3    H237994   6.197   3.153   3.418  1.4914  2.6761  1.4834
 5527TIP3   OH237995   1.032   2.899   4.061  0.4354  0.3180 -0.2026
 5527TIP3    H137996   0.983   2.860   4.134  1.9022  1.4640  1.5078
 5527TIP3    H237997   0.976   2.970   4.031  0.3287  0.6219  0.6705
 5528TIP3   OH237998   2.085   6.154  14.136 -0.8393 -0.4153 -0.4601
 5528TIP3    H137999   2.092   6.219  14.205 -2.2064 -1.0177  0.2907
 5528TIP3    H238000   2.046   6.202  14.062 -1.4263 -0.2653 -0.0613
 5529TIP3   OH238001   5.497   1.647   1.055  0.2459 -0.0081  0.0535
 5529TIP3    H138002   5.512   1.650   0.961  0.4266 -1.3676  0.0109
 5529TIP3    H238003   5.429   1.581   1.067 -0.1336  0.5041  0.8481
 5530TIP3   OH238004   1.449   4.200   3.479 -1.1261  0.5075 -0.2135
 5530TIP3    H138005   1.443   4.285   3.521 -1.3884 -0.5824  2.1046
 5530TIP3    H238006   1.529   4.205   3.426  0.4601  1.3084  2.1040
 5531TIP3   OH238007   0.838   2.485  11.929 -0.3826 -0.1287 -0.3258
 5531TIP3    H138008   0.772   2.417  11.918  0.4293 -0.6667 -2.2181
 5531TIP3    H238009   0.892   2.454  12.001 -1.2107 -0.4837  0.1577
 5532TIP3   OH238010   2.554   1.206  15.234  0.2346 -0.6249  0.0579
 5532TIP3    H138011   2.602   1.162  15.164 -1.3537 -1.7945 -0.3610
 5532TIP3    H238012   2.494   1.139  15.268 -0.6281  0.5644  0.9977
 5533TIP3   OH238013   0.012   3.508   3.256  0.1962 -0.0015  0.9604
 5533TIP3    H138014  -0.058   3.541   3.200  0.2753 -1.2048  0.1073
 5533TIP3    H238015   0.016   3.569   3.329 -2.0756 -0.1689  1.2889
 5534TIP3   OH238016   3.748   0.204   5.882 -0.2288  0.0141 -0.0900
 5534TIP3    H138017   3.783   0.118   5.908  0.4325  0.7462  1.5904
 5534TIP3    H238018   3.799   0.267   5.933 -1.6978  1.3414 -0.1793
 5535TIP3   OH238019   1.669   5.391   2.311 -0.3803 -0.5386 -0.2310
 5535TIP3    H138020   1.601   5.357   2.252 -1.3059 -1.5275  1.3576
 5535TIP3    H238021   1.701   5.315   2.359 -0.4483  0.3891  1.3508
 5536TIP3   OH238022   1.099   4.908   1.513 -0.1136 -0.8032 -0.7063
 5536TIP3    H138023   1.025   4.945   1.465 -0.6759 -0.7637  0.1844
 5536TIP3    H238024   1.074   4.914   1.605  2.3076  2.1814 -0.0812
 5537TIP3   OH238025   4.714   6.115  14.509  0.5242 -0.0156  0.4144
 5537TIP3    H138026   4.734   6.131  14.417 -0.8527  0.6729  0.2266
 5537TIP3    H238027   4.642   6.052  14.507  0.1510  0.3915  1.0144
 5538TIP3   OH238028   5.024   4.795   2.306  0.0146 -0.0775 -0.0808
 5538TIP3    H138029   5.038   4.742   2.227 -1.0743 -1.8113  0.8192
 5538TIP3    H238030   5.080   4.753   2.372  0.3446  0.8956  0.2660
 5539TIP3   OH238031   4.572   6.508   2.283 -0.3017 -0.1046  0.1626
 5539TIP3    H138032   4.503   6.456   2.326  2.5504 -3.9292  0.6355
 5539TIP3    H238033   4.608   6.448   2.218  2.0871  2.0169 -0.5685
 5540TIP3   OH238034   4.928   6.139   4.646 -0.0621  0.3929 -0.4247
 5540TIP3    H138035   4.906   6.201   4.577 -3.6235  0.9892  1.0125
 5540TIP3    H238036   4.919   6.190   4.727  3.5192 -0.3855  0.6041
 5541TIP3   OH238037   3.756   2.105   0.848 -0.2503  0.2554  0.1129
 5541TIP3    H138038   3.722   2.061   0.770 -0.1144  0.9112 -0.3331
 5541TIP3    H238039   3.678   2.140   0.891 -0.5014 -1.5120  1.1983
 5542TIP3   OH238040   2.709   0.488   5.038  0.1629 -0.4133 -0.0149
 5542TIP3    H138041   2.627   0.462   5.081 -1.3632  0.6238 -2.0983
 5542TIP3    H238042   2.719   0.581   5.061  0.5812 -0.4432 -0.0704
 5543TIP3   OH238043   6.323   2.216  17.029 -0.3918 -0.0670  0.3409
 5543TIP3    H138044   6.366   2.222  16.944  0.6485 -0.3576  0.8249
 5543TIP3    H238045   6.337   2.303  17.069 -0.7060  0.0052  0.2977
 5544TIP3   OH238046   0.623   3.838  12.171 -0.3531  0.0208  0.1755
 5544TIP3    H138047   0.700   3.884  12.138  0.8159 -0.1913  2.4416
 5544TIP3    H238048   0.549   3.888  12.137  0.7464  0.3292 -1.9124
 5545TIP3   OH238049   4.870   1.427  16.367 -0.0756  0.6377 -0.5708
 5545TIP3    H138050   4.842   1.499  16.310 -0.3446  0.4056 -0.7342
 5545TIP3    H238051   4.812   1.354  16.344 -0.4041  0.6344  0.2136
 5546TIP3   OH238052   0.550   1.865   5.839 -0.3748 -0.0833 -0.1128
 5546TIP3    H138053   0.480   1.855   5.904  0.8582  2.0664  1.6959
 5546TIP3    H238054   0.605   1.788   5.852  0.3988  0.7902  2.2006
 5547TIP3   OH238055   0.606   1.650  12.142  0.2783 -0.3158  0.3506
 5547TIP3    H138056   0.521   1.693  12.146  0.0023 -0.8452  0.1787
 5547TIP3    H238057   0.637   1.665  12.053 -0.0695 -0.9558  0.1227
 5548TIP3   OH238058   4.988   2.451  15.695 -0.5963 -0.6654  0.1541
 5548TIP3    H138059   4.946   2.533  15.720 -0.5467 -0.1923 -1.2287
 5548TIP3    H238060   5.040   2.426  15.772 -0.4984  0.6640  0.5379
 5549TIP3   OH238061   0.606   4.732  15.857 -0.7744  1.0630  0.6548
 5549TIP3    H138062   0.549   4.735  15.934 -0.3596  1.2312  0.9591
 5549TIP3    H238063   0.693   4.713  15.892 -0.7307  0.2393  0.1426
 5550TIP3   OH238064   5.032   2.776   1.464  0.6047  0.3563  0.1075
 5550TIP3    H138065   4.942   2.803   1.445 -0.1140 -0.8754  1.5478
 5550TIP3    H238066   5.047   2.701   1.406  0.2408 -0.2052  0.7227
 5551TIP3   OH238067   3.792   1.063   2.295  0.1397 -0.0548 -0.7241
 5551TIP3    H138068   3.810   1.021   2.211 -1.1404 -1.0705 -0.5332
 5551TIP3    H238069   3.756   1.148   2.272 -1.9649 -1.0364 -1.3140
 5552TIP3   OH238070   3.825   2.144  12.233  0.2430  0.3279  0.5660
 5552TIP3    H138071   3.770   2.171  12.160  0.7309  1.5684  0.6346
 5552TIP3    H238072   3.914   2.149  12.198  0.3663 -1.4418  0.5217
 5553TIP3   OH238073   0.233   3.426  14.868 -0.2669 -0.2080 -0.6211
 5553TIP3    H138074   0.201   3.402  14.781  1.3602 -1.6268 -0.8781
 5553TIP3    H238075   0.250   3.520  14.863  1.5295 -0.5705 -2.4563
 5554TIP3   OH238076   6.066   5.045   4.087 -0.1796 -0.1743 -0.1000
 5554TIP3    H138077   6.159   5.037   4.109 -0.4919  0.2343  1.5343
 5554TIP3    H238078   6.020   5.023   4.169 -1.4821  0.7275 -0.5533
 5555TIP3   OH238079   1.762   5.608   1.002 -0.3638 -0.4157  0.0534
 5555TIP3    H138080   1.808   5.528   0.978  2.8130  2.0224 -3.0625
 5555TIP3    H238081   1.789   5.625   1.092 -1.6230 -3.0192  1.0260
 5556TIP3   OH238082   5.743   4.275  10.974  0.2304  0.3682  0.5883
 5556TIP3    H138083   5.820   4.255  11.027  0.0053 -0.9346  0.4417
 5556TIP3    H238084   5.693   4.194  10.972 -0.7200  0.9515 -0.0409
 5557TIP3   OH238085   5.478   5.506  12.624 -0.2103  0.3557 -0.0649
 5557TIP3    H138086   5.467   5.433  12.562 -0.5644  1.2909 -1.1325
 5557TIP3    H238087   5.452   5.469  12.709  0.3742 -0.9834 -0.4316
 5558TIP3   OH238088   6.355   5.643   0.494  0.3541 -0.6311 -0.2038
 5558TIP3    H138089   6.396   5.711   0.548 -1.0223  0.2372 -0.2006
 5558TIP3    H238090   6.296   5.597   0.554 -0.0937 -0.6154 -0.6255
 5559TIP3   OH238091   6.521   4.012  17.284 -0.2845  0.2455 -0.1823
 5559TIP3    H138092   6.461   3.958  17.334 -0.5781  0.4792 -0.2767
 5559TIP3    H238093   6.599   3.957  17.271 -1.1980 -0.7589 -1.6716
 5560TIP3   OH238094   0.617   6.319   0.965 -0.0048  0.4000 -0.0908
 5560TIP3    H138095   0.697   6.280   1.000 -0.3544 -0.4349 -0.1848
 5560TIP3    H238096   0.553   6.307   1.035  0.2431  2.1972  0.4920
 5561TIP3   OH238097   6.270   0.553  15.425 -0.2431 -0.0362  0.4945
 5561TIP3    H138098   6.332   0.479  15.423  1.0251  0.9792  1.0060
 5561TIP3    H238099   6.195   0.520  15.476  0.7234 -0.6698  1.5565
 5562TIP3   OH238100   3.061   0.107  16.600  0.2068  0.4451  0.1225
 5562TIP3    H138101   3.115   0.167  16.652  1.4990 -0.1156 -0.5408
 5562TIP3    H238102   3.057   0.028  16.653  0.4236  0.3281 -0.0351
 5563TIP3   OH238103   4.823   0.501  15.294 -0.5568  0.3052  0.0943
 5563TIP3    H138104   4.731   0.524  15.286 -0.4103  1.6456  1.6453
 5563TIP3    H238105   4.864   0.537  15.215 -1.2658  0.0631 -0.3981
 5564TIP3   OH238106   0.676   2.899   0.847 -0.0042 -0.7009 -0.0068
 5564TIP3    H138107   0.696   2.825   0.904  1.0512  0.4573  1.1738
 5564TIP3    H238108   0.587   2.880   0.815 -0.8818 -1.1455  2.4522
 5565TIP3   OH238109   3.546   5.539  11.697  0.2916 -0.1229 -1.2801
 5565TIP3    H138110   3.542   5.538  11.793 -0.2763 -0.3655 -1.3037
 5565TIP3    H238111   3.454   5.538  11.669  0.4357 -2.4021 -1.8498
 5566TIP3   OH238112   5.117   3.330   5.257 -0.8404 -0.1083  0.4819
 5566TIP3    H138113   5.127   3.236   5.274  1.1548  0.0361  0.3200
 5566TIP3    H238114   5.202   3.357   5.223 -1.8232  1.5000 -0.8026
 5567TIP3   OH238115   0.623   0.802   2.027  0.1159 -0.1346  0.0960
 5567TIP3    H138116   0.654   0.793   1.936  0.3439 -0.3868  0.1967
 5567TIP3    H238117   0.688   0.857   2.069  0.3102 -0.4850  0.2527
 5568TIP3   OH238118   6.136   6.715   1.450 -0.4492 -0.2587  0.0158
 5568TIP3    H138119   6.059   6.668   1.420 -0.6273  0.4918 -0.7440
 5568TIP3    H238120   6.209   6.655   1.432 -0.5871  0.0440 -1.6746
 5569TIP3   OH238121   5.517   4.520   2.595 -0.1369  0.3184 -0.8685
 5569TIP3    H138122   5.447   4.456   2.611 -0.9365  1.0812 -1.2497
 5569TIP3    H238123   5.594   4.467   2.577 -0.5693 -0.5441 -0.2553
 5570TIP3   OH238124   4.607   4.454   6.249 -0.1712 -0.2487  0.2159
 5570TIP3    H138125   4.667   4.523   6.278 -0.3901  0.0059  0.0593
 5570TIP3    H238126   4.574   4.484   6.165 -2.1112  0.5912  1.2236
 5571TIP3   OH238127   4.355   0.566   5.343  0.9580 -0.2339 -0.0227
 5571TIP3    H138128   4.335   0.473   5.334 -0.8697  0.1942 -0.7927
 5571TIP3    H238129   4.344   0.584   5.437 -0.6346 -0.4149 -0.1532
 5572TIP3   OH238130   0.657   4.724  15.459 -0.0212  0.3985 -0.0484
 5572TIP3    H138131   0.618   4.755  15.377  0.8695  1.0089 -0.2554
 5572TIP3    H238132   0.668   4.804  15.512 -0.7441 -0.0059  0.7481
 5573TIP3   OH238133   3.165   1.537  13.650  0.4773 -0.2400  0.0523
 5573TIP3    H138134   3.134   1.462  13.600  2.7364 -1.7218  0.6947
 5573TIP3    H238135   3.141   1.517  13.740  0.1659  0.3249  0.0951
 5574TIP3   OH238136   4.895   4.611   2.599 -0.4594  0.3194 -0.0193
 5574TIP3    H138137   4.964   4.635   2.539  0.7440 -2.2760  0.1800
 5574TIP3    H238138   4.939   4.597   2.683 -0.9200 -2.4398 -0.1302
 5575TIP3   OH238139   2.276   0.007  11.999 -0.1106 -0.4613 -0.0779
 5575TIP3    H138140   2.355   0.042  11.960 -0.5398 -0.6202 -1.1159
 5575TIP3    H238141   2.270   0.050  12.084  1.3517 -0.8224  0.2334
 5576TIP3   OH238142   4.137   2.277  14.100  0.1900 -0.1400 -0.1828
 5576TIP3    H138143   4.086   2.207  14.142 -1.0273 -0.5296 -2.1247
 5576TIP3    H238144   4.083   2.355  14.109  1.0788  0.3518  1.0959
 5577TIP3   OH238145   4.882   5.659  12.476 -0.3147  0.0464  0.5507
 5577TIP3    H138146   4.977   5.646  12.485 -0.5011 -0.8738  1.3027
 5577TIP3    H238147   4.845   5.621  12.556 -1.2333  1.5827  0.8887
 5578TIP3   OH238148   1.744   1.699   1.153  0.0165 -0.9229 -0.4103
 5578TIP3    H138149   1.668   1.647   1.128 -1.2556 -0.1743  1.6536
 5578TIP3    H238150   1.737   1.709   1.248  0.0735  3.1011 -0.6338
 5579TIP3   OH238151   1.183   4.935   4.480 -0.0091  0.1917 -0.0303
 5579TIP3    H138152   1.234   4.994   4.424  0.2070 -0.4127 -0.4731
 5579TIP3    H238153   1.197   4.848   4.443 -1.0599 -0.0320  0.0694
 5580TIP3   OH238154   1.454   6.743   0.157 -0.1278  0.3167 -0.4327
 5580TIP3    H138155   1.536   6.755   0.204  0.0661  0.7710 -0.8755
 5580TIP3    H238156   1.480   6.715   0.070 -0.5091 -1.3347 -0.0483
 5581TIP3   OH238157   2.898   2.722  10.546 -0.4458 -0.2610 -0.1188
 5581TIP3    H138158   2.830   2.781  10.578 -1.4882  0.0507 -2.6299
 5581TIP3    H238159   2.977   2.775  10.543 -0.6767  0.1229  0.4256
 5582TIP3   OH238160   0.071   3.872   5.653 -0.0576 -0.1170  0.6965
 5582TIP3    H138161   0.088   3.802   5.591  0.0537  0.7798 -0.3070
 5582TIP3    H238162   0.014   3.832   5.719 -0.7953 -0.8863 -0.3809
 5583TIP3   OH238163   0.593   2.306  12.936 -0.1779 -0.3887 -0.0159
 5583TIP3    H138164   0.525   2.327  12.872 -1.6672 -0.3048  1.4922
 5583TIP3    H238165   0.573   2.215  12.962 -0.1995 -0.1115  0.9839
 5584TIP3   OH238166   1.064   2.698   0.617 -0.0355 -0.2956  0.3290
 5584TIP3    H138167   1.054   2.746   0.699 -0.2579  1.0584 -0.4542
 5584TIP3    H238168   0.981   2.710   0.572  0.1428 -0.8795 -0.1712
 5585TIP3   OH238169   3.265   1.720   5.019 -0.4006 -0.4449  0.4824
 5585TIP3    H138170   3.275   1.811   5.048  0.4075 -0.5369  0.5249
 5585TIP3    H238171   3.197   1.724   4.952  1.1930  0.5864 -1.1905
 5586TIP3   OH238172   1.826   3.237   3.204  0.2203 -0.1449  0.9964
 5586TIP3    H138173   1.879   3.173   3.252 -0.3122 -0.2753  1.4148
 5586TIP3    H238174   1.889   3.279   3.144  0.1011 -3.1446 -1.5587
 5587TIP3   OH238175   3.394   4.903  12.006  0.1361 -0.2481  0.1138
 5587TIP3    H138176   3.484   4.931  11.988 -0.3808  0.5863 -1.3507
 5587TIP3    H238177   3.374   4.940  12.092  0.5736  1.1785 -0.3784
 5588TIP3   OH238178   2.981   1.263   4.294 -0.1431  0.0042 -0.2794
 5588TIP3    H138179   2.942   1.351   4.290 -2.9323 -1.1103  0.1631
 5588TIP3    H238180   3.035   1.257   4.215 -1.0853  1.5998 -1.0914
 5589TIP3   OH238181   6.085   2.883   3.576 -0.0614 -0.2836 -0.8074
 5589TIP3    H138182   6.172   2.885   3.617  0.2719 -2.3677 -1.3010
 5589TIP3    H238183   6.059   2.975   3.572  2.2161  0.4374 -0.8710
 5590TIP3   OH238184   2.302   1.302   5.105  0.2536 -0.1770  0.7835
 5590TIP3    H138185   2.359   1.376   5.085 -2.5487  2.1447  0.7005
 5590TIP3    H238186   2.281   1.264   5.020  1.2379 -0.7444  0.7797
 5591TIP3   OH238187   3.335   0.968  13.663  0.5887 -0.1639 -0.0188
 5591TIP3    H138188   3.422   0.950  13.697  0.5334 -1.5415 -0.5203
 5591TIP3    H238189   3.338   0.936  13.572 -0.7977 -1.4920  0.3479
 5592TIP3   OH238190   1.220   1.658  16.008  0.0436  0.2046 -0.2230
 5592TIP3    H138191   1.225   1.735  15.950  0.4473  0.3290 -0.0299
 5592TIP3    H238192   1.303   1.659  16.055  0.6321 -1.1022 -1.1661
 5593TIP3   OH238193   4.572   4.812  11.487 -0.0866 -0.7264 -0.2165
 5593TIP3    H138194   4.625   4.879  11.530 -0.0169 -0.7785 -0.2206
 5593TIP3    H238195   4.516   4.860  11.425 -0.7197 -0.5685  0.4623
 5594TIP3   OH238196   6.286   5.507  17.310  0.8459 -0.3881 -0.2657
 5594TIP3    H138197   6.272   5.579  17.248  0.4526 -1.0704 -0.9906
 5594TIP3    H238198   6.350   5.450  17.266 -1.1612 -2.0894 -1.1384
 5595TIP3   OH238199   1.565   6.252  14.325  0.1180 -0.2295 -0.3668
 5595TIP3    H138200   1.603   6.265  14.238 -0.1799  1.0993 -0.3202
 5595TIP3    H238201   1.490   6.195  14.310 -1.5502  2.0539 -1.4725
 5596TIP3   OH238202   3.138   3.765  12.522 -0.2191 -0.2442  0.2713
 5596TIP3    H138203   3.126   3.685  12.573 -0.0974 -2.0479 -2.3297
 5596TIP3    H238204   3.078   3.756  12.448  0.8976  1.3250 -0.9066
 5597TIP3   OH238205   4.003   6.062  11.730 -0.5776  0.1723  0.7452
 5597TIP3    H138206   3.918   6.041  11.693  0.1499 -1.3153 -0.1901
 5597TIP3    H238207   4.059   6.078  11.654 -0.3892  2.8909  1.3621
 5598TIP3   OH238208   0.860   4.426   2.303  0.0616 -0.0837  0.3669
 5598TIP3    H138209   0.926   4.494   2.294 -1.9316  2.0529  0.8201
 5598TIP3    H238210   0.904   4.354   2.348  2.2991  0.8153 -0.2718
 5599TIP3   OH238211   4.096   6.692  16.554 -1.0692 -0.2731  0.4093
 5599TIP3    H138212   4.060   6.775  16.524 -0.3462  0.7068  2.1108
 5599TIP3    H238213   4.098   6.699  16.649  0.3921 -1.6323  0.5344
 5600TIP3   OH238214   6.514   6.323  16.078  0.1370  0.5432  0.0829
 5600TIP3    H138215   6.584   6.330  16.013  0.5745 -3.3736 -0.1149
 5600TIP3    H238216   6.443   6.279  16.032  0.2674 -1.8832  1.9544
 5601TIP3   OH238217   2.071   3.117   0.566  0.7855 -0.4258  0.1575
 5601TIP3    H138218   2.152   3.107   0.518  0.3347 -0.8985 -0.5197
 5601TIP3    H238219   2.051   3.029   0.599 -0.5650 -0.8225 -1.5422
 5602TIP3   OH238220   0.745   0.590  14.538  0.2313 -0.1805 -0.0459
 5602TIP3    H138221   0.725   0.505  14.577 -0.5606  0.4575  0.9873
 5602TIP3    H238222   0.829   0.577  14.494 -0.9967 -2.1673 -2.0227
 5603TIP3   OH238223   6.229   1.338   2.478 -0.1306 -0.6015  0.1982
 5603TIP3    H138224   6.178   1.260   2.501  0.3352 -0.8237  0.5055
 5603TIP3    H238225   6.244   1.330   2.384 -0.0483 -0.9041  0.2365
 5604TIP3   OH238226   2.672   0.380  14.511 -0.5469 -0.8625 -0.1242
 5604TIP3    H138227   2.693   0.461  14.465  0.1526 -0.6159  0.6012
 5604TIP3    H238228   2.719   0.312  14.463  1.4054 -0.4096  1.0435
 5605TIP3   OH238229   5.232   6.448   6.052 -0.4338  0.3908  0.5503
 5605TIP3    H138230   5.255   6.456   5.960 -3.5677  1.0712 -0.2817
 5605TIP3    H238231   5.244   6.537   6.087  1.1618  0.0419  0.9549
 5606TIP3   OH238232   4.770   3.261  14.416  0.2907  0.4283 -0.0116
 5606TIP3    H138233   4.750   3.285  14.506  1.1448  0.0401  0.2895
 5606TIP3    H238234   4.857   3.219  14.420  0.2330  0.1789 -0.9696
 5607TIP3   OH238235   4.802   2.138   0.173 -0.1854  0.3422  0.4311
 5607TIP3    H138236   4.774   2.147   0.082 -0.7427 -1.1978  0.4181
 5607TIP3    H238237   4.772   2.050   0.199  2.5640 -0.4847  1.1628
 5608TIP3   OH238238   5.615   4.771  17.323  0.2625 -0.1221 -0.1944
 5608TIP3    H138239   5.579   4.859  17.334  0.9537 -0.1137  2.6065
 5608TIP3    H238240   5.700   4.785  17.281  1.4090  0.8536  2.2627
 5609TIP3   OH238241   0.660   2.017  12.743  0.1629 -0.1699  0.6620
 5609TIP3    H138242   0.591   2.046  12.684  1.1337  0.2288 -0.3156
 5609TIP3    H238243   0.733   1.995  12.685  0.4588 -1.7747  1.5684
 5610TIP3   OH238244   2.765   3.909  15.380  0.4181 -0.4347 -0.1328
 5610TIP3    H138245   2.822   3.980  15.351 -2.4371  1.9242 -0.5472
 5610TIP3    H238246   2.771   3.911  15.475  0.8851 -0.1071 -0.1656
 5611TIP3   OH238247   6.114   0.853   5.866  0.0278 -0.0916 -0.7042
 5611TIP3    H138248   6.149   0.872   5.953 -0.5776  0.1348 -0.5098
 5611TIP3    H238249   6.024   0.884   5.868  0.3444  0.9744 -1.7803
 5612TIP3   OH238250   0.190   2.473   2.840  0.1340 -0.4464  0.1059
 5612TIP3    H138251   0.097   2.494   2.833  0.0543 -0.3363  1.3350
 5612TIP3    H238252   0.234   2.554   2.817 -0.0771 -0.4026 -0.1513
 5613TIP3   OH238253   4.781   3.547  13.116  0.5036  0.0167 -0.3300
 5613TIP3    H138254   4.831   3.526  13.037 -0.1837  1.4450 -1.1916
 5613TIP3    H238255   4.775   3.643  13.116 -0.2110 -0.0014  1.0219
 5614TIP3   OH238256   3.523   1.176  15.607  0.3429  0.0920 -0.9776
 5614TIP3    H138257   3.502   1.267  15.630 -1.3614 -0.4464 -0.2362
 5614TIP3    H238258   3.442   1.142  15.568  0.2737 -1.6552  0.5403
 5615TIP3   OH238259   4.389   4.591   3.120 -0.5574  0.6050 -1.0374
 5615TIP3    H138260   4.442   4.614   3.044  1.5984 -1.0725 -0.1589
 5615TIP3    H238261   4.363   4.500   3.104 -0.7105  0.4822 -0.1142
 5616TIP3   OH238262   1.325   3.354  13.760 -0.2562 -0.2975  0.0003
 5616TIP3    H138263   1.368   3.407  13.693 -0.8006 -0.1638 -0.2468
 5616TIP3    H238264   1.231   3.365  13.744 -0.3995 -0.2420  0.8000
 5617TIP3   OH238265   5.103   2.350  13.036 -0.3058 -0.3017 -0.5308
 5617TIP3    H138266   5.070   2.404  13.107  1.4376 -0.3503  0.3707
 5617TIP3    H238267   5.051   2.270  13.039 -1.2244  0.2945 -0.2734
 5618TIP3   OH238268   6.229   5.795  13.887  0.3746 -0.3276 -0.0907
 5618TIP3    H138269   6.184   5.834  13.812 -0.7949  0.6699  1.0686
 5618TIP3    H238270   6.197   5.705  13.890  1.5381 -0.8245 -1.6076
 5619TIP3   OH238271   0.229   3.429  12.670 -0.5422  0.6011  0.0673
 5619TIP3    H138272   0.232   3.381  12.587 -0.0875 -2.3136  1.6005
 5619TIP3    H238273   0.137   3.430  12.694 -0.7686  2.1305 -0.7943
 5620TIP3   OH238274   0.467   2.145   1.777 -0.0225  0.2935 -0.1719
 5620TIP3    H138275   0.380   2.127   1.812 -0.4964  0.1509 -1.3571
 5620TIP3    H238276   0.506   2.206   1.839 -0.9886  0.4091  0.3491
 5621TIP3   OH238277   3.210   6.627   0.785  0.3323 -0.3351 -0.0576
 5621TIP3    H138278   3.129   6.657   0.827 -0.5035 -1.2610 -0.9437
 5621TIP3    H238279   3.224   6.539   0.821  0.4288 -0.5418 -0.5887
 5622TIP3   OH238280   3.024   5.598  17.135 -0.3778  0.3425 -0.2208
 5622TIP3    H138281   3.043   5.508  17.159 -1.1791 -0.1890 -1.4510
 5622TIP3    H238282   2.982   5.591  17.049  1.1124  2.0175 -1.1319
 5623TIP3   OH238283   2.387   1.912  15.873  0.0273  0.2708  0.1583
 5623TIP3    H138284   2.475   1.946  15.861  0.8557 -0.9960  2.1119
 5623TIP3    H238285   2.396   1.843  15.938 -2.1854 -0.9861 -0.7405
 5624TIP3   OH238286   5.691   2.379   3.541 -0.2103  0.0050  0.1636
 5624TIP3    H138287   5.758   2.318   3.512 -0.4149 -0.4635  0.6650
 5624TIP3    H238288   5.708   2.390   3.635  0.1407  1.1144 -0.0076
 5625TIP3   OH238289   2.627   2.520  15.792 -0.1010  0.2824 -0.0938
 5625TIP3    H138290   2.631   2.434  15.833  1.0399  1.1502  1.7163
 5625TIP3    H238291   2.697   2.570  15.832 -0.9752  2.2039 -0.8077
 5626TIP3   OH238292   5.120   1.549  13.151 -0.2667 -0.8727 -0.0334
 5626TIP3    H138293   5.051   1.583  13.208 -0.2558 -0.5048 -0.2335
 5626TIP3    H238294   5.074   1.511  13.077 -0.2880 -1.5381  0.3204
 5627TIP3   OH238295   4.992   1.156   0.715  0.1021 -0.3374  0.0592
 5627TIP3    H138296   4.926   1.223   0.696  0.7647  0.9091  1.8621
 5627TIP3    H238297   5.072   1.206   0.734  0.9219 -1.7025  0.3509
 5628TIP3   OH238298   5.402   3.822   6.042  0.2901 -0.5414 -0.2743
 5628TIP3    H138299   5.422   3.790   5.954  0.6486 -2.3429  0.4098
 5628TIP3    H238300   5.479   3.874   6.066  0.4590 -0.5369 -0.8007
 5629TIP3   OH238301   4.764   5.164   2.729  0.1650 -0.6991  0.2199
 5629TIP3    H138302   4.844   5.199   2.769 -0.9177  0.2387  1.6719
 5629TIP3    H238303   4.779   5.070   2.724  1.6251 -0.4745 -0.1864
 5630TIP3   OH238304   5.875   4.899   5.902  0.0520  0.3669 -0.0468
 5630TIP3    H138305   5.919   4.927   5.982 -3.2354  1.8736  1.4173
 5630TIP3    H238306   5.930   4.933   5.831  3.1609 -1.1729  1.4107
 5631TIP3   OH238307   6.235   1.607  16.947 -0.8473  0.0391  0.0283
 5631TIP3    H138308   6.203   1.572  17.030  0.0893 -0.9165  0.0073
 5631TIP3    H238309   6.218   1.701  16.952  0.0686  0.1587  1.7303
 5632TIP3   OH238310   3.588   0.781  11.198  0.3303 -0.0819  0.2441
 5632TIP3    H138311   3.649   0.826  11.139  0.3829 -1.2570 -0.6332
 5632TIP3    H238312   3.619   0.691  11.201 -0.4107 -0.3281  1.0985
 5633TIP3   OH238313   0.357   3.439  10.513  0.0016 -0.2289 -0.9103
 5633TIP3    H138314   0.348   3.483  10.597 -0.0977 -0.6429 -0.7032
 5633TIP3    H238315   0.412   3.497  10.461 -0.3584  0.2768 -0.7359
 5634TIP3   OH238316   0.908   6.476  14.067 -0.1808  0.4094 -0.1452
 5634TIP3    H138317   0.937   6.532  14.139  1.3617  1.5309 -1.5916
 5634TIP3    H238318   0.988   6.434  14.035 -1.0938 -1.5196 -0.0665
 5635TIP3   OH238319   1.465   1.778   4.551 -0.6891  0.2798  0.4780
 5635TIP3    H138320   1.405   1.789   4.625  0.0179 -0.6090  1.2107
 5635TIP3    H238321   1.409   1.787   4.474 -1.6817 -0.0412  1.1346
 5636TIP3   OH238322   1.307   6.237   5.361  0.2904  0.2788 -0.3098
 5636TIP3    H138323   1.337   6.326   5.378  0.4605  0.1432  0.1147
 5636TIP3    H238324   1.213   6.247   5.343 -0.2839  0.2820  2.2982
 5637TIP3   OH238325   0.107   0.461  16.594  0.2591 -0.1483  0.3156
 5637TIP3    H138326   0.066   0.534  16.640  3.2419  1.7691  0.2537
 5637TIP3    H238327   0.187   0.443  16.644  1.3522 -1.0318 -1.6082
 5638TIP3   OH238328   6.209   0.340  14.372 -0.0674  0.1338  0.0211
 5638TIP3    H138329   6.246   0.393  14.443  1.7053 -0.6925 -0.2129
 5638TIP3    H238330   6.256   0.256  14.378 -0.7345 -0.3746 -1.3758
 5639TIP3   OH238331   2.763   4.335   3.660  0.0652 -0.0602  0.2019
 5639TIP3    H138332   2.779   4.412   3.714  0.8730 -0.4966  0.5962
 5639TIP3    H238333   2.816   4.348   3.582 -0.9937  0.5036 -0.4545
 5640TIP3   OH238334   2.421   5.427   0.226 -0.0804 -0.0464  0.0856
 5640TIP3    H138335   2.444   5.499   0.285 -0.8672  0.6292 -0.4126
 5640TIP3    H238336   2.475   5.442   0.149  0.8691 -0.8697  0.5610
 5641TIP3   OH238337   3.057   2.360  11.919  0.1190  0.1942 -0.3202
 5641TIP3    H138338   3.076   2.324  12.006 -0.4270  2.7016  0.9165
 5641TIP3    H238339   3.067   2.454  11.929  0.4151  0.5412 -3.1153
 5642TIP3   OH238340   5.708   0.748  13.908  0.4074 -0.1656 -0.0608
 5642TIP3    H138341   5.796   0.770  13.877 -0.0417  0.7541 -0.6889
 5642TIP3    H238342   5.702   0.789  13.994  0.9499 -1.1045  0.4494
 5643TIP3   OH238343   3.770   3.598   3.783 -0.2350  0.4836 -0.1439
 5643TIP3    H138344   3.840   3.545   3.820 -1.4693 -1.6262 -0.6213
 5643TIP3    H238345   3.792   3.607   3.690  0.1534  1.1459  0.0065
 5644TIP3   OH238346   3.031   4.949   6.557 -0.0166 -0.3802  0.0814
 5644TIP3    H138347   3.095   5.012   6.522  0.5536 -0.9438  0.0948
 5644TIP3    H238348   3.069   4.863   6.539 -1.3106 -0.7737 -0.9521
 5645TIP3   OH238349   2.893   4.221  16.969 -0.0893 -0.0188  0.4082
 5645TIP3    H138350   2.892   4.242  16.875  1.2204  1.3012  0.6554
 5645TIP3    H238351   2.818   4.163  16.981 -0.2822 -0.2189 -1.4568
 5646TIP3   OH238352   1.964   1.185  15.632 -0.5033 -0.4400 -0.1398
 5646TIP3    H138353   2.057   1.178  15.612 -0.9553  1.4126 -3.6774
 5646TIP3    H238354   1.958   1.260  15.691  0.1880 -0.5084  0.0291
 5647TIP3   OH238355   1.027   1.916  14.371 -0.3569  0.2212  0.4063
 5647TIP3    H138356   0.972   1.841  14.346  0.4663 -0.0799 -0.6092
 5647TIP3    H238357   1.116   1.881  14.367  0.0075  1.1524  0.3442
 5648TIP3   OH238358   1.338   6.435   4.796 -0.4927 -0.0617  0.7240
 5648TIP3    H138359   1.311   6.447   4.887  1.1333 -1.3961  1.4273
 5648TIP3    H238360   1.291   6.357   4.768 -0.4986 -0.0176  0.6116
 5649TIP3   OH238361   0.336   4.340  16.165 -0.1664  0.4755 -0.5756
 5649TIP3    H138362   0.381   4.279  16.106 -0.1125  0.3008 -0.3516
 5649TIP3    H238363   0.246   4.308  16.167  0.5581 -1.8141  2.3757
 5650TIP3   OH238364   2.819   1.916   2.602  0.2098 -0.0979 -0.8224
 5650TIP3    H138365   2.913   1.929   2.585  0.3127 -1.6945 -1.6603
 5650TIP3    H238366   2.816   1.854   2.675 -0.1797 -0.5293 -1.2010
 5651TIP3   OH238367   4.019   3.037  14.469  0.3364 -0.0683 -0.1211
 5651TIP3    H138368   4.063   3.120  14.489  1.0943 -0.7852  1.3362
 5651TIP3    H238369   3.947   3.032  14.531  0.7063 -0.8129  0.2545
 5652TIP3   OH238370   2.438   3.431  15.821 -0.2509 -0.0231 -0.0764
 5652TIP3    H138371   2.476   3.459  15.737  0.0300 -1.7208 -0.5581
 5652TIP3    H238372   2.348   3.406  15.799  0.2160 -1.7322 -0.1799
 5653TIP3   OH238373   1.218   3.284  14.024  0.5176 -0.3021 -0.2201
 5653TIP3    H138374   1.127   3.298  14.049  0.9455  0.0519  1.2407
 5653TIP3    H238375   1.225   3.321  13.936 -0.1722  1.8982  0.5901
 5654TIP3   OH238376   2.574   2.420   5.165 -0.8658 -0.3489 -0.0911
 5654TIP3    H138377   2.653   2.445   5.117 -1.9798 -0.5927 -2.1963
 5654TIP3    H238378   2.544   2.501   5.205  0.4064 -0.2441  0.7076
 5655TIP3   OH238379   2.560   0.703   4.521  0.0090  0.2918 -0.1541
 5655TIP3    H138380   2.547   0.643   4.595  0.3170  1.5552  0.9659
 5655TIP3    H238381   2.474   0.711   4.481 -0.2453 -0.1215  0.3004
 5656TIP3   OH238382   0.551   5.360   6.381 -0.1697  0.0959 -0.6818
 5656TIP3    H138383   0.506   5.304   6.445  1.5664  0.8956  1.3605
 5656TIP3    H238384   0.504   5.444   6.386 -0.8846 -0.2415 -1.5067
 5657TIP3   OH238385   4.026   3.655   3.609  0.3491  0.5030 -0.0916
 5657TIP3    H138386   3.959   3.683   3.546  2.3862  2.1813 -1.6992
 5657TIP3    H238387   4.031   3.727   3.672 -1.0868 -0.7954  1.6066
 5658TIP3   OH238388   1.638   1.325   5.093  0.0890  0.5098 -0.2159
 5658TIP3    H138389   1.679   1.336   5.180 -0.7759 -0.0012  0.2647
 5658TIP3    H238390   1.610   1.413   5.070 -1.7807  0.3178  1.1046
 5659TIP3   OH238391   4.712   6.465  10.417 -0.4491  0.0299  0.1951
 5659TIP3    H138392   4.620   6.473  10.444 -0.2573 -0.8023  1.1400
 5659TIP3    H238393   4.732   6.549  10.376 -0.8004  1.3804  2.6161
 5660TIP3   OH238394   6.508   2.082  10.830 -0.5384  0.3905 -0.3202
 5660TIP3    H138395   6.575   2.098  10.763  1.8710 -0.2300  1.7946
 5660TIP3    H238396   6.521   1.991  10.855 -0.6427  0.8800  1.6795
 5661TIP3   OH238397   5.328   4.169  13.342  0.3152  0.0971  0.0081
 5661TIP3    H138398   5.318   4.193  13.434  0.5434  1.0350 -0.1990
 5661TIP3    H238399   5.422   4.167  13.328  0.3551  3.2656 -0.9826
 5662TIP3   OH238400   1.142   3.450   5.526 -0.4243  0.1494 -0.1359
 5662TIP3    H138401   1.223   3.412   5.492 -1.1443 -1.4265 -0.2093
 5662TIP3    H238402   1.162   3.542   5.538  0.6383  0.2991 -2.4423
 5663TIP3   OH238403   0.694   1.521  11.574  0.0075 -0.9778 -0.2027
 5663TIP3    H138404   0.738   1.584  11.517 -1.4319 -0.0924 -0.3825
 5663TIP3    H238405   0.681   1.444  11.518 -0.8972 -0.3150 -0.9514
 5664TIP3   OH238406   1.837   3.380  14.031  0.0372  0.1675 -0.3719
 5664TIP3    H138407   1.913   3.412  14.080  0.4329 -0.4517 -0.5608
 5664TIP3    H238408   1.763   3.390  14.091 -0.2695  3.3107 -1.0980
 5665TIP3   OH238409   1.677   3.193   5.075 -0.3319 -0.2057 -0.1783
 5665TIP3    H138410   1.688   3.117   5.018  1.5547 -0.9015  1.0040
 5665TIP3    H238411   1.693   3.159   5.163 -0.0887  1.4467  0.4524
 5666TIP3   OH238412   2.273   2.576  12.882 -0.6434  0.4035 -0.1551
 5666TIP3    H138413   2.196   2.530  12.916 -0.9087  1.7304  1.1642
 5666TIP3    H238414   2.257   2.668  12.904  0.8900  0.8334 -0.7207
 5667TIP3   OH238415   6.352   4.919  16.010  0.4625  0.5431 -0.0025
 5667TIP3    H138416   6.299   4.841  15.999  1.2509  0.2725 -2.5327
 5667TIP3    H238417   6.289   4.990  16.024 -0.4107 -0.1630 -0.2717
 5668TIP3   OH238418   0.436   3.677   2.458 -0.0125 -0.5595  0.0574
 5668TIP3    H138419   0.477   3.760   2.434  1.3745 -0.9253  1.0574
 5668TIP3    H238420   0.373   3.701   2.527 -0.0747 -0.2533 -0.1051
 5669TIP3   OH238421   0.061   3.254   6.082  0.2881 -0.3397 -0.0680
 5669TIP3    H138422   0.106   3.254   5.997 -0.2275  0.6881 -0.3531
 5669TIP3    H238423   0.004   3.177   6.078 -0.1772  0.0335 -0.9042
 5670TIP3   OH238424   4.829   6.641   2.919 -0.1666  0.2305  0.3002
 5670TIP3    H138425   4.777   6.574   2.964  1.7212 -2.1801 -0.9000
 5670TIP3    H238426   4.849   6.604   2.833  1.3418  2.1541 -0.2684
 5671TIP3   OH238427   6.082   2.991   5.797  0.8172 -0.1770 -0.0880
 5671TIP3    H138428   6.059   3.040   5.718  0.9397 -1.4558 -0.9470
 5671TIP3    H238429   6.024   2.915   5.795  1.2894 -0.5641  0.7106
 5672TIP3   OH238430   2.803   2.858   2.693 -0.4908 -0.1455 -0.6860
 5672TIP3    H138431   2.776   2.775   2.732  1.8026 -1.1162 -1.0270
 5672TIP3    H238432   2.878   2.886   2.745  0.4947  0.2853 -2.2790
 5673TIP3   OH238433   2.233   1.049   5.304  0.0730 -0.4871  0.2596
 5673TIP3    H138434   2.156   1.002   5.272  0.2174 -0.7569  0.3086
 5673TIP3    H238435   2.256   1.108   5.232  0.4550 -1.1656 -0.1866
 5674TIP3   OH238436   1.728   6.561  11.525 -0.9742 -0.6242  0.2221
 5674TIP3    H138437   1.761   6.650  11.509  0.3374 -1.1129  0.0297
 5674TIP3    H238438   1.682   6.567  11.609 -0.2019  0.0920  0.6177
 5675TIP3   OH238439   6.697   5.238  12.063  0.3906  0.3694 -0.1417
 5675TIP3    H138440   6.619   5.185  12.048  0.7340 -0.2793  0.3207
 5675TIP3    H238441   6.768   5.175  12.070  1.0713  0.9777 -1.1620
 5676TIP3   OH238442   6.067   6.689  11.686  0.0447  0.1333  0.8122
 5676TIP3    H138443   6.048   6.691  11.780  0.8723  0.5845  0.9776
 5676TIP3    H238444   6.066   6.596  11.664 -0.3036  0.0337  1.2359
 5677TIP3   OH238445   6.508   0.225  11.682  0.3353  0.4091  0.2190
 5677TIP3    H138446   6.505   0.132  11.664  0.1469  0.5585 -0.5439
 5677TIP3    H238447   6.598   0.251  11.661 -0.1254  0.7546 -1.4294
 5678TIP3   OH238448   6.293   4.439  16.443 -0.2409 -0.1029 -0.0536
 5678TIP3    H138449   6.202   4.444  16.416 -0.4820 -0.1531  0.7249
 5678TIP3    H238450   6.342   4.428  16.361 -1.0148 -1.1972 -0.3985
 5679TIP3   OH238451   3.634   3.194  17.328  0.4478 -0.1443  0.4325
 5679TIP3    H138452   3.645   3.113  17.377 -2.0331 -1.4966 -1.0643
 5679TIP3    H238453   3.719   3.210  17.287  0.8983 -2.2007  0.4912
 5680TIP3   OH238454   1.270   6.222  11.191 -0.3942 -0.0383  0.3124
 5680TIP3    H138455   1.203   6.204  11.125 -0.8416 -0.6370  0.9140
 5680TIP3    H238456   1.310   6.136  11.209  1.5647  0.4947 -1.0824
 5681TIP3   OH238457   1.085   2.469  12.712 -0.5497  0.6560  0.1556
 5681TIP3    H138458   1.090   2.418  12.631 -0.0355  0.6744  0.1742
 5681TIP3    H238459   1.158   2.437  12.765 -1.7780 -0.4717  1.2543
 5682TIP3   OH238460   6.243   0.412   1.739  0.2745 -0.3359  0.1843
 5682TIP3    H138461   6.185   0.336   1.739  0.0525 -0.1712 -0.2478
 5682TIP3    H238462   6.198   0.477   1.684  0.8264 -0.1782 -0.0921
 5683TIP3   OH238463   1.220   6.235   0.276  0.2353  0.3702  0.8668
 5683TIP3    H138464   1.240   6.329   0.277  0.7595  0.3132 -0.9365
 5683TIP3    H238465   1.306   6.193   0.275  0.1196  0.0004 -2.1949
 5684TIP3   OH238466   2.888   2.300   5.853  0.0345 -0.4393  0.3123
 5684TIP3    H138467   2.933   2.250   5.785 -1.4589 -0.4694 -0.7121
 5684TIP3    H238468   2.919   2.390   5.842  0.2523 -0.5530 -0.0172
 5685TIP3   OH238469   6.007   0.101   3.010  0.1932  0.0885  0.3011
 5685TIP3    H138470   6.028   0.007   3.016 -1.8270 -0.4126  0.3897
 5685TIP3    H238471   5.966   0.121   3.094 -3.5081 -0.1577 -1.2367
 5686TIP3   OH238472   3.331   4.110   1.331 -0.1668  0.1618  0.1076
 5686TIP3    H138473   3.236   4.119   1.329 -0.3570 -1.4817 -0.4087
 5686TIP3    H238474   3.345   4.016   1.346  1.3671  0.2344 -0.7378
 5687TIP3   OH238475   3.607   5.328   0.125  0.4693 -0.3589 -0.0255
 5687TIP3    H138476   3.515   5.327   0.150  0.8381 -1.3919  1.3985
 5687TIP3    H238477   3.643   5.246   0.160  1.8570 -0.1391 -0.8482
 5688TIP3   OH238478   3.228   3.417  12.335 -0.0183  0.3676 -0.4456
 5688TIP3    H138479   3.282   3.424  12.413 -1.0676  1.6293  0.2029
 5688TIP3    H238480   3.227   3.506  12.298 -2.3703  0.6363  0.1002
 5689TIP3   OH238481   2.618   6.697  14.585 -0.2906 -0.0006  0.2972
 5689TIP3    H138482   2.555   6.694  14.513 -0.0374 -1.8288  0.0822
 5689TIP3    H238483   2.599   6.618  14.637  1.5002 -0.3810  0.4691
 5690TIP3   OH238484   0.737   0.203  16.298  0.6889 -0.0069 -0.0971
 5690TIP3    H138485   0.678   0.277  16.314 -0.3716 -1.0679  1.1665
 5690TIP3    H238486   0.823   0.234  16.327 -0.0799  0.1500  2.2533
 5691TIP3   OH238487   4.233   1.257  11.421  1.3100 -0.2312 -0.3431
 5691TIP3    H138488   4.176   1.328  11.392  0.9821 -0.0920  0.6015
 5691TIP3    H238489   4.197   1.179  11.380  0.1365 -0.2124  0.6015
 5692TIP3   OH238490   6.338   4.278   2.833 -0.0533 -0.3655 -0.2971
 5692TIP3    H138491   6.252   4.309   2.805  0.6035 -0.0105 -2.0559
 5692TIP3    H238492   6.319   4.202   2.889 -1.5982  1.5937  2.0651
 5693TIP3   OH238493   2.531   0.511  15.797 -0.0752 -0.0396 -0.2102
 5693TIP3    H138494   2.490   0.482  15.716 -0.4251  1.6511 -0.6823
 5693TIP3    H238495   2.622   0.479  15.790 -0.1748 -0.1649 -1.1365
 5694TIP3   OH238496   0.590   5.666   2.549 -0.0984  0.5164  1.0131
 5694TIP3    H138497   0.641   5.745   2.526 -1.7838  1.1369 -0.9085
 5694TIP3    H238498   0.653   5.595   2.543  0.5976  1.2355 -1.4748
 5695TIP3   OH238499   6.348   0.136   2.265 -0.3783  0.2813  0.1224
 5695TIP3    H138500   6.419   0.083   2.300 -0.2423  0.0775 -0.4503
 5695TIP3    H238501   6.360   0.222   2.305  0.7725  0.5331 -0.7139
 5696TIP3   OH238502   2.627   3.569  14.801 -0.1191  0.0608  0.2614
 5696TIP3    H138503   2.634   3.520  14.882  1.6930  0.0787  0.1660
 5696TIP3    H238504   2.643   3.505  14.732 -0.5691  0.2487 -0.0217
 5697TIP3   OH238505   5.588   5.371   3.215 -0.3055  0.5346  0.2056
 5697TIP3    H138506   5.647   5.325   3.155 -0.4128  0.6527  0.0055
 5697TIP3    H238507   5.644   5.434   3.260 -0.1947  0.3397  0.3433
 5698TIP3   OH238508   1.797   3.446  12.131  0.1615  0.1463 -0.7537
 5698TIP3    H138509   1.820   3.367  12.083  0.0447  0.9172 -2.1338
 5698TIP3    H238510   1.702   3.440  12.141  0.3566 -0.7832  0.8332
 5699TIP3   OH238511   5.527   0.691   3.739 -0.0603  0.2869 -0.1714
 5699TIP3    H138512   5.509   0.706   3.832  1.5186 -1.4275  0.4757
 5699TIP3    H238513   5.484   0.764   3.694 -0.8431  1.1730  1.8907
 5700TIP3   OH238514   3.898   6.193  14.831 -0.8796  0.5673 -0.1978
 5700TIP3    H138515   3.862   6.107  14.807 -1.1432  0.2232  1.3386
 5700TIP3    H238516   3.836   6.255  14.792 -1.3321  0.0455 -0.3353
 5701TIP3   OH238517   1.802   0.976  13.847 -0.2482  0.0557 -0.0396
 5701TIP3    H138518   1.802   1.060  13.802 -1.8264  0.0046 -0.1959
 5701TIP3    H238519   1.809   0.999  13.940  0.4810  0.2935 -0.1502
 5702TIP3   OH238520   1.930   3.732   1.387 -0.0916  0.0113  0.1833
 5702TIP3    H138521   1.906   3.644   1.415 -0.3638  0.6048  1.9423
 5702TIP3    H238522   1.908   3.788   1.461 -0.7972  1.7178 -1.2274
 5703TIP3   OH238523   5.621   6.429   3.480  0.4139 -0.1595  0.5281
 5703TIP3    H138524   5.540   6.461   3.520 -1.3222 -1.4105 -1.7609
 5703TIP3    H238525   5.640   6.493   3.411 -1.7398 -2.4845 -2.4771
 5704TIP3   OH238526   4.800   1.664   1.155 -0.1293  0.2673  0.6832
 5704TIP3    H138527   4.764   1.580   1.184 -0.4358  0.2029  0.1334
 5704TIP3    H238528   4.769   1.727   1.219 -0.3314  0.0444  0.8071
 5705TIP3   OH238529   4.691   2.377  15.332 -0.0696  0.3413 -0.2608
 5705TIP3    H138530   4.727   2.315  15.395 -1.0140  0.3375  0.3023
 5705TIP3    H238531   4.605   2.341  15.309 -0.8680  1.6647  0.4752
 5706TIP3   OH238532   6.568   2.817  12.946 -0.1972  0.0277  0.2477
 5706TIP3    H138533   6.522   2.777  12.872 -1.5890  0.3657  0.8954
 5706TIP3    H238534   6.600   2.742  12.998  1.1549 -0.2132 -0.8757
 5707TIP3   OH238535   2.947   5.508   3.118  0.2629  0.2704  0.1141
 5707TIP3    H138536   2.950   5.570   3.191 -0.7530  1.3901 -0.7518
 5707TIP3    H238537   3.039   5.487   3.100  0.5519  0.5068  1.2598
 5708TIP3   OH238538   5.087   2.428  15.190 -0.5159 -0.1753  0.2749
 5708TIP3    H138539   5.033   2.418  15.268  0.2483 -0.8578  0.7305
 5708TIP3    H238540   5.075   2.345  15.143 -0.2285 -0.1386  0.1372
 5709TIP3   OH238541   2.648   0.809  14.741 -0.3791 -0.3507  0.1930
 5709TIP3    H138542   2.563   0.845  14.717 -1.3790 -1.0872  2.2956
 5709TIP3    H238543   2.639   0.714  14.728  1.0539 -0.2504 -2.0319
 5710TIP3   OH238544   3.844   4.344  13.812 -0.2549  0.4547  0.4268
 5710TIP3    H138545   3.816   4.261  13.774 -2.2174  1.3314 -0.1265
 5710TIP3    H238546   3.887   4.390  13.740 -2.6691  1.4997 -0.4497
 5711TIP3   OH238547   0.830   3.264   4.796  0.2853  0.2885  0.2905
 5711TIP3    H138548   0.755   3.279   4.739 -1.2442 -1.1855  1.7807
 5711TIP3    H238549   0.891   3.334   4.775 -2.2058  2.5494  0.1115
 5712TIP3   OH238550   4.809   0.413   0.754 -0.1858  0.5750  0.0282
 5712TIP3    H138551   4.842   0.414   0.664  0.7555  1.3922  0.3594
 5712TIP3    H238552   4.860   0.345   0.798  0.3090  1.0984  0.2728
 5713TIP3   OH238553   2.459   2.640  14.286 -0.6550  0.0346 -0.0642
 5713TIP3    H138554   2.452   2.723  14.239  1.4917  0.4893  0.2943
 5713TIP3    H238555   2.501   2.663  14.369 -0.9529 -1.2829  0.4837
 5714TIP3   OH238556   0.430   4.392   0.315  0.2985  0.2239  0.1855
 5714TIP3    H138557   0.446   4.398   0.409  0.2484  0.1983  0.1952
 5714TIP3    H238558   0.518   4.399   0.276  0.3145  0.2782  0.2317
 5715TIP3   OH238559   2.038   4.564  14.301 -0.3001 -0.0764  0.4131
 5715TIP3    H138560   2.061   4.473  14.321 -1.1796 -0.6841 -1.1511
 5715TIP3    H238561   2.119   4.613  14.312  0.2281 -1.0837  1.0938
 5716TIP3   OH238562   5.474   4.820   3.873 -0.9626  0.7989 -0.0139
 5716TIP3    H138563   5.411   4.747   3.877 -1.4158  1.0710 -1.4820
 5716TIP3    H238564   5.476   4.844   3.781  0.6813  1.3667  0.1368
 5717TIP3   OH238565   4.628   4.781  12.206 -0.1005  0.3871  0.6287
 5717TIP3    H138566   4.658   4.800  12.295  1.2341  0.9069  0.0972
 5717TIP3    H238567   4.706   4.752  12.160 -0.7685  0.1480 -0.3907
 5718TIP3   OH238568   1.505   0.070   4.777 -0.3291 -0.5730 -0.2245
 5718TIP3    H138569   1.482   0.001   4.840  0.2339 -0.4954  0.0748
 5718TIP3    H238570   1.529   0.145   4.831  0.7423 -0.6955 -0.5062
 5719TIP3   OH238571   2.112   5.505  12.246  0.2220 -0.1074  0.6501
 5719TIP3    H138572   2.165   5.471  12.174 -0.3456 -1.9163  1.0324
 5719TIP3    H238573   2.123   5.600  12.241  0.9427 -0.2448 -1.2311
 5720TIP3   OH238574   4.037   3.491  16.895 -0.5005  0.5600 -0.2008
 5720TIP3    H138575   3.974   3.438  16.845 -1.4584  0.7107  0.8063
 5720TIP3    H238576   4.025   3.580  16.862  0.6351  0.2920 -1.4204
 5721TIP3   OH238577   0.607   2.083  16.316 -0.3400  0.6150  0.0183
 5721TIP3    H138578   0.563   2.155  16.363 -0.5192  0.3727  0.2239
 5721TIP3    H238579   0.617   2.014  16.382 -2.1322 -0.4022 -0.7143
 5722TIP3   OH238580   2.836   3.834  10.924 -0.2357 -0.0630 -0.1497
 5722TIP3    H138581   2.822   3.748  10.964  1.5125 -0.7012 -0.8185
 5722TIP3    H238582   2.923   3.829  10.885 -0.2829  1.8659 -0.6295
 5723TIP3   OH238583   0.371   6.102   5.574 -0.5133 -0.4104  0.1951
 5723TIP3    H138584   0.404   6.022   5.534  1.6607 -0.6694  2.2503
 5723TIP3    H238585   0.343   6.076   5.662 -1.7390  0.7315  0.1754
 5724TIP3   OH238586   3.296   4.230   1.791  0.3688 -0.3045 -0.8612
 5724TIP3    H138587   3.364   4.166   1.813  0.7126  1.1660  3.4831
 5724TIP3    H238588   3.219   4.200   1.840 -0.6659  0.5426 -1.9179
 5725TIP3   OH238589   3.354   5.143  17.137 -0.4028  0.3328  0.1651
 5725TIP3    H138590   3.441   5.155  17.175 -0.2723 -1.6035  0.5797
 5725TIP3    H238591   3.310   5.081  17.195 -1.3436 -0.2590 -1.1133
 5726TIP3   OH238592   3.053   0.953   1.765  0.4776 -0.3131  0.0586
 5726TIP3    H138593   3.143   0.983   1.778  0.4120 -0.0698 -0.0402
 5726TIP3    H238594   3.027   0.919   1.850  1.1380 -1.6836 -0.2570
 5727TIP3   OH238595   5.953   5.029  12.911  0.1895  0.0587 -0.6904
 5727TIP3    H138596   5.866   4.997  12.888 -0.2005  0.0287  0.7185
 5727TIP3    H238597   5.941   5.122  12.927  0.6517  0.2746 -1.5152
 5728TIP3   OH238598   6.667   4.931  11.985 -0.5918 -0.1861  0.0935
 5728TIP3    H138599   6.663   4.883  11.902 -0.2930  0.4519 -0.2992
 5728TIP3    H238600   6.595   4.993  11.981 -1.8883 -1.5268  1.2240
 5729TIP3   OH238601   1.213   6.707  13.235  0.1809  0.8389  0.1791
 5729TIP3    H138602   1.303   6.730  13.210  0.7377  0.8159  1.9876
 5729TIP3    H238603   1.204   6.743  13.324 -2.2241  2.4307 -0.6204
 5730TIP3   OH238604   1.032   3.815   4.147  0.0534  0.0140  0.2686
 5730TIP3    H138605   1.056   3.853   4.232  1.0197  0.5088 -0.2097
 5730TIP3    H238606   0.937   3.806   4.151 -0.2442  2.4775  0.4398
 5731TIP3   OH238607   2.192   5.672  14.518 -0.1693  0.1258 -0.2563
 5731TIP3    H138608   2.222   5.689  14.429  0.2923 -3.5864 -0.9856
 5731TIP3    H238609   2.096   5.677  14.513 -0.1018  1.2072 -0.6189
 5732TIP3   OH238610   6.737   6.182   4.063  0.3925 -0.4581 -0.0172
 5732TIP3    H138611   6.770   6.095   4.086 -0.7260 -0.3354  2.4239
 5732TIP3    H238612   6.787   6.242   4.118  0.4909  0.3628 -0.9771
 5733TIP3   OH238613   1.926   2.198  15.584 -0.6774 -0.7372  0.2675
 5733TIP3    H138614   1.898   2.110  15.609 -0.3172 -0.4387  1.8232
 5733TIP3    H238615   1.850   2.235  15.538 -1.5422 -1.2035  1.2770
 5734TIP3   OH238616   4.055   5.472  15.963 -0.1308 -0.3593 -0.4047
 5734TIP3    H138617   4.078   5.392  15.916  1.3556 -0.0644 -0.2304
 5734TIP3    H238618   4.100   5.464  16.047 -0.1661  0.5391 -0.2857
 5735TIP3   OH238619   6.622   4.082   5.109  0.2508 -0.3360 -0.3785
 5735TIP3    H138620   6.552   4.041   5.059 -0.4917  0.9282 -0.4181
 5735TIP3    H238621   6.657   4.012   5.163 -1.2443 -0.9336 -0.1437
 5736TIP3   OH238622   2.353   2.550  11.237  0.2545 -0.4750 -0.1064
 5736TIP3    H138623   2.301   2.607  11.180 -0.7916  0.1778  1.4342
 5736TIP3    H238624   2.325   2.461  11.215 -0.1313 -0.2368 -0.5953
 5737TIP3   OH238625   1.358   2.455   4.933  0.0467 -0.8991  0.0729
 5737TIP3    H138626   1.420   2.520   4.900 -0.0731 -0.4109  0.7936
 5737TIP3    H238627   1.338   2.401   4.857 -0.2150  0.1970 -0.6632
 5738TIP3   OH238628   2.649   4.109  14.919 -0.1591 -0.0491  0.3679
 5738TIP3    H138629   2.650   4.025  14.874 -0.0125  0.2093 -0.1233
 5738TIP3    H238630   2.587   4.097  14.991 -0.4670 -0.4441  0.0438
 5739TIP3   OH238631   4.688   6.219  13.085 -0.2069  0.2949 -0.2266
 5739TIP3    H138632   4.772   6.197  13.044  0.0708 -1.1336  1.0073
 5739TIP3    H238633   4.655   6.135  13.118 -0.5461  1.2788  2.1628
 5740TIP3   OH238634   1.262   0.432   5.380  0.1125  0.2121 -0.6083
 5740TIP3    H138635   1.279   0.472   5.465  0.0797 -0.8846 -0.0645
 5740TIP3    H238636   1.306   0.489   5.317  3.4310 -0.8989  0.4526
 5741TIP3   OH238637   0.043   1.551  14.354 -0.1697 -0.0242 -0.8378
 5741TIP3    H138638  -0.037   1.506  14.381 -0.8334  1.6314  0.1170
 5741TIP3    H238639   0.057   1.618  14.422  3.4271 -1.8247  0.4562
 5742TIP3   OH238640   4.112   6.635  13.845 -0.0184  0.1806  0.6239
 5742TIP3    H138641   4.040   6.572  13.843 -0.1467  0.2962  1.3579
 5742TIP3    H238642   4.125   6.659  13.753 -0.1743 -0.6760  0.3759
 5743TIP3   OH238643   0.951   6.542   2.468  0.0070 -0.4909 -1.0115
 5743TIP3    H138644   0.961   6.618   2.410 -2.1670 -0.7144 -1.7972
 5743TIP3    H238645   1.040   6.512   2.484  0.8992  1.7704 -1.2631
 5744TIP3   OH238646   2.330   1.485  14.971  0.6959 -0.4099  0.5255
 5744TIP3    H138647   2.341   1.577  14.995  0.0149 -0.4777  1.1398
 5744TIP3    H238648   2.235   1.471  14.974  0.5241 -0.4057 -2.3843
 5745TIP3   OH238649   2.279   4.689   4.451 -0.0149  0.4492  0.1134
 5745TIP3    H138650   2.200   4.638   4.432 -0.8090  1.9523 -0.7751
 5745TIP3    H238651   2.300   4.733   4.369  1.4375  0.5321  0.4987
 5746TIP3   OH238652   2.688   4.611  11.527  0.5984  0.1286 -0.4196
 5746TIP3    H138653   2.676   4.697  11.566  0.2675  0.1582 -0.5833
 5746TIP3    H238654   2.740   4.562  11.592  0.7192  0.4234 -0.2935
 5747TIP3   OH238655   6.327   5.605  14.119 -0.0953 -0.5754 -0.2497
 5747TIP3    H138656   6.358   5.693  14.102 -0.4124 -0.6230 -1.1590
 5747TIP3    H238657   6.369   5.579  14.200  0.6596  0.0969 -0.4191
 5748TIP3   OH238658   4.133   6.096  14.770  0.1112 -0.1548  0.4903
 5748TIP3    H138659   4.052   6.141  14.793  0.1403  1.1022 -1.5536
 5748TIP3    H238660   4.193   6.118  14.841 -0.7228  0.7132  0.9539
 5749TIP3   OH238661   4.842   1.944   5.349  0.5646 -0.4445 -0.2483
 5749TIP3    H138662   4.764   1.982   5.308  1.3369  0.7667 -0.6539
 5749TIP3    H238663   4.870   2.010   5.412  0.8456 -1.1996  0.4298
 5750TIP3   OH238664   2.948   1.722   3.452  0.7212 -0.6224  0.3363
 5750TIP3    H138665   2.888   1.789   3.487 -0.2250 -1.3654  0.1830
 5750TIP3    H238666   3.030   1.736   3.500  0.0295 -0.4001  1.5074
 5751TIP3   OH238667   2.757   4.610   5.970  0.0859 -0.4721 -0.1759
 5751TIP3    H138668   2.800   4.694   5.958 -0.5223  0.0301  0.9746
 5751TIP3    H238669   2.768   4.565   5.886  1.4141  0.2785 -0.4318
 5752TIP3   OH238670   0.456   2.674   2.532  0.2192  0.3650 -0.5207
 5752TIP3    H138671   0.518   2.617   2.577 -0.7059 -0.6663 -0.5259
 5752TIP3    H238672   0.453   2.641   2.443 -0.6053  0.1666 -0.4266
 5753TIP3   OH238673   6.688   4.053   3.286  0.2476 -0.0398  0.3083
 5753TIP3    H138674   6.700   4.064   3.381  0.8821 -1.8742  0.4700
 5753TIP3    H238675   6.772   4.019   3.255 -0.3036 -0.4773 -0.7479
 5754TIP3   OH238676   2.475   1.977   2.379 -0.1387  0.1620  0.2292
 5754TIP3    H138677   2.491   2.060   2.425 -0.2846  0.5820 -0.4646
 5754TIP3    H238678   2.418   2.001   2.306 -0.4083 -0.6037  0.1820
 5755TIP3   OH238679   1.042   6.408   4.454  0.0302  0.1938 -0.4342
 5755TIP3    H138680   1.067   6.320   4.425 -2.5350 -0.6206 -0.4638
 5755TIP3    H238681   0.998   6.394   4.538 -1.2211  1.3059 -0.8720
 5756TIP3   OH238682   2.304   5.736   3.087  0.4024  0.2330  0.1242
 5756TIP3    H138683   2.258   5.756   3.006 -0.6860 -0.1312  0.6409
 5756TIP3    H238684   2.296   5.641   3.096  0.2102  0.3172  0.8439
 5757TIP3   OH238685   4.544   1.305  12.715 -0.1643 -0.2756 -0.2388
 5757TIP3    H138686   4.505   1.229  12.671  1.4138 -0.2489 -1.8258
 5757TIP3    H238687   4.572   1.271  12.800 -3.0330 -0.4069  0.7528
 5758TIP3   OH238688   2.713   6.015   1.065  0.3479 -0.2785 -0.5146
 5758TIP3    H138689   2.678   5.951   1.004 -0.2010 -1.8482  1.3646
 5758TIP3    H238690   2.636   6.057   1.103  0.6182 -0.4243  0.2188
 5759TIP3   OH238691   4.913   3.490  17.035  0.0186  0.0018  0.6477
 5759TIP3    H138692   4.932   3.583  17.047  0.2465 -0.1734  1.6749
 5759TIP3    H238693   4.845   3.488  16.967  1.8260  0.7756 -1.2781
 5760TIP3   OH238694   0.583   0.049   3.540 -0.0856 -0.4490  0.7712
 5760TIP3    H138695   0.646  -0.022   3.555  2.4928  1.3910 -0.5573
 5760TIP3    H238696   0.512   0.032   3.602  1.8417 -2.5074  2.5723
 5761TIP3   OH238697   4.735   1.400   4.898  0.2744  0.8399  0.2771
 5761TIP3    H138698   4.768   1.395   4.808 -0.0012 -1.7695  0.2446
 5761TIP3    H238699   4.814   1.414   4.951  0.9664 -1.1592 -0.1387
 5762TIP3   OH238700   6.556   2.021  14.180  0.0591 -0.3096 -0.1154
 5762TIP3    H138701   6.493   2.062  14.239  1.1206  1.6046 -0.2535
 5762TIP3    H238702   6.540   2.062  14.095  0.2743 -1.1818 -0.5939
 5763TIP3   OH238703   6.504   5.170   3.753 -0.3307  0.2292  0.4949
 5763TIP3    H138704   6.518   5.099   3.691  0.3761  1.0285 -0.3101
 5763TIP3    H238705   6.434   5.140   3.810 -1.4483 -0.2826 -1.0906
 5764TIP3   OH238706   3.071   2.653  16.557 -0.0837 -0.3379 -0.4812
 5764TIP3    H138707   3.056   2.644  16.463  1.5295 -0.3469 -0.7712
 5764TIP3    H238708   3.128   2.729  16.565 -1.6292  0.7494  0.6715
 5765TIP3   OH238709   0.282   2.247  13.479  0.1626 -0.2430  0.0454
 5765TIP3    H138710   0.331   2.213  13.554  0.3306  1.4054  0.7173
 5765TIP3    H238711   0.323   2.204  13.403  1.1235 -0.6446  0.7632
 5766TIP3   OH238712   2.302   3.996  14.991  0.0431  0.0046 -0.3118
 5766TIP3    H138713   2.272   3.915  15.033 -1.2971 -0.1879 -1.5218
 5766TIP3    H238714   2.259   3.995  14.905  0.9385  1.4354 -0.8155
 5767TIP3   OH238715   0.723   3.190  10.920  0.6962  0.1110  0.1543
 5767TIP3    H138716   0.782   3.199  10.995  0.6601 -2.1743  0.5269
 5767TIP3    H238717   0.775   3.144  10.855  0.2134  0.6640 -0.6383
 5768TIP3   OH238718   0.942   6.054  11.288  0.1874  0.9737  0.2383
 5768TIP3    H138719   0.968   5.986  11.226 -0.3814  1.7879 -0.9249
 5768TIP3    H238720   1.016   6.061  11.349  1.7788  1.7236 -1.6870
 5769TIP3   OH238721   6.385   4.428   4.343  0.1192 -0.1450 -0.6006
 5769TIP3    H138722   6.423   4.514   4.323  0.3254  0.0858  0.6406
 5769TIP3    H238723   6.460   4.369   4.351  0.3926  0.4217  2.3687
 5770TIP3   OH238724   3.357   0.221  14.858 -0.3062 -0.4373 -0.4944
 5770TIP3    H138725   3.419   0.154  14.888 -1.3495 -0.9586  0.5797
 5770TIP3    H238726   3.272   0.179  14.865 -1.0952  1.2978  1.1768
 5771TIP3   OH238727   2.982   0.959  15.248  0.0436  0.2346  0.3220
 5771TIP3    H138728   2.966   0.885  15.190  0.2213  0.2816  0.2152
 5771TIP3    H238729   2.900   0.968  15.298  0.5295 -0.9777  1.4075
 5772TIP3   OH238730   1.333   6.126  13.987  0.2772  0.6816  0.0698
 5772TIP3    H138731   1.355   6.060  14.053  2.2625  0.4510 -0.7520
 5772TIP3    H238732   1.345   6.210  14.031 -0.8478  0.5391  0.6940
 5773TIP3   OH238733   6.079   0.632  15.707  0.0434  0.5782 -0.4166
 5773TIP3    H138734   6.018   0.643  15.780  1.4364  0.7287  0.7787
 5773TIP3    H238735   6.034   0.572  15.647 -1.6131  1.3564 -0.0117
 5774TIP3   OH238736   0.515   5.953   0.457 -0.4968  1.1809  0.2208
 5774TIP3    H138737   0.465   5.933   0.378 -1.6361  1.7544  0.7807
 5774TIP3    H238738   0.480   6.037   0.487  1.3631  2.0191  0.1921
 5775TIP3   OH238739   4.582   0.492   1.250 -0.2742 -0.0497  0.0906
 5775TIP3    H138740   4.522   0.535   1.189  0.1622  0.4731  0.0140
 5775TIP3    H238741   4.654   0.462   1.195  0.3772  0.8915  0.3927
 5776TIP3   OH238742   5.965   6.046   5.825 -0.1286  0.1383 -0.3397
 5776TIP3    H138743   5.883   6.082   5.789 -0.3823 -0.9833 -0.8941
 5776TIP3    H238744   6.024   6.040   5.751  1.0493  2.3882  0.3048
 5777TIP3   OH238745   2.270   5.827  12.983 -0.0293 -0.2612 -0.1684
 5777TIP3    H138746   2.293   5.893  13.049  0.1897 -0.8310  0.3361
 5777TIP3    H238747   2.323   5.751  13.007 -0.2040 -0.5854 -0.8079
 5778TIP3   OH238748   2.006   6.746  13.682 -0.2003 -0.5749 -0.2465
 5778TIP3    H138749   2.028   6.834  13.652 -2.5042  1.3664  3.1594
 5778TIP3    H238750   1.919   6.729  13.646  0.2860 -1.5961 -1.0016
 5779TIP3   OH238751   5.344   1.589  14.380 -0.1808 -0.1003 -0.3949
 5779TIP3    H138752   5.278   1.615  14.445  0.2528 -0.4095  0.1711
 5779TIP3    H238753   5.399   1.525  14.425 -0.2725 -0.8265 -1.2718
 5780TIP3   OH238754   0.126   1.191  14.926 -0.3481  0.3734 -0.0941
 5780TIP3    H138755   0.166   1.158  15.006  2.1069 -0.9366 -1.7093
 5780TIP3    H238756   0.032   1.186  14.942  0.0557  0.0316  2.6083
 5781TIP3   OH238757   3.528   1.713  14.420 -0.1232  0.8791  0.4934
 5781TIP3    H138758   3.453   1.766  14.450  0.5842  3.8078 -2.3904
 5781TIP3    H238759   3.490   1.648  14.361 -0.4602  2.7984 -1.5142
 5782TIP3   OH238760   5.292   1.664   3.663  0.5970  0.4096 -0.2174
 5782TIP3    H138761   5.282   1.759   3.658  0.8352  0.7212  3.1735
 5782TIP3    H238762   5.386   1.651   3.677  0.2744 -0.0830  1.7742
 5783TIP3   OH238763   1.627   0.865   5.474  0.0702  0.0469 -0.0459
 5783TIP3    H138764   1.604   0.937   5.415 -0.3767 -0.5657 -0.6398
 5783TIP3    H238765   1.542   0.827   5.498  0.2750  0.0317  0.6610
 5784TIP3   OH238766   6.401   1.861   1.436  0.1320  0.2360  0.0039
 5784TIP3    H138767   6.366   1.950   1.445  2.5865  1.6077 -2.5199
 5784TIP3    H238768   6.424   1.836   1.526 -1.9419  1.4769  0.9684
 5785TIP3   OH238769   1.482   1.939   3.325  0.7589 -0.0893  0.9662
 5785TIP3    H138770   1.488   1.981   3.411  0.9577 -1.5504  1.6992
 5785TIP3    H238771   1.471   1.846   3.344  0.4342 -0.4039 -0.5979
 5786TIP3   OH238772   5.929   6.402   3.301 -0.2751  0.2016  0.1786
 5786TIP3    H138773   6.018   6.422   3.273 -0.5996  1.1744 -0.1867
 5786TIP3    H238774   5.899   6.335   3.239 -0.8151  1.9959 -1.5998
 5787TIP3   OH238775   0.112   4.239   1.850 -0.7922  0.4058 -0.2461
 5787TIP3    H138776   0.059   4.262   1.926 -1.2296 -0.9351 -0.1186
 5787TIP3    H238777   0.109   4.143   1.847  0.4519  0.3766 -1.0780
 5788TIP3   OH238778   3.607   2.254   2.578  0.2906  0.3417 -0.3540
 5788TIP3    H138779   3.603   2.162   2.552 -0.1897  0.6632 -1.4731
 5788TIP3    H238780   3.645   2.298   2.502  0.4140  1.0824  0.1343
 5789TIP3   OH238781   4.932   5.589  15.629 -0.1484  0.0488 -0.0696
 5789TIP3    H138782   4.876   5.665  15.619  1.7958  1.5864  0.1926
 5789TIP3    H238783   4.942   5.554  15.540 -2.3162 -0.9449  0.0023
 5790TIP3   OH238784   5.884   0.481   2.172  0.1779  0.2181 -0.1604
 5790TIP3    H138785   5.937   0.542   2.120  0.2507 -0.2124 -0.6005
 5790TIP3    H238786   5.796   0.487   2.135  0.1700  0.1069 -0.1606
 5791TIP3   OH238787   1.769   3.389   5.812  0.2304 -0.2415  0.3081
 5791TIP3    H138788   1.806   3.452   5.874 -1.1579  1.2423 -0.2963
 5791TIP3    H238789   1.841   3.328   5.793  1.0406  0.0033  2.3935
 5792TIP3   OH238790   0.311   4.366   2.151  0.3521 -0.0965  0.7231
 5792TIP3    H138791   0.302   4.441   2.209 -0.0578  0.7006 -0.3384
 5792TIP3    H238792   0.226   4.359   2.106  1.1926  0.4144 -1.0596
 5793TIP3   OH238793   1.180   2.691   3.387  0.2763  0.2353  0.3778
 5793TIP3    H138794   1.256   2.724   3.339 -0.5745  1.7032 -0.0119
 5793TIP3    H238795   1.145   2.622   3.331 -0.2381  1.3909 -0.7767
 5794TIP3   OH238796   2.242   4.411   1.080  0.4890  0.9289  0.0826
 5794TIP3    H138797   2.160   4.412   1.030  0.8153  1.1943 -0.4602
 5794TIP3    H238798   2.300   4.355   1.029 -0.0756 -1.2827  1.6864
 5795TIP3   OH238799   1.082   4.240   2.386  0.0016  0.4049  0.1428
 5795TIP3    H138800   1.143   4.235   2.312  0.6586  0.2451  0.6875
 5795TIP3    H238801   1.056   4.149   2.402 -1.1366  0.5489 -0.6821
 5796TIP3   OH238802   6.709   2.647   0.487 -0.6020 -0.1914  0.3398
 5796TIP3    H138803   6.800   2.630   0.461 -1.6705 -1.4387 -3.1134
 5796TIP3    H238804   6.674   2.561   0.508 -1.2513  0.1365  0.6287
 5797TIP3   OH238805   5.334   5.215   2.200  0.4656  0.3465  0.7718
 5797TIP3    H138806   5.311   5.124   2.180 -0.0117  0.5152  0.5147
 5797TIP3    H238807   5.275   5.267   2.145  1.3790  0.8121  0.2064
 5798TIP3   OH238808   1.913   0.235   2.126 -0.2572  0.0319 -0.9573
 5798TIP3    H138809   1.896   0.260   2.217  0.0695 -0.2115 -0.8260
 5798TIP3    H238810   1.917   0.318   2.079 -2.7258  0.0819 -1.1875
 5799TIP3   OH238811   6.038   0.823  12.245 -0.7338  0.0687 -0.1785
 5799TIP3    H138812   6.019   0.824  12.339  0.9700 -0.0247  0.1977
 5799TIP3    H238813   6.116   0.769  12.237  0.0773  1.3559 -1.4574
 5800TIP3   OH238814   2.666   0.796   1.077 -0.0252 -0.3245  0.4409
 5800TIP3    H138815   2.663   0.715   1.026  1.1194 -0.3475  0.3877
 5800TIP3    H238816   2.625   0.773   1.160 -0.3041 -0.7726  0.1864
 5801TIP3   OH238817   6.026   2.511  16.010 -0.1505 -0.5751 -0.3842
 5801TIP3    H138818   6.102   2.518  16.068 -0.2283 -1.4645 -0.1670
 5801TIP3    H238819   6.057   2.458  15.937  0.0734  0.8793 -1.3924
 5802TIP3   OH238820   4.217   5.580  12.210 -0.4527  0.3635  0.0008
 5802TIP3    H138821   4.191   5.651  12.268 -0.4351  0.3434  0.0334
 5802TIP3    H238822   4.137   5.556  12.163 -0.3386  0.7907 -0.4241
 5803TIP3   OH238823   1.067   6.665   1.255 -0.2123 -0.1845  0.1749
 5803TIP3    H138824   0.972   6.660   1.266 -0.1937 -0.6824  0.1227
 5803TIP3    H238825   1.079   6.710   1.171 -0.4399 -1.8280 -0.7778
 5804TIP3   OH238826   0.659   0.949  15.252 -0.1349  0.3097 -0.0015
 5804TIP3    H138827   0.647   0.875  15.192  0.5778  0.0568  0.1606
 5804TIP3    H238828   0.606   1.019  15.214 -0.1760 -0.0397 -0.6011
 5805TIP3   OH238829   2.259   0.844  12.623  0.3177  0.3263 -0.2171
 5805TIP3    H138830   2.275   0.750  12.628 -1.0305  0.0333 -1.0662
 5805TIP3    H238831   2.189   0.861  12.685  2.6953  1.3656  2.3842
 5806TIP3   OH238832   6.135   4.370   4.860 -0.1450  0.0804  0.2042
 5806TIP3    H138833   6.165   4.397   4.773 -1.0452 -0.1326 -0.1810
 5806TIP3    H238834   6.043   4.395   4.862 -1.3030 -3.5365 -0.4656
 5807TIP3   OH238835   0.841   6.197   3.591  0.3563  0.2388  0.7042
 5807TIP3    H138836   0.780   6.254   3.639 -0.2960  0.8738 -0.8137
 5807TIP3    H238837   0.899   6.258   3.545 -0.2405 -0.2759 -0.8049
 5808TIP3   OH238838   5.288   4.215   4.991 -0.2104  0.1368  0.0829
 5808TIP3    H138839   5.245   4.300   5.000 -0.9742 -0.2516  0.1898
 5808TIP3    H238840   5.310   4.189   5.081  1.1482  0.7682 -0.0365
 5809TIP3   OH238841   6.216   6.244  11.786  0.9868  0.0107 -0.1135
 5809TIP3    H138842   6.183   6.174  11.729  1.7472 -0.2886 -0.1998
 5809TIP3    H238843   6.266   6.198  11.853  0.5629  0.4022  0.4780
 5810TIP3   OH238844   2.575   1.972  13.282  0.1651 -0.1571 -0.3348
 5810TIP3    H138845   2.580   2.041  13.348 -0.3745  0.2624 -0.7254
 5810TIP3    H238846   2.550   2.018  13.201  1.8748 -0.4827 -1.0971
 5811TIP3   OH238847   2.626   2.802  14.985  0.0431  0.1146 -0.3039
 5811TIP3    H138848   2.545   2.853  14.995 -1.6305 -2.4371 -0.1054
 5811TIP3    H238849   2.675   2.819  15.065  0.7094  3.2064 -1.2358
 5812TIP3   OH238850   5.700   4.139   6.656 -0.1131 -0.0268  0.5414
 5812TIP3    H138851   5.711   4.211   6.593 -0.4154 -0.5781 -0.1654
 5812TIP3    H238852   5.612   4.150   6.690  0.3621  0.7813  1.5354
 5813TIP3   OH238853   4.390   4.200  15.726 -0.1539  0.6101 -0.6592
 5813TIP3    H138854   4.457   4.131  15.726 -0.5555  0.2200 -0.6059
 5813TIP3    H238855   4.316   4.162  15.681 -1.0573  0.3357  0.9742
 5814TIP3   OH238856   1.727   1.057  14.527 -0.3950 -0.0196  0.1413
 5814TIP3    H138857   1.685   0.976  14.498 -0.9188 -0.2495  1.4436
 5814TIP3    H238858   1.718   1.055  14.623  1.8432  0.3454  0.3941
 5815TIP3   OH238859   0.583   2.847  11.612  0.6394  0.3093 -0.2656
 5815TIP3    H138860   0.590   2.765  11.563  0.5649 -0.2236  0.6002
 5815TIP3    H238861   0.490   2.868  11.612  0.7243  0.7227 -1.0007
 5816TIP3   OH238862   2.590   3.858   3.069  0.0496  0.0912 -0.3870
 5816TIP3    H138863   2.573   3.952   3.062  0.4428  0.0945 -1.4054
 5816TIP3    H238864   2.519   3.818   3.018 -0.5940 -0.2183  0.7218
 5817TIP3   OH238865   3.740   3.845  11.279  0.2084  0.6500  0.3259
 5817TIP3    H138866   3.758   3.931  11.317 -1.1025  1.5219 -0.9319
 5817TIP3    H238867   3.653   3.854  11.239  0.0588 -1.2532  0.1373
 5818TIP3   OH238868   0.540   6.672   0.151 -0.4103 -0.0216  0.5407
 5818TIP3    H138869   0.543   6.760   0.114  2.0484 -0.5374 -0.7199
 5818TIP3    H238870   0.490   6.682   0.232 -1.0266  2.3121 -0.0369
 5819TIP3   OH238871   0.447   0.002  16.159  0.1985  0.0759  0.0317
 5819TIP3    H138872   0.513  -0.041  16.105 -1.3906 -0.8630 -1.2718
 5819TIP3    H238873   0.478  -0.010  16.249  0.3913 -2.9603 -0.3195
 5820TIP3   OH238874   3.364   3.707   4.326 -0.3819 -0.2553  0.3255
 5820TIP3    H138875   3.410   3.746   4.251  0.4120  0.9183  1.3813
 5820TIP3    H238876   3.430   3.702   4.395 -1.1950 -0.9691  1.0748
 5821TIP3   OH238877   0.109   6.346   3.036 -0.5481  0.6950  0.3990
 5821TIP3    H138878   0.197   6.377   3.054 -0.1807  0.4439 -0.8714
 5821TIP3    H238879   0.078   6.311   3.120  0.5176  0.8527  0.8775
 5822TIP3   OH238880   6.438   2.211  11.773 -0.1322  0.1656  0.3946
 5822TIP3    H138881   6.363   2.153  11.759  0.7087 -1.1960  1.2445
 5822TIP3    H238882   6.443   2.264  11.694  0.1814 -2.2496 -1.3204
 5823TIP3   OH238883   3.309   3.291   3.923  0.3244 -1.2284  0.3366
 5823TIP3    H138884   3.232   3.345   3.937  0.3529 -1.3141  0.8633
 5823TIP3    H238885   3.380   3.353   3.908  0.1418 -1.1516 -0.2412
 5824TIP3   OH238886   3.694   5.566  14.902 -0.1963  0.1994 -0.3985
 5824TIP3    H138887   3.736   5.653  14.902 -0.5778  0.4768  2.1829
 5824TIP3    H238888   3.618   5.576  14.845 -1.1699  2.1329  1.1177
 5825TIP3   OH238889   3.999   6.083  16.222  0.3765 -0.4432 -0.0865
 5825TIP3    H138890   4.002   6.137  16.143  0.9456 -1.5528 -0.8436
 5825TIP3    H238891   3.911   6.045  16.223 -0.0961  0.6124  0.5548
 5826TIP3   OH238892   5.376   6.595  15.466  0.1806  0.7918  0.3013
 5826TIP3    H138893   5.341   6.542  15.537  0.4339 -0.2204 -0.3118
 5826TIP3    H238894   5.443   6.540  15.425  2.3406  2.5297  1.2604
 5827TIP3   OH238895   2.943   4.402   3.081  0.3018  0.2301 -0.0771
 5827TIP3    H138896   3.010   4.468   3.096 -0.3094  1.1715 -1.3729
 5827TIP3    H238897   2.955   4.375   2.990 -0.3327 -0.4518  0.0312
 5828TIP3   OH238898   5.717   0.534  15.439  0.2843  0.0167  0.0553
 5828TIP3    H138899   5.678   0.484  15.511 -1.1662  1.0699  0.0372
 5828TIP3    H238900   5.699   0.625  15.460 -0.2136  0.3467 -1.6481
 5829TIP3   OH238901   3.777   2.833  12.600  0.2374 -0.2289  0.4259
 5829TIP3    H138902   3.829   2.805  12.524 -1.6856  1.1840 -1.5385
 5829TIP3    H238903   3.837   2.887  12.651  0.8041  1.2737 -1.6932
 5830TIP3   OH238904   3.830   3.639   0.772  0.3543  0.1825  0.5216
 5830TIP3    H138905   3.822   3.593   0.689 -0.0593 -0.3668  0.8618
 5830TIP3    H238906   3.787   3.582   0.836  1.1242  0.3497  1.2044
 5831TIP3   OH238907   2.175   0.704   1.987  0.8515 -0.2277 -0.1012
 5831TIP3    H138908   2.190   0.796   1.965  0.9654  0.0449  1.0617
 5831TIP3    H238909   2.200   0.656   1.908  0.2194  0.7773 -0.9352
 5832TIP3   OH238910   3.874   4.559  15.392 -0.0924 -0.0083 -0.5921
 5832TIP3    H138911   3.961   4.535  15.359 -0.4122 -1.9967 -0.0833
 5832TIP3    H238912   3.885   4.561  15.487 -0.8399 -1.4280 -0.4499
 5833TIP3   OH238913   6.416   5.706   1.971 -0.0059  0.2239 -0.7013
 5833TIP3    H138914   6.468   5.765   1.916 -0.2626  0.2030 -0.9698
 5833TIP3    H238915   6.385   5.761   2.042 -0.7567  0.5685 -1.2825
 5834TIP3   OH238916   2.253   3.749  11.553 -0.3935 -0.2464 -0.5749
 5834TIP3    H138917   2.277   3.827  11.503 -0.4296  0.1088 -0.0417
 5834TIP3    H238918   2.296   3.760  11.638 -0.7764 -0.5850 -0.3317
 5835TIP3   OH238919   3.422   2.441   6.416  0.0479 -0.4460  0.4246
 5835TIP3    H138920   3.377   2.410   6.495 -0.8904  0.7341  0.3955
 5835TIP3    H238921   3.451   2.530   6.438 -0.8661  0.1854 -0.7742
 5836TIP3   OH238922   1.710   4.187   3.378 -0.2566 -0.3487 -1.1910
 5836TIP3    H138923   1.781   4.251   3.381 -0.3044 -0.2795  2.8110
 5836TIP3    H238924   1.720   4.135   3.457 -2.5069 -2.8135 -2.3777
 5837TIP3   OH238925   3.705   0.772   0.079  0.4434  0.1393 -0.3619
 5837TIP3    H138926   3.674   0.718   0.151  0.6358 -1.1028 -1.1773
 5837TIP3    H238927   3.655   0.853   0.086 -0.7798 -0.6391  0.1404
 5838TIP3   OH238928   3.072   1.168   0.672  0.2635  0.4489  0.2071
 5838TIP3    H138929   3.154   1.199   0.634  0.7211 -1.7344 -0.7683
 5838TIP3    H238930   3.007   1.234   0.648  1.4165  1.3869 -0.4250
 5839TIP3   OH238931   4.293   0.834  14.324 -0.3700 -0.8671 -0.4206
 5839TIP3    H138932   4.242   0.753  14.315  0.3492 -1.3304 -0.3871
 5839TIP3    H238933   4.266   0.869  14.409  0.6486 -2.0329  0.4167
 5840TIP3   OH238934   6.482   3.343   6.417 -0.1641  0.6344 -0.0591
 5840TIP3    H138935   6.431   3.271   6.380 -1.5283  0.4642  2.0345
 5840TIP3    H238936   6.570   3.330   6.381 -1.3772  0.7349 -3.5205
 5841TIP3   OH238937   4.209   6.570  14.357  0.5573  0.0544 -0.2351
 5841TIP3    H138938   4.250   6.533  14.279  0.5373 -1.1772  0.3099
 5841TIP3    H238939   4.274   6.561  14.426 -0.4006 -1.4869  0.5265
 5842TIP3   OH238940   0.434   2.357  10.838 -0.0874  0.0910  0.0182
 5842TIP3    H138941   0.395   2.270  10.854 -0.4799  0.1205 -0.7392
 5842TIP3    H238942   0.367   2.419  10.867  0.9425  0.1833  2.4039
 5843TIP3   OH238943   2.833   2.075   3.112 -0.5326  0.4396  0.3012
 5843TIP3    H138944   2.925   2.078   3.139 -0.6922  0.0200  0.9033
 5843TIP3    H238945   2.784   2.107   3.188 -0.9586 -0.4198  0.4045
 5844TIP3   OH238946   0.186   3.742  15.549  0.2081 -0.0845 -0.3472
 5844TIP3    H138947   0.176   3.837  15.558 -0.3371 -0.1379 -0.3662
 5844TIP3    H238948   0.281   3.728  15.556  0.3752  0.5436 -1.1856
 5845TIP3   OH238949   3.450   4.991  16.467 -0.2433  0.4044 -0.1070
 5845TIP3    H138950   3.382   4.970  16.404 -0.8011  2.2186 -0.1397
 5845TIP3    H238951   3.471   5.083  16.451  1.9423  0.0087  0.1629
 5846TIP3   OH238952   6.536   2.795  12.435 -0.4745 -0.2279 -0.4821
 5846TIP3    H138953   6.453   2.792  12.387 -0.5709 -0.3047 -0.3065
 5846TIP3    H238954   6.590   2.856  12.383 -1.3747  1.5527  0.5652
 5847TIP3   OH238955   0.820   3.720   2.275 -0.2431  0.5184  0.4678
 5847TIP3    H138956   0.811   3.632   2.237 -0.9827  1.1907 -0.9870
 5847TIP3    H238957   0.914   3.733   2.282 -0.1145 -0.1418  0.0630
 5848TIP3   OH238958   1.384   0.295  16.327 -0.0842 -0.6653  0.5730
 5848TIP3    H138959   1.290   0.310  16.334  0.1288  1.1949 -0.0243
 5848TIP3    H238960   1.423   0.382  16.335  1.6197 -1.4257  1.0777
 5849TIP3   OH238961   3.851   5.797  11.802 -0.1268  0.1675 -0.3004
 5849TIP3    H138962   3.765   5.838  11.797 -1.0309 -1.4656  0.8302
 5849TIP3    H238963   3.836   5.706  11.774  0.9718 -0.4648  1.0212
 5850TIP3   OH238964   4.800   0.188   4.312 -0.2161 -0.6123 -0.2442
 5850TIP3    H138965   4.870   0.165   4.251 -0.3223  1.3788 -1.2103
 5850TIP3    H238966   4.835   0.166   4.398  0.6714 -1.7672 -0.8668
 5851TIP3   OH238967   3.714   5.373  16.019 -0.4246  0.2464 -0.1218
 5851TIP3    H138968   3.738   5.439  16.083 -0.9616  1.1521 -0.8363
 5851TIP3    H238969   3.794   5.321  16.007  0.2117  1.1985 -0.0639
 5852TIP3   OH238970   6.556   0.493  11.819  0.1937 -0.1464 -0.1528
 5852TIP3    H138971   6.485   0.503  11.755 -0.4154 -0.7822  0.4088
 5852TIP3    H238972   6.628   0.455  11.770  1.3291  3.3207 -1.5177
 5853TIP3   OH238973   0.609   4.857  16.451 -0.1794  0.4674  0.5358
 5853TIP3    H138974   0.627   4.907  16.531  0.3135  1.9486 -0.4715
 5853TIP3    H238975   0.638   4.913  16.380 -0.1334 -1.0369 -0.6906
 5854TIP3   OH238976   3.132   5.854   1.417  0.1065 -0.1404 -0.2873
 5854TIP3    H138977   3.094   5.835   1.331 -0.7607  0.8601 -0.1567
 5854TIP3    H238978   3.061   5.836   1.478  0.4049  0.0882  0.1262
 5855TIP3   OH238979   6.449   6.356  17.118 -0.0412 -0.7588 -0.3723
 5855TIP3    H138980   6.534   6.334  17.080 -0.0607  0.0135 -0.8808
 5855TIP3    H238981   6.471   6.401  17.200  0.0184 -1.1970 -0.1418
 5856TIP3   OH238982   1.611   5.845   3.481 -0.1288  0.2301 -0.8620
 5856TIP3    H138983   1.699   5.881   3.468 -0.1571  0.8117  0.4490
 5856TIP3    H238984   1.614   5.805   3.568 -0.6322 -1.4106 -1.5508
 5857TIP3   OH238985   4.070   5.611  16.929  0.2968  0.7883 -0.3489
 5857TIP3    H138986   4.072   5.573  16.841  1.9429 -0.5638  0.2318
 5857TIP3    H238987   4.143   5.674  16.929  1.3568 -0.3950  0.5118
 5858TIP3   OH238988   0.438   0.720  13.886 -0.1163 -0.7714 -0.0035
 5858TIP3    H138989   0.351   0.680  13.889 -0.5491  0.2062  1.0141
 5858TIP3    H238990   0.423   0.809  13.855  0.7419 -1.0800 -1.4419
 5859TIP3   OH238991   4.972   6.396  12.378  0.2827  0.1259 -0.1943
 5859TIP3    H138992   4.941   6.340  12.449  0.2022  0.5320  0.0923
 5859TIP3    H238993   4.996   6.334  12.308 -0.0927 -0.2481  0.0011
 5860TIP3   OH238994   6.557   3.608  15.447  0.2328 -0.3325  0.1393
 5860TIP3    H138995   6.611   3.578  15.520 -0.2103 -1.9768 -0.1812
 5860TIP3    H238996   6.475   3.558  15.455 -1.1672  1.8632  0.4353
 5861TIP3   OH238997   2.922   5.049  12.188  0.5266 -0.4281  0.4690
 5861TIP3    H138998   2.845   5.037  12.131  0.7353  1.3134 -0.2251
 5861TIP3    H238999   2.885   5.071  12.273  0.2350  0.3501  0.1499
 5862TIP3   OH239000   0.432   2.433  16.219 -0.2788 -0.3950 -0.0903
 5862TIP3    H139001   0.420   2.515  16.267 -1.7871  0.1485 -1.3140
 5862TIP3    H239002   0.471   2.374  16.283  0.4991  1.1435  0.9354
 5863TIP3   OH239003   4.102   3.775   1.613  0.0970 -0.0765 -0.4860
 5863TIP3    H139004   4.115   3.870   1.623 -0.5297 -0.1179  1.0209
 5863TIP3    H239005   4.041   3.768   1.540  0.1636  0.6905 -0.6311
 5864TIP3   OH239006   6.568   4.058  13.291 -0.2649 -0.7891  0.2689
 5864TIP3    H139007   6.487   4.109  13.285 -0.3221 -0.9455 -0.4111
 5864TIP3    H239008   6.633   4.121  13.323 -0.9621 -1.0374  2.2710
 5865TIP3   OH239009   4.477   6.577   3.630  0.7817 -0.3511 -0.5839
 5865TIP3    H139010   4.447   6.634   3.700  1.0295 -1.2997  0.3146
 5865TIP3    H239011   4.571   6.593   3.624  0.5488  0.7637 -1.6844
 5866TIP3   OH239012   0.676   3.454  12.494  0.5173  0.6448  0.0742
 5866TIP3    H139013   0.621   3.469  12.571  0.6244  1.7740 -0.0615
 5866TIP3    H239014   0.651   3.523  12.433 -0.1878 -0.7275 -1.2749
 5867TIP3   OH239015   3.800   6.587  11.531  0.1724  0.1488 -0.9287
 5867TIP3    H139016   3.793   6.492  11.520  2.7756 -0.2463  0.1743
 5867TIP3    H239017   3.775   6.603  11.622 -2.3486  0.8922 -1.6545
 5868TIP3   OH239018   1.134   0.678   5.866 -0.2022 -0.5039 -0.3323
 5868TIP3    H139019   1.055   0.666   5.812 -0.5008  0.1958 -0.0622
 5868TIP3    H239020   1.192   0.730   5.811 -0.1007 -0.6489 -0.3634
 5869TIP3   OH239021   2.650   2.185   1.700  0.6560 -0.5166 -0.0684
 5869TIP3    H139022   2.620   2.146   1.618 -4.3110  0.3448  1.0415
 5869TIP3    H239023   2.651   2.113   1.763  1.3525 -0.5746 -0.1288
 5870TIP3   OH239024   5.311   2.555   1.514  0.8132 -0.2229  0.1353
 5870TIP3    H139025   5.399   2.591   1.503  1.0883 -1.0458 -0.5103
 5870TIP3    H239026   5.272   2.559   1.427 -0.1298  0.9405  0.5854
 5871TIP3   OH239027   0.290   1.584   6.006 -0.2321  0.2240 -0.1067
 5871TIP3    H139028   0.337   1.554   5.928 -0.6036  1.6576 -0.9205
 5871TIP3    H239029   0.322   1.672   6.022 -3.5495  1.9114 -1.6133
 5872TIP3   OH239030   4.393   5.568   2.755 -0.1324  0.7857 -0.2895
 5872TIP3    H139031   4.306   5.571   2.716 -0.2946 -1.0591 -0.1497
 5872TIP3    H239032   4.387   5.499   2.821  0.7241  2.3870  1.5591
 5873TIP3   OH239033   2.013   0.754  10.895  0.7988  0.0082  0.4526
 5873TIP3    H139034   2.052   0.698  10.828 -1.1245  0.1554 -0.8489
 5873TIP3    H239035   1.973   0.692  10.957  0.9553 -0.0939  0.4526
 5874TIP3   OH239036   6.332   6.370   2.463 -0.2141  0.0447  0.2529
 5874TIP3    H139037   6.282   6.451   2.473 -0.8995 -0.3420  0.0208
 5874TIP3    H239038   6.423   6.398   2.458 -0.5602  0.9586 -1.7018
 5875TIP3   OH239039   1.037   0.887  15.477  0.0017 -0.1499  0.3744
 5875TIP3    H139040   0.969   0.945  15.443 -0.0671 -0.5835 -0.2672
 5875TIP3    H239041   1.002   0.853  15.559  0.0260  0.6721  0.7317
 5876TIP3   OH239042   1.416   1.401  13.974  0.3862  0.3773  0.2394
 5876TIP3    H139043   1.406   1.446  13.890  2.1317  1.5935  0.6381
 5876TIP3    H239044   1.342   1.433  14.026  0.2041  0.8792 -0.3027
 5877TIP3   OH239045   6.656   1.622   2.412  0.1185 -0.3335 -0.1996
 5877TIP3    H139046   6.562   1.607   2.418  0.1693 -0.8307 -0.5670
 5877TIP3    H239047   6.664   1.707   2.369 -0.1687  0.4335  1.2072
 5878TIP3   OH239048   3.943   0.992  12.236 -0.1108  0.2180  1.0685
 5878TIP3    H139049   4.019   0.950  12.197 -0.0931  1.2505 -0.1035
 5878TIP3    H239050   3.962   1.086  12.231 -2.4592  0.6974 -1.6626
 5879TIP3   OH239051   0.713   3.388  15.211 -0.1843 -0.4237  0.0334
 5879TIP3    H139052   0.737   3.297  15.196 -1.2355 -0.3692 -2.5987
 5879TIP3    H239053   0.706   3.396  15.306  2.4632 -2.3626  0.5091
 5880TIP3   OH239054   0.516   4.463  11.703  0.2785  0.0948 -0.6852
 5880TIP3    H139055   0.450   4.531  11.715  0.6389  0.6734 -1.7878
 5880TIP3    H239056   0.539   4.436  11.791  0.3290  1.6107 -0.1995
 5881TIP3   OH239057   2.359   5.216  14.086 -0.4373 -0.9094 -0.3249
 5881TIP3    H139058   2.397   5.274  14.020  1.7655 -2.0049 -0.0953
 5881TIP3    H239059   2.373   5.128  14.053  1.7502 -1.5641  2.0026
 5882TIP3   OH239060   6.450   3.670   1.077  0.4790  0.1336 -0.6829
 5882TIP3    H139061   6.438   3.758   1.113 -0.5039 -0.2835  0.0350
 5882TIP3    H239062   6.543   3.652   1.090  0.7383  1.1382 -1.0218
 5883TIP3   OH239063   0.833   0.925   1.513  0.3676  0.5954  0.1458
 5883TIP3    H139064   0.907   0.983   1.532  3.5552 -2.2901 -2.2343
 5883TIP3    H239065   0.818   0.935   1.419 -2.0860  0.7293  0.4655
 5884TIP3   OH239066   5.921   4.178   4.122 -0.3708 -0.3196 -0.2535
 5884TIP3    H139067   5.997   4.188   4.064 -0.5324  2.0995 -0.1553
 5884TIP3    H239068   5.849   4.220   4.075 -1.6821 -2.4710 -0.2879
 5885TIP3   OH239069   4.006   5.293   2.662  0.0444 -0.6921  0.0509
 5885TIP3    H139070   4.062   5.220   2.634  2.0616  1.3519 -1.7088
 5885TIP3    H239071   4.009   5.354   2.588 -0.2297  1.8641  2.0245
 5886TIP3   OH239072   6.371   5.831   1.635  0.4142  0.2381 -0.1901
 5886TIP3    H139073   6.372   5.927   1.629  0.8915  0.3307  1.1055
 5886TIP3    H239074   6.458   5.808   1.666  0.4003 -0.6471 -0.7933
 5887TIP3   OH239075   0.018   1.553  14.048 -0.3945  0.5664 -0.1805
 5887TIP3    H139076   0.100   1.589  14.082 -0.3341  1.7420 -1.4992
 5887TIP3    H239077  -0.050   1.614  14.076 -0.5770  0.5667 -0.6067
 5888TIP3   OH239078   0.793   1.786   3.634  0.3592 -0.0597 -0.2393
 5888TIP3    H139079   0.724   1.847   3.658  0.1977 -0.9084  1.6103
 5888TIP3    H239080   0.836   1.827   3.559 -0.1040  2.0193  0.5664
 5889TIP3   OH239081   1.616   6.142  14.722 -0.1909  0.5106 -0.0126
 5889TIP3    H139082   1.653   6.219  14.678 -1.4419 -0.0418 -2.1481
 5889TIP3    H239083   1.626   6.161  14.816  2.0471  2.0032 -0.4744
 5890TIP3   OH239084   0.528   0.455  14.117  0.9254  0.1440  0.1836
 5890TIP3    H139085   0.552   0.532  14.064  2.7132 -0.2633  0.3269
 5890TIP3    H239086   0.495   0.492  14.199  0.6926  0.7653 -0.1857
 5891TIP3   OH239087   0.228   2.070  16.784  0.1601  0.3420 -0.7237
 5891TIP3    H139088   0.268   1.985  16.802 -0.7607  0.2096  0.9910
 5891TIP3    H239089   0.166   2.053  16.713  1.8903  0.2142 -2.2833
 5892TIP3   OH239090   0.429   1.385  12.977  0.1830 -0.0205 -0.3754
 5892TIP3    H139091   0.440   1.367  12.884  0.3630  0.2188 -0.4001
 5892TIP3    H239092   0.467   1.309  13.021 -1.2215 -0.8346 -0.5107
 5893TIP3   OH239093   5.765   5.040  11.741 -0.2773 -0.0414  0.1307
 5893TIP3    H139094   5.751   5.035  11.647 -1.5865 -0.0435  0.3051
 5893TIP3    H239095   5.854   5.074  11.750  1.0967 -2.9115 -1.0920
 5894TIP3   OH239096   1.330   2.390  15.620  0.1212 -0.1675  0.5178
 5894TIP3    H139097   1.242   2.366  15.591 -0.0698  1.8300 -0.7058
 5894TIP3    H239098   1.317   2.464  15.679  1.0178  1.2144 -0.9293
 5895TIP3   OH239099   3.085   2.730   1.821  0.0970 -0.1041  0.3283
 5895TIP3    H139100   3.066   2.798   1.886 -0.0155 -0.4786  0.6901
 5895TIP3    H239101   3.179   2.737   1.806  0.3351 -0.8101  1.4339
 5896TIP3   OH239102   1.873   3.262   2.837  0.0453  0.0804 -0.0196
 5896TIP3    H139103   1.794   3.307   2.806 -0.2550  0.3949  1.1636
 5896TIP3    H239104   1.942   3.328   2.832  0.3223 -0.2856 -1.3569
 5897TIP3   OH239105   3.731   5.576   0.221  0.4817 -0.5311  0.2094
 5897TIP3    H139106   3.668   5.505   0.211 -0.0088 -0.3049  1.5098
 5897TIP3    H239107   3.803   5.553   0.162 -0.0323 -1.6745  0.0057
 5898TIP3   OH239108   1.469   4.950   2.330 -0.9051 -0.5010 -0.3859
 5898TIP3    H139109   1.478   4.916   2.419  0.3685 -2.8165 -1.3345
 5898TIP3    H239110   1.424   4.881   2.282  0.1112 -0.1103 -1.9789
 5899TIP3   OH239111   1.174   2.286   0.580  0.2179 -0.0548 -0.6047
 5899TIP3    H139112   1.094   2.234   0.593 -0.2686  0.3783 -1.7841
 5899TIP3    H239113   1.144   2.367   0.540  1.0807  0.8081  0.4349
 5900TIP3   OH239114   3.955   4.951   3.301  0.2581  0.5431 -0.2620
 5900TIP3    H139115   3.879   5.007   3.317 -0.6076 -0.5235 -0.5465
 5900TIP3    H239116   4.011   4.965   3.378 -1.0160  0.0738  0.8003
 5901TIP3   OH239117   0.348   5.982   0.889  0.0583  0.9984  0.1361
 5901TIP3    H139118   0.316   6.044   0.824  0.0555 -0.0024 -0.8371
 5901TIP3    H239119   0.321   6.019   0.973 -0.0399  2.2500 -0.4273
 5902TIP3   OH239120   0.593   3.927   5.197 -0.2418 -0.4187  0.0609
 5902TIP3    H139121   0.539   3.921   5.118  0.0928 -0.6613 -0.1522
 5902TIP3    H239122   0.638   4.011   5.189 -0.8168 -0.0714  0.3909
 5903TIP3   OH239123   0.791   1.246  14.197  0.3433  0.0540 -0.2456
 5903TIP3    H139124   0.761   1.157  14.183  1.0360 -0.3999  1.0036
 5903TIP3    H239125   0.743   1.276  14.274 -0.6550  1.1508 -1.2609
 5904TIP3   OH239126   2.252   5.775  15.710  0.1859  0.0064 -0.1833
 5904TIP3    H139127   2.206   5.692  15.725 -1.3738  0.5663 -1.4630
 5904TIP3    H239128   2.188   5.828  15.662  0.9941  2.1016  0.9295
 5905TIP3   OH239129   1.336   0.437   2.724  0.0928  0.3701 -0.2492
 5905TIP3    H139130   1.251   0.429   2.768  0.6361 -1.7580  0.5457
 5905TIP3    H239131   1.398   0.453   2.795  0.5898  0.0193 -0.6002
 5906TIP3   OH239132   4.307   1.057   2.625  0.5881 -0.0356  0.7522
 5906TIP3    H139133   4.285   1.064   2.532  2.3638 -0.5137  0.2660
 5906TIP3    H239134   4.225   1.077   2.670  0.0419  1.6375 -0.8682
 5907TIP3   OH239135   1.239   6.376  11.415 -0.4674  0.4236  0.1610
 5907TIP3    H139136   1.260   6.327  11.335 -1.1158 -1.1619  0.9261
 5907TIP3    H239137   1.150   6.408  11.401 -0.2353  0.9596 -0.1238
 5908TIP3   OH239138   4.463   6.393   3.857  0.4286  0.2463 -0.3258
 5908TIP3    H139139   4.367   6.395   3.849  0.2669 -0.1685  1.2764
 5908TIP3    H239140   4.493   6.453   3.789 -0.9451  0.0605 -1.1492
 5909TIP3   OH239141   3.909   5.053  11.740  0.4284  0.1935 -0.3915
 5909TIP3    H139142   3.886   5.052  11.833 -0.5116  0.7947 -0.6091
 5909TIP3    H239143   3.996   5.012  11.736  0.2427 -0.3279  0.6826
 5910TIP3   OH239144   2.348   5.488  16.820  0.0976  0.1586 -0.0286
 5910TIP3    H139145   2.365   5.484  16.726 -1.6729 -0.7309 -0.3631
 5910TIP3    H239146   2.257   5.517  16.827 -0.7588 -2.4664  1.2418
 5911TIP3   OH239147   4.858   5.779   4.701  0.2532  0.2779 -0.0105
 5911TIP3    H139148   4.848   5.693   4.659 -0.3901  0.7090 -0.7718
 5911TIP3    H239149   4.902   5.760   4.784  1.3949 -0.6331 -0.7833
 5912TIP3   OH239150   2.953   5.170   0.816 -0.1268 -0.6082 -0.5222
 5912TIP3    H139151   2.881   5.233   0.822  0.2278 -0.1212 -1.2103
 5912TIP3    H239152   2.929   5.113   0.743  0.1231 -0.5278 -0.6670
 5913TIP3   OH239153   5.998   3.580   3.355  0.5125 -0.4416 -0.8305
 5913TIP3    H139154   6.069   3.545   3.409  0.2486 -0.9868 -0.8287
 5913TIP3    H239155   6.040   3.649   3.303  0.5880  0.6626  0.6501
 5914TIP3   OH239156   4.304   6.157   3.411 -0.2313  0.4391 -0.4909
 5914TIP3    H139157   4.297   6.069   3.448 -1.7448  0.7720  0.1197
 5914TIP3    H239158   4.398   6.172   3.400  0.0661 -1.0911 -0.2377
 5915TIP3   OH239159   3.187   5.264  12.762 -0.6260 -0.7276  0.0776
 5915TIP3    H139160   3.234   5.277  12.679 -1.3027 -0.3115 -0.2512
 5915TIP3    H239161   3.139   5.181  12.749 -1.9681  0.1026 -0.5715
 5916TIP3   OH239162   6.320   3.471   1.720 -0.5495 -0.2925  0.2944
 5916TIP3    H139163   6.362   3.445   1.638 -1.5268  0.5380 -0.4997
 5916TIP3    H239164   6.358   3.413   1.786  1.2352 -0.1018 -0.5134
 5917TIP3   OH239165   3.369   5.685   5.550  0.3241 -0.6432 -0.3077
 5917TIP3    H139166   3.383   5.607   5.497  1.5971 -2.1005  2.0058
 5917TIP3    H239167   3.402   5.757   5.496  1.4761 -2.0217 -1.5311
 5918TIP3   OH239168   4.195   3.413  14.027  0.2178 -0.0926  0.4241
 5918TIP3    H139169   4.232   3.429  14.113  2.1432 -1.6403 -0.0384
 5918TIP3    H239170   4.243   3.472  13.969  0.3387 -0.4583  0.1463
 5919TIP3   OH239171   6.014   2.282   1.629 -0.8317 -0.5734 -0.2996
 5919TIP3    H139172   6.051   2.363   1.594  0.2152 -1.0524 -0.3609
 5919TIP3    H239173   6.013   2.295   1.724 -0.9973 -0.3469 -0.3337
 5920TIP3   OH239174   0.041   3.504   1.526 -0.2942 -0.0340 -0.0030
 5920TIP3    H139175  -0.050   3.524   1.503 -1.2382 -0.9264  2.5930
 5920TIP3    H239176   0.034   3.435   1.591  2.3661 -1.2561 -0.8979
 5921TIP3   OH239177   0.392   5.597   2.909 -0.5772  0.3328  0.3155
 5921TIP3    H139178   0.360   5.559   2.828  0.1616 -0.9821  0.6161
 5921TIP3    H239179   0.346   5.550   2.978  0.7488 -0.4564  0.7054
 5922TIP3   OH239180   5.112   4.132  15.775  0.2045  0.7102  0.2441
 5922TIP3    H139181   5.034   4.112  15.826 -1.1390 -1.4745 -2.4052
 5922TIP3    H239182   5.122   4.227  15.782 -2.1331  0.9248  1.4106
 5923TIP3   OH239183   5.263   1.284  12.351 -0.3761  0.6696 -0.5750
 5923TIP3    H139184   5.338   1.342  12.334  1.2348 -1.5511 -1.5297
 5923TIP3    H239185   5.214   1.283  12.269 -0.3744  0.6543 -0.5758
 5924TIP3   OH239186   1.905   4.650  12.053  0.4407 -0.6852  0.5375
 5924TIP3    H139187   1.852   4.601  12.116  0.4064  0.2007  1.2264
 5924TIP3    H239188   1.861   4.638  11.969 -1.1842  0.4665  1.1772
 5925TIP3   OH239189   4.374   1.938   0.007  0.2793 -0.5153  0.5436
 5925TIP3    H139190   4.348   1.953  -0.084  0.1233 -3.3267  0.0294
 5925TIP3    H239191   4.433   1.863   0.003 -0.2533 -1.1431  2.8227
 5926TIP3   OH239192   1.825   0.495  12.062 -0.1331  0.5582  0.2358
 5926TIP3    H139193   1.902   0.474  12.115 -0.7543 -1.7999  0.3064
 5926TIP3    H239194   1.857   0.491  11.972  0.0304  0.6057  0.2902
 5927TIP3   OH239195   1.440   4.700  11.681 -0.0611 -0.4705  0.2847
 5927TIP3    H139196   1.364   4.692  11.739 -2.3057  2.1801 -2.0102
 5927TIP3    H239197   1.488   4.775  11.716 -0.4005 -0.0073 -0.2502
 5928TIP3   OH239198   3.708   0.911  16.260 -0.0703 -0.0042  0.2098
 5928TIP3    H139199   3.756   0.984  16.298  1.0517 -1.2200  1.2352
 5928TIP3    H239200   3.624   0.911  16.306  0.0558  0.4280  0.4458
 5929TIP3   OH239201   5.087   1.339  15.698  0.0108 -0.0473 -0.4659
 5929TIP3    H139202   5.134   1.261  15.728 -2.2591 -0.5774  2.0572
 5929TIP3    H239203   5.038   1.309  15.621  0.6425 -0.5438 -0.6921
 5930TIP3   OH239204   1.164   1.565  14.401 -0.6413  0.1764  0.0761
 5930TIP3    H139205   1.083   1.614  14.418 -2.0777 -1.8697 -0.4836
 5930TIP3    H239206   1.219   1.582  14.478 -1.7536  1.2897  0.6678
 5931TIP3   OH239207   1.862   1.496   0.392 -0.3177 -0.6300 -0.0174
 5931TIP3    H139208   1.932   1.556   0.416 -1.8787  1.4124 -0.3408
 5931TIP3    H239209   1.850   1.441   0.469  1.2279 -0.6438  0.2445
 5932TIP3   OH239210   5.259   2.809  15.278 -0.6244 -0.9180  0.1620
 5932TIP3    H139211   5.213   2.749  15.220 -1.7923 -3.3703  3.3320
 5932TIP3    H239212   5.265   2.762  15.361 -0.8973  3.0286  2.6872
 5933TIP3   OH239213   1.712   0.192  14.191 -0.2416 -0.2166  0.8017
 5933TIP3    H139214   1.698   0.240  14.109 -1.2122 -0.3063  0.9026
 5933TIP3    H239215   1.807   0.180  14.196  0.0569  1.9139  0.9171
 5934TIP3   OH239216   4.091   4.407  11.436  0.0781  0.5151 -0.2281
 5934TIP3    H139217   4.111   4.432  11.345  0.9556  1.1369  0.1301
 5934TIP3    H239218   4.174   4.411  11.482 -0.0511 -1.4222  0.2649
 5935TIP3   OH239219   6.205   2.958  11.415 -0.0216 -0.5949 -0.0049
 5935TIP3    H139220   6.144   2.893  11.381  0.1250 -0.9273  0.3542
 5935TIP3    H239221   6.190   3.035  11.361 -1.5097 -0.3143  0.7476
 5936TIP3   OH239222   0.538   6.010   2.563  0.2041 -0.1490  0.3533
 5936TIP3    H139223   0.595   5.948   2.608  1.5650  1.7858  1.4787
 5936TIP3    H239224   0.456   6.007   2.611  0.0975 -1.3486  0.1244
 5937TIP3   OH239225   4.389   3.365   3.135 -0.6807 -0.1329 -0.2338
 5937TIP3    H139226   4.433   3.388   3.217 -1.2885 -1.4409  0.4876
 5937TIP3    H239227   4.296   3.362   3.158 -0.8123 -1.0383 -0.8276
 5938TIP3   OH239228   3.417   4.526   5.673 -0.1236 -0.4449 -0.2341
 5938TIP3    H139229   3.367   4.577   5.609  0.9811  0.7855 -0.1653
 5938TIP3    H239230   3.366   4.532   5.754  0.3608  1.2527 -0.0179
 5939TIP3   OH239231   2.362   5.290   3.444  0.3708 -0.7169 -0.1495
 5939TIP3    H139232   2.429   5.224   3.428  0.4913 -0.7253  0.3915
 5939TIP3    H239233   2.301   5.279   3.371 -0.7878 -2.8799  1.0521
 5940TIP3   OH239234   2.624   0.012   6.697  0.0161  0.0787 -0.8978
 5940TIP3    H139235   2.575   0.040   6.620  1.5071  3.0693 -0.9324
 5940TIP3    H239236   2.636   0.093   6.748 -0.7756 -1.7185  2.4560
 5941TIP3   OH239237   3.262   1.630  12.521 -0.2897 -0.3657 -0.1933
 5941TIP3    H139238   3.221   1.560  12.574 -1.9559 -0.1464 -1.1134
 5941TIP3    H239239   3.303   1.584  12.448  0.3729 -0.5202  0.2669
 5942TIP3   OH239240   4.722   4.704  13.691  0.6311 -0.1410 -0.2385
 5942TIP3    H139241   4.692   4.722  13.602  1.9150  2.8738 -0.1586
 5942TIP3    H239242   4.810   4.666  13.679  0.3148 -0.8855 -0.2569
 5943TIP3   OH239243   3.357   0.395   2.696 -0.2888  0.4801  0.2806
 5943TIP3    H139244   3.397   0.390   2.783 -0.9133 -0.0270  0.5478
 5943TIP3    H239245   3.315   0.309   2.685 -1.7049  1.1663  0.2093
 5944TIP3   OH239246   2.463   3.982   4.527  0.1398  0.5049  0.2503
 5944TIP3    H139247   2.468   3.941   4.614  1.0245 -0.1454 -0.0980
 5944TIP3    H239248   2.548   4.023   4.515  0.1276  0.3441 -0.4265
 5945TIP3   OH239249   3.820   5.404  14.744  0.3223  0.4949 -0.5759
 5945TIP3    H139250   3.763   5.422  14.818  1.2264 -0.4227  0.3875
 5945TIP3    H239251   3.820   5.484  14.692  0.0904  1.3422  0.7154
 5946TIP3   OH239252   4.799   2.957   2.187 -0.2716  0.5936  0.2903
 5946TIP3    H139253   4.886   2.969   2.223  0.3762 -1.7348 -0.2982
 5946TIP3    H239254   4.806   2.879   2.132 -2.4909  0.9224 -0.5900
 5947TIP3   OH239255   0.958   5.501  14.096  0.3385  0.3221  0.1068
 5947TIP3    H139256   0.964   5.569  14.164  2.1261 -0.3267  0.6841
 5947TIP3    H239257   0.972   5.548  14.014  1.0150  0.7558  0.4527
 5948TIP3   OH239258   2.236   6.104  11.520  0.3610 -0.1266  0.0157
 5948TIP3    H139259   2.317   6.106  11.469 -0.1796 -1.7216 -0.9811
 5948TIP3    H239260   2.251   6.037  11.587 -0.1741 -0.5907 -0.3104
 5949TIP3   OH239261   1.210   3.956  15.501  0.3454  0.0885 -0.1507
 5949TIP3    H139262   1.228   4.050  15.492 -0.8321  0.4201  0.6698
 5949TIP3    H239263   1.231   3.920  15.415  2.7641  0.7249  0.0827
 5950TIP3   OH239264   3.478   1.848  12.507 -0.2656 -0.2058  0.5445
 5950TIP3    H139265   3.537   1.855  12.432 -2.2379  2.2199 -0.9466
 5950TIP3    H239266   3.421   1.774  12.485 -1.7024  1.2921 -1.1644
 5951TIP3   OH239267   5.472   2.265  14.071 -0.0373 -0.3087  0.2190
 5951TIP3    H139268   5.533   2.211  14.021  0.7783  0.5611  0.2468
 5951TIP3    H239269   5.427   2.317  14.005 -2.1518 -2.2429  0.0031
 5952TIP3   OH239270   1.072   5.698  12.293  0.2136 -0.4302 -0.0871
 5952TIP3    H139271   0.977   5.707  12.289  0.0242 -1.4935  1.1062
 5952TIP3    H239272   1.099   5.756  12.365  0.2777 -1.1652  0.4972
 5953TIP3   OH239273   5.722   2.008   6.350  0.2018  0.1716 -0.0269
 5953TIP3    H139274   5.662   1.940   6.383  0.7527 -0.4955 -0.3608
 5953TIP3    H239275   5.668   2.060   6.290  0.1418 -0.9644 -1.0159
 5954TIP3   OH239276   0.634   4.565   4.944 -0.9036  0.1283 -0.1229
 5954TIP3    H139277   0.636   4.470   4.931 -0.4864  0.0622  0.4057
 5954TIP3    H239278   0.690   4.580   5.020 -2.2652  0.6420  0.8130
 5955TIP3   OH239279   1.290   3.987   3.519  0.3065 -0.3442 -0.1601
 5955TIP3    H139280   1.348   4.063   3.515  1.0432 -0.8696  0.4026
 5955TIP3    H239281   1.229   3.999   3.446 -0.4244  1.4610  0.6785
 5956TIP3   OH239282   1.528   0.623   3.592  0.2312  0.7399 -0.1691
 5956TIP3    H139283   1.609   0.610   3.544  0.7944  1.6308  0.4971
 5956TIP3    H239284   1.480   0.541   3.583  1.1505  0.2532 -0.6808
 5957TIP3   OH239285   3.273   1.029   4.113 -0.3056 -0.2159 -0.1062
 5957TIP3    H139286   3.307   1.025   4.023  1.2693  2.4017  0.2873
 5957TIP3    H239287   3.350   1.043   4.168 -1.2038 -2.0203  1.7720
 5958TIP3   OH239288   6.409   6.264   3.460 -0.0003 -0.6471  0.0437
 5958TIP3    H139289   6.425   6.225   3.546 -0.7448 -0.4383  0.2842
 5958TIP3    H239290   6.401   6.358   3.477 -0.2124 -0.6112 -0.2443
 5959TIP3   OH239291   0.059   0.376  10.993  0.2756 -0.5153 -0.0448
 5959TIP3    H139292   0.098   0.343  10.912 -1.0278 -2.5580  0.0764
 5959TIP3    H239293   0.002   0.305  11.022 -2.0122  1.5378  0.7997
 5960TIP3   OH239294   3.020   4.482   4.758 -0.2917 -0.1162 -0.7343
 5960TIP3    H139295   3.010   4.430   4.839  0.9973  0.3956 -0.2121
 5960TIP3    H239296   2.943   4.461   4.706  0.1370 -2.5271 -0.5173
 5961TIP3   OH239297   4.340   2.371  15.006  0.1123 -0.6616 -0.8913
 5961TIP3    H139298   4.325   2.364  14.912 -0.8608  1.0408 -0.9100
 5961TIP3    H239299   4.274   2.433  15.037  2.0064  0.8536  0.4439
 5962TIP3   OH239300   2.831   4.484   6.227  0.3593 -0.7784 -0.5647
 5962TIP3    H139301   2.896   4.540   6.271  0.9780 -2.0297  0.1718
 5962TIP3    H239302   2.813   4.529   6.144 -1.3398  2.0181  1.1596
 5963TIP3   OH239303   3.269   2.544  14.679  0.2424 -0.2937  0.1882
 5963TIP3    H139304   3.240   2.632  14.656 -1.2290 -0.4263  1.4002
 5963TIP3    H239305   3.226   2.486  14.616 -0.4207 -0.3062  0.6472
 5964TIP3   OH239306   4.105   3.626   3.109  0.4062 -0.3239  0.4909
 5964TIP3    H139307   4.133   3.587   3.192  1.4227 -0.4717  0.0919
 5964TIP3    H239308   4.038   3.566   3.076  0.9172 -0.9614  0.5853
 5965TIP3   OH239309   2.192   1.852  16.990 -0.4187  0.5928 -0.1823
 5965TIP3    H139310   2.152   1.905  16.921  1.0719  0.6189 -1.0654
 5965TIP3    H239311   2.160   1.763  16.973 -1.5349  0.8915  0.2517
 5966TIP3   OH239312   1.357   6.270   3.687 -0.0433  0.2768  0.3834
 5966TIP3    H139313   1.378   6.358   3.716  0.2688  0.0142  0.9537
 5966TIP3    H239314   1.335   6.280   3.594  1.7582  0.6966 -0.0366
 5967TIP3   OH239315   0.533   4.902  15.263  0.2477 -0.2564 -0.2512
 5967TIP3    H139316   0.567   4.986  15.231  1.5627 -0.9275 -0.6855
 5967TIP3    H239317   0.505   4.856  15.184  2.3764 -1.4281 -0.4047
 5968TIP3   OH239318   3.871   0.914  11.808  0.3775 -0.6142  0.1567
 5968TIP3    H139319   3.829   0.961  11.879  2.0199 -0.3798  1.0311
 5968TIP3    H239320   3.826   0.944  11.729  0.9238  1.9614  0.7288
 5969TIP3   OH239321   1.079   5.727   4.756 -0.0237  0.0485 -0.1177
 5969TIP3    H139322   1.068   5.783   4.680  2.1813  1.8703  0.7864
 5969TIP3    H239323   0.991   5.713   4.789 -0.7309  2.2464 -0.9097
 5970TIP3   OH239324   2.063   4.818  16.719  0.3154 -0.5123  0.2213
 5970TIP3    H139325   2.086   4.875  16.792 -1.5698 -1.4812  1.6756
 5970TIP3    H239326   2.147   4.792  16.681  1.3147  4.0026 -1.2854
 5971TIP3   OH239327   2.908   0.078  11.291  0.0711  0.3958  0.4706
 5971TIP3    H139328   2.929   0.125  11.211  1.1754 -1.7465 -0.5864
 5971TIP3    H239329   2.919  -0.014  11.268 -1.2029 -0.3630  2.6477
 5972TIP3   OH239330   4.354   6.380   4.666 -0.5166  0.3256  0.0614
 5972TIP3    H139331   4.284   6.412   4.723 -1.2708 -3.8169  1.8606
 5972TIP3    H239332   4.312   6.367   4.581 -1.2079  0.4471  0.3752
 5973TIP3   OH239333   1.779   4.522   1.314  0.2582 -0.6057 -0.2991
 5973TIP3    H139334   1.720   4.467   1.365 -1.6868  1.3316 -0.3390
 5973TIP3    H239335   1.757   4.611   1.338  2.2474  0.2631 -1.3782
 5974TIP3   OH239336   5.044   5.261  16.133 -0.4724 -0.5020 -0.2740
 5974TIP3    H139337   5.031   5.315  16.055  1.3339 -0.8790 -0.8811
 5974TIP3    H239338   4.956   5.236  16.159 -1.1451 -0.1774 -2.0593
 5975TIP3   OH239339   2.683   4.581  14.801 -0.0837  0.1203 -0.4951
 5975TIP3    H139340   2.729   4.601  14.883 -1.1346  0.9818 -0.0998
 5975TIP3    H239341   2.690   4.486  14.792  2.2382  0.2457 -0.7326
 5976TIP3   OH239342   1.728   4.922  13.402  0.6897  0.7758  0.2899
 5976TIP3    H139343   1.820   4.916  13.376  0.5795  1.6360 -0.3519
 5976TIP3    H239344   1.685   4.963  13.327 -0.3053 -0.0399  0.3921
 5977TIP3   OH239345   1.628   0.756   1.106  0.1493  0.0009  0.0129
 5977TIP3    H139346   1.711   0.770   1.060 -0.0558  1.3230  0.0257
 5977TIP3    H239347   1.561   0.791   1.047 -0.3240 -0.2646  0.3848
 5978TIP3   OH239348   0.413   0.329  11.530 -0.3709 -0.3471  0.2617
 5978TIP3    H139349   0.355   0.331  11.454 -1.9271  0.8267  1.4178
 5978TIP3    H239350   0.454   0.242  11.527 -1.6822 -0.9590 -0.9491
 5979TIP3   OH239351   4.017   4.283  16.971 -0.2399  0.0286 -0.3381
 5979TIP3    H139352   4.080   4.303  16.902 -2.2192 -0.1494 -2.3197
 5979TIP3    H239353   4.014   4.363  17.024  1.7049 -0.0224 -0.0937
 5980TIP3   OH239354   5.679   4.313  14.273  0.2039 -0.5722  0.1922
 5980TIP3    H139355   5.620   4.274  14.338  0.7909  1.1226  1.8198
 5980TIP3    H239356   5.649   4.403  14.264  1.6640 -0.0818 -0.0131
 5981TIP3   OH239357   0.526   5.516   4.378  0.5655 -0.3407  0.1227
 5981TIP3    H139358   0.587   5.443   4.370  0.8933  0.0441 -1.3467
 5981TIP3    H239359   0.440   5.476   4.380  0.8015 -0.8348  1.0943
 5982TIP3   OH239360   5.120   4.350   5.471  0.3951  0.0062  0.3056
 5982TIP3    H139361   5.079   4.327   5.388 -1.6726  0.2163  1.2230
 5982TIP3    H239362   5.059   4.319   5.538  1.6831  0.4437  1.7456
 5983TIP3   OH239363   4.418   3.638  16.430 -0.6436  0.0477  0.2387
 5983TIP3    H139364   4.459   3.708  16.481  2.5339 -1.4384 -0.0261
 5983TIP3    H239365   4.373   3.585  16.495  1.0829 -0.3130  1.2228
 5984TIP3   OH239366   4.983   5.741  14.317 -0.1301 -0.3765 -0.2258
 5984TIP3    H139367   4.988   5.654  14.357 -0.1979  0.1730  1.0359
 5984TIP3    H239368   4.889   5.758  14.311 -0.1094 -0.0839  0.2440
 5985TIP3   OH239369   1.316   3.026  16.490 -0.2392 -0.2922  1.2051
 5985TIP3    H139370   1.231   3.065  16.509  0.3428  1.3009  0.7151
 5985TIP3    H239371   1.376   3.101  16.484  1.1606 -1.3547  1.3274
 5986TIP3   OH239372   6.629   2.555  13.953  0.1903 -0.2592 -0.7031
 5986TIP3    H139373   6.603   2.609  13.878  1.4144  0.1735 -0.8455
 5986TIP3    H239374   6.581   2.592  14.027 -0.2331 -0.0275 -1.0880
 5987TIP3   OH239375   5.942   0.480   5.614  0.7964 -0.1147  0.4687
 5987TIP3    H139376   5.908   0.405   5.664  2.0075 -0.8175  0.2657
 5987TIP3    H239377   6.007   0.520   5.671  1.5462 -0.3837 -0.1879
 5988TIP3   OH239378   3.949   1.119   0.920  0.2196  0.7191  0.2562
 5988TIP3    H139379   3.969   1.027   0.903  0.6389  0.6535  1.0829
 5988TIP3    H239380   4.012   1.168   0.867  0.0083  0.5349 -0.1702
 5989TIP3   OH239381   0.539   2.968   2.230 -0.3385  0.3960 -0.0676
 5989TIP3    H139382   0.591   3.043   2.260 -0.7302  1.5354 -2.0120
 5989TIP3    H239383   0.512   2.992   2.141 -0.5110 -2.0637 -0.7628
 5990TIP3   OH239384   2.664   5.932   4.214  0.1237  0.5975  0.0842
 5990TIP3    H139385   2.599   5.874   4.252 -0.2610 -1.7003 -3.5491
 5990TIP3    H239386   2.740   5.876   4.196  1.9537  2.5109  1.3371
 5991TIP3   OH239387   3.275   4.155   2.155 -0.0961 -0.0204 -0.4251
 5991TIP3    H139388   3.257   4.247   2.138  1.3754  0.5254  0.7379
 5991TIP3    H239389   3.367   4.152   2.180  0.0118 -1.8755 -0.8661
 5992TIP3   OH239390   3.145   1.265  15.851 -0.0956  0.3246  0.5369
 5992TIP3    H139391   3.206   1.241  15.922  2.3360  0.5870 -1.3315
 5992TIP3    H239392   3.156   1.195  15.786 -0.6504  1.1752 -0.5009
 5993TIP3   OH239393   4.577   3.957   3.496 -0.4037  0.2072 -0.0604
 5993TIP3    H139394   4.507   4.021   3.479  0.4758  0.9392 -1.1063
 5993TIP3    H239395   4.631   3.959   3.416  2.4844  1.8632  1.7217
 5994TIP3   OH239396   3.267   5.897   3.993 -0.4860 -0.2911  0.1350
 5994TIP3    H139397   3.302   5.825   4.046  0.2216  0.5135  0.7904
 5994TIP3    H239398   3.334   5.912   3.926  0.0401  0.6683  0.8533
 5995TIP3   OH239399   5.530   5.745   4.775  0.1474  0.3473  0.3964
 5995TIP3    H139400   5.617   5.755   4.814  1.0019 -2.0111 -0.7717
 5995TIP3    H239401   5.536   5.791   4.692 -0.0738  1.0509  0.7594
 5996TIP3   OH239402   6.464   3.941  15.691  0.3009 -0.0476  0.7399
 5996TIP3    H139403   6.503   3.988  15.618 -0.3280  0.3202  0.6385
 5996TIP3    H239404   6.376   3.919  15.661  0.0019  0.2037  1.4278
 5997TIP3   OH239405   1.745   1.370   0.088 -0.3097  0.0545 -0.7149
 5997TIP3    H139406   1.821   1.367   0.146  0.4778 -0.5533 -1.7281
 5997TIP3    H239407   1.766   1.442   0.027 -0.1361 -0.6576 -1.5123
 5998TIP3   OH239408   0.294   2.947   2.421  0.4815 -0.1798  0.2787
 5998TIP3    H139409   0.311   3.025   2.473  0.1334 -0.2489  0.5029
 5998TIP3    H239410   0.369   2.939   2.363  0.9790 -0.2193  0.9193
 5999TIP3   OH239411   1.300   3.772  16.370 -0.4679  0.4052  0.1827
 5999TIP3    H139412   1.356   3.794  16.444  0.0477 -1.0455  0.2528
 5999TIP3    H239413   1.356   3.720  16.312 -0.3196  2.9362 -2.1165
 6000TIP3   OH239414   3.040   1.424   3.255 -0.1720  0.8222  0.0641
 6000TIP3    H139415   2.964   1.367   3.262  0.0963  0.4685  0.1263
 6000TIP3    H239416   3.079   1.423   3.343 -0.5769  1.6843  0.2658
 6001TIP3   OH239417   2.711   6.295  11.270 -0.2921 -0.2070 -0.0930
 6001TIP3    H139418   2.636   6.265  11.322  0.2860  1.0036  1.5078
 6001TIP3    H239419   2.727   6.385  11.299  1.9908 -0.5337 -0.1064
 6002TIP3   OH239420   5.920   1.400  15.931 -0.0263  0.1604 -0.1127
 6002TIP3    H139421   5.852   1.348  15.974 -0.0104  0.8515  0.7843
 6002TIP3    H239422   5.885   1.489  15.929  0.0357  0.1666 -1.4424
 6003TIP3   OH239423   5.887   2.164   6.014 -0.0094 -0.0184 -0.3814
 6003TIP3    H139424   5.935   2.186   6.095 -1.2807 -2.7524  1.2401
 6003TIP3    H239425   5.905   2.071   6.000 -3.4359 -0.7653 -0.6006
 6004TIP3   OH239426   4.390   4.991   2.284  0.4106 -0.1830  0.0507
 6004TIP3    H139427   4.449   4.997   2.209 -0.4507 -2.4536 -0.8962
 6004TIP3    H239428   4.304   5.015   2.250  0.4054  1.0887  0.9168
 6005TIP3   OH239429   2.887   5.842  12.882 -0.0270  0.4708  0.0308
 6005TIP3    H139430   2.874   5.757  12.839 -1.6871 -0.1126  1.5917
 6005TIP3    H239431   2.844   5.905  12.824 -0.0299  0.0516 -0.4275
 6006TIP3   OH239432   5.725   6.369   0.766  0.4794 -0.3007  0.1267
 6006TIP3    H139433   5.703   6.461   0.750  4.0964  1.0701  1.9508
 6006TIP3    H239434   5.715   6.358   0.860  1.2316 -1.4243  0.0841
 6007TIP3   OH239435   3.415   4.594  15.421  0.3333  0.1802 -0.1997
 6007TIP3    H139436   3.442   4.513  15.464  0.9544 -0.3000 -1.4471
 6007TIP3    H239437   3.492   4.651  15.425  0.4262  0.0963 -0.7503
 6008TIP3   OH239438   0.042   6.623  11.807 -0.2568 -0.4443  0.1389
 6008TIP3    H139439   0.091   6.582  11.736  1.8472  0.8205  0.7747
 6008TIP3    H239440   0.087   6.705  11.824 -2.2101  0.4850  1.2831
 6009TIP3   OH239441   1.611   1.562   2.507  0.3443  0.0944  0.2252
 6009TIP3    H139442   1.593   1.625   2.436 -1.7749 -1.6837 -0.9298
 6009TIP3    H239443   1.544   1.495   2.496  1.4031 -1.4303  2.5583
 6010TIP3   OH239444   1.770   4.287   0.165  0.2264  0.0268 -0.9014
 6010TIP3    H139445   1.838   4.349   0.140  0.5090  0.0137 -0.1911
 6010TIP3    H239446   1.704   4.341   0.208  1.3230 -0.3598  1.4132
 6011TIP3   OH239447   2.495   2.099  17.152 -0.1990  0.4197 -0.5466
 6011TIP3    H139448   2.520   2.176  17.202  0.2542  0.5016 -0.8970
 6011TIP3    H239449   2.487   2.130  17.062 -0.2731  0.1155 -0.6463
 6012TIP3   OH239450   5.410   5.995   1.527 -0.5155 -0.4615  0.9269
 6012TIP3    H139451   5.408   5.971   1.620 -0.1776  0.6490  1.2313
 6012TIP3    H239452   5.474   6.066   1.521  0.1581 -1.1294 -0.3128
 6013TIP3   OH239453   0.416   6.481  16.550 -0.2129  0.1642 -0.8085
 6013TIP3    H139454   0.381   6.570  16.552  0.4634  0.4765  2.5336
 6013TIP3    H239455   0.383   6.441  16.631 -1.1091 -2.9284 -2.5551
 6014TIP3   OH239456   3.759   1.008  12.025  0.6092 -0.0253  0.0189
 6014TIP3    H139457   3.786   1.100  12.016  0.0895  0.0603 -0.7906
 6014TIP3    H239458   3.806   0.977  12.102  1.6214  0.6183 -0.3103
 6015TIP3   OH239459   2.636   4.496   1.260  0.6042 -0.2729 -0.0939
 6015TIP3    H139460   2.627   4.585   1.225  0.1357  0.3726  1.5681
 6015TIP3    H239461   2.717   4.464   1.221  0.0412  0.3227 -1.8473
 6016TIP3   OH239462   5.142   3.692  10.920  0.5041  0.5060  0.2468
 6016TIP3    H139463   5.064   3.659  10.874  1.2120 -0.7826 -0.0762
 6016TIP3    H239464   5.107   3.754  10.984 -1.0032 -1.4441  1.4176
 6017TIP3   OH239465   2.048   3.208   4.187 -0.5289  0.2665 -0.1966
 6017TIP3    H139466   2.125   3.250   4.224 -1.5148  1.6156  0.4137
 6017TIP3    H239467   1.974   3.256   4.224 -1.6982 -1.3500 -0.3108
 6018TIP3   OH239468   5.929   6.420  14.074  0.1290  0.0286  0.5540
 6018TIP3    H139469   6.002   6.377  14.119 -0.1441 -0.7115  0.3099
 6018TIP3    H239470   5.940   6.513  14.093 -0.0447 -0.2670  2.2410
 6019TIP3   OH239471   6.626   5.141  15.023  0.8225  0.4857  0.0712
 6019TIP3    H139472   6.534   5.150  14.997  0.6610  0.9431  0.7792
 6019TIP3    H239473   6.674   5.153  14.941  0.1886 -2.0138 -0.7340
 6020TIP3   OH239474   5.655   3.113  12.107 -0.2105  0.0044 -0.2809
 6020TIP3    H139475   5.601   3.113  12.028 -1.1174 -1.6884  0.2711
 6020TIP3    H239476   5.653   3.022  12.136 -0.2858  0.6735  1.9549
 6021TIP3   OH239477   5.377   2.438   3.977 -0.6604  0.5696  0.2235
 6021TIP3    H139478   5.357   2.485   3.896  0.9742 -0.1268 -0.6372
 6021TIP3    H239479   5.352   2.347   3.958 -0.0219  0.3545  0.4030
 6022TIP3   OH239480   4.051   0.892   1.692  0.2011  0.1941 -0.5704
 6022TIP3    H139481   4.129   0.860   1.737 -1.4176 -1.6256  1.1926
 6022TIP3    H239482   3.981   0.832   1.720 -1.5007  0.5995 -3.4920
 6023TIP3   OH239483   0.951   1.206  10.781 -0.7689  0.3121 -0.0193
 6023TIP3    H139484   1.039   1.175  10.761 -0.7699 -1.3969  2.2980
 6023TIP3    H239485   0.893   1.143  10.737 -0.8639  0.8618 -0.7090
 6024TIP3   OH239486   6.278   5.732   1.399 -0.0905  0.0000  0.4571
 6024TIP3    H139487   6.332   5.744   1.478  2.3003 -1.7235 -0.7804
 6024TIP3    H239488   6.326   5.779   1.331 -1.5086  0.4955 -0.2252
 6025TIP3   OH239489   0.809   4.851   1.095  0.1686 -0.4363 -0.9144
 6025TIP3    H139490   0.791   4.815   1.181  0.9965  0.6919 -0.2396
 6025TIP3    H239491   0.725   4.888   1.066 -0.0485 -0.5892 -0.4793
 6026TIP3   OH239492   1.757   3.378   3.824  0.3535  0.5187 -0.0123
 6026TIP3    H139493   1.815   3.406   3.895  1.2532 -0.5106 -0.3205
 6026TIP3    H239494   1.815   3.352   3.753 -0.3291 -2.5964  0.4293
 6027TIP3   OH239495   1.842   1.102   5.165  0.4247 -0.4999  0.1544
 6027TIP3    H139496   1.802   1.082   5.080  0.5431 -0.7756  0.1625
 6027TIP3    H239497   1.768   1.101   5.226  0.5518 -1.9480  0.3286
 6028TIP3   OH239498   0.043   4.323   2.106  0.0904 -0.3163  0.0294
 6028TIP3    H139499   0.027   4.232   2.132  0.7568 -0.2824  0.5860
 6028TIP3    H239500  -0.044   4.360   2.091 -0.1927 -1.0055 -0.0794
 6029TIP3   OH239501   2.844   1.971   1.574  0.4005 -0.0336  0.3519
 6029TIP3    H139502   2.925   2.021   1.585 -1.1588  2.9861 -0.5961
 6029TIP3    H239503   2.805   1.970   1.662  0.9856 -0.6553  0.6124
 6030TIP3   OH239504   5.583   5.471  11.615  0.5264  0.5347  0.1597
 6030TIP3    H139505   5.644   5.477  11.688 -2.0373  3.0151  2.3232
 6030TIP3    H239506   5.573   5.561  11.584 -0.3437 -0.1117 -1.6183
 6031TIP3   OH239507   5.461   0.758   5.680  0.3895 -0.1578 -0.3951
 6031TIP3    H139508   5.497   0.746   5.768  0.3534  2.3771  0.0415
 6031TIP3    H239509   5.514   0.701   5.624  2.5626  0.5993  0.8007
 6032TIP3   OH239510   3.447   6.209   4.641 -0.1611 -0.0483  0.1827
 6032TIP3    H139511   3.475   6.270   4.710  1.8395 -2.2260  1.4741
 6032TIP3    H239512   3.477   6.250   4.560 -1.7009  2.1242  0.6173
 6033TIP3   OH239513   4.367   6.654   5.014  0.0829  0.5777 -0.1684
 6033TIP3    H139514   4.288   6.670   5.065 -0.4183 -0.3516 -0.6380
 6033TIP3    H239515   4.431   6.717   5.048 -0.5578  0.6686  0.8801
 6034TIP3   OH239516   2.172   3.766  15.799  0.1745 -0.4186 -0.2465
 6034TIP3    H139517   2.229   3.785  15.725  1.1026  0.9849  0.7894
 6034TIP3    H239518   2.083   3.782  15.766  0.6937  2.5466 -0.4334
 6035TIP3   OH239519   4.140   6.208   0.568  0.1911  0.3135 -0.3672
 6035TIP3    H139520   4.172   6.242   0.652 -0.4062 -0.6663  0.2782
 6035TIP3    H239521   4.217   6.168   0.528  0.5069  0.8879 -0.3438
 6036TIP3   OH239522   6.384   4.871   5.844 -0.3345 -0.4966  0.1719
 6036TIP3    H139523   6.313   4.906   5.790 -0.9903 -2.4218 -0.2877
 6036TIP3    H239524   6.454   4.935   5.836 -0.7074 -0.3195 -2.3211
 6037TIP3   OH239525   1.700   6.027   5.071 -0.0548 -0.0917  0.5265
 6037TIP3    H139526   1.657   6.113   5.072  1.0795  0.5414 -0.9925
 6037TIP3    H239527   1.775   6.037   5.130 -0.2626 -0.2225  0.8112
 6038TIP3   OH239528   1.222   1.690  15.016 -0.8324  0.1401  0.6343
 6038TIP3    H139529   1.274   1.699  14.937 -1.8693  0.8568  0.0098
 6038TIP3    H239530   1.248   1.764  15.071  0.3491 -0.7060  1.2782
 6039TIP3   OH239531   3.346   3.224  16.774 -0.4874  0.1080  0.3770
 6039TIP3    H139532   3.339   3.289  16.843 -0.9558  0.2985  0.1549
 6039TIP3    H239533   3.279   3.159  16.795 -1.4516  0.7625 -0.5122
 6040TIP3   OH239534   2.146   3.514   3.134 -0.1445 -0.3256  0.1558
 6040TIP3    H139535   2.061   3.553   3.116 -0.2044 -0.7005 -0.3934
 6040TIP3    H239536   2.136   3.473   3.220 -0.3037  0.2318  0.4050
 6041TIP3   OH239537   3.031   5.814  14.918  0.7640  0.3235 -0.2113
 6041TIP3    H139538   2.997   5.725  14.921  0.1572  0.5142 -1.0743
 6041TIP3    H239539   3.124   5.804  14.899  0.4820 -0.1110 -1.4986
 6042TIP3   OH239540   2.685   1.142  11.570 -0.0917 -0.2517 -0.2792
 6042TIP3    H139541   2.748   1.202  11.612 -1.2759  1.0564 -0.2947
 6042TIP3    H239542   2.667   1.076  11.637 -0.0146  0.3652  0.3685
 6043TIP3   OH239543   1.987   2.948   4.212  0.1274  0.2077 -0.3143
 6043TIP3    H139544   2.000   2.934   4.306  1.4697  0.2731 -0.4738
 6043TIP3    H239545   2.026   3.034   4.195 -0.6688  0.4806 -0.8329
 6044TIP3   OH239546   3.781   1.541  13.465 -0.2963  0.4358  0.3213
 6044TIP3    H139547   3.786   1.632  13.437 -0.2892  0.5305  0.6207
 6044TIP3    H239548   3.688   1.520  13.460 -0.3876  0.6694  0.8819
 6045TIP3   OH239549   2.001   3.903   4.691 -0.4724  0.0234 -0.0497
 6045TIP3    H139550   1.927   3.960   4.671  0.1992  1.3981  1.2650
 6045TIP3    H239551   2.011   3.849   4.612 -3.0071 -0.4053 -0.1875
 6046TIP3   OH239552   2.330   4.441   2.909  0.5040 -0.2721 -0.8718
 6046TIP3    H139553   2.329   4.422   2.815  3.6903 -0.6071 -0.9404
 6046TIP3    H239554   2.245   4.482   2.926 -0.3021 -0.5047 -3.8074
 6047TIP3   OH239555   6.306   1.924   5.082 -0.1542 -0.2903  0.4597
 6047TIP3    H139556   6.356   1.846   5.058 -1.6158 -0.8723 -0.8948
 6047TIP3    H239557   6.295   1.918   5.177  1.3196 -0.7281  0.6249
 6048TIP3   OH239558   3.498   5.372  14.547  0.4063  0.2367 -0.1277
 6048TIP3    H139559   3.549   5.333  14.476  0.7947 -0.2474  0.4158
 6048TIP3    H239560   3.452   5.445  14.505  0.3813 -0.2345 -0.9474
 6049TIP3   OH239561   1.553   5.001   1.614  0.3284  0.1773 -0.0107
 6049TIP3    H139562   1.590   5.066   1.673  0.3167 -1.1484  1.5042
 6049TIP3    H239563   1.558   4.919   1.662 -1.9887 -0.5352 -0.8599
 6050TIP3   OH239564   2.135   0.046   5.026  0.3375 -0.1014  0.0828
 6050TIP3    H139565   2.225   0.065   5.053  0.4315 -2.1592  1.4327
 6050TIP3    H239566   2.144   0.007   4.938  0.5715  1.2404 -0.5141
 6051TIP3   OH239567   6.550   4.445   3.118 -0.5752 -0.2247 -0.5530
 6051TIP3    H139568   6.606   4.370   3.137  0.9781  0.8851 -0.5141
 6051TIP3    H239569   6.588   4.483   3.038  0.8046  2.3951  1.1945
 6052TIP3   OH239570   5.836   4.588   5.408 -0.0171  0.2864  0.5925
 6052TIP3    H139571   5.801   4.573   5.496  0.7170 -0.8098  0.7259
 6052TIP3    H239572   5.915   4.641   5.422 -1.1423  2.0983  0.3608
 6053TIP3   OH239573   5.269   3.814  14.857  0.1624  0.0134 -0.4444
 6053TIP3    H139574   5.330   3.888  14.871  0.6262 -0.3840 -0.3271
 6053TIP3    H239575   5.187   3.844  14.896  0.0195  0.9023 -1.3742
 6054TIP3   OH239576   5.638   5.229  12.313 -0.2611 -0.0383 -0.6691
 6054TIP3    H139577   5.676   5.309  12.277  0.5337  0.5587  1.3508
 6054TIP3    H239578   5.571   5.259  12.374  1.3958 -0.7345  1.6470
 6055TIP3   OH239579   6.221   1.788  12.253 -0.1471  0.2071  0.1099
 6055TIP3    H139580   6.180   1.874  12.263 -1.0679 -0.2479  0.3768
 6055TIP3    H239581   6.246   1.763  12.342  3.2323  1.6353 -0.3069
 6056TIP3   OH239582   0.489   5.713   1.430 -0.2090 -0.4825  0.9021
 6056TIP3    H139583   0.429   5.639   1.429 -1.8144  0.7251 -1.5437
 6056TIP3    H239584   0.516   5.724   1.338  0.8863  1.2582  1.3704
 6057TIP3   OH239585   4.550   0.135   3.346 -0.0657  0.6155  0.1114
 6057TIP3    H139586   4.562   0.045   3.375  0.8792  0.8313  0.4055
 6057TIP3    H239587   4.466   0.134   3.300  0.5253 -0.6907 -0.9985
 6058TIP3   OH239588   4.237   3.330   2.387  0.2886  0.0329  0.0236
 6058TIP3    H139589   4.312   3.299   2.337  0.8131  2.2236 -0.6802
 6058TIP3    H239590   4.230   3.423   2.364 -2.1560  0.0877  0.6889
 6059TIP3   OH239591   5.875   4.792   3.699 -0.4771  0.3909  0.0962
 6059TIP3    H139592   5.930   4.869   3.686  2.3886 -1.3564  0.8969
 6059TIP3    H239593   5.819   4.814   3.773  0.7670  1.4813  0.7408
 6060TIP3   OH239594   5.088   0.124   4.648 -0.3002 -0.9880  0.0557
 6060TIP3    H139595   5.085   0.159   4.736 -0.2469  1.1095 -0.7366
 6060TIP3    H239596   5.005   0.152   4.608  0.2108 -0.8404 -0.9327
 6061TIP3   OH239597   1.257   2.158  12.992  0.0900 -0.3247  0.2277
 6061TIP3    H139598   1.296   2.129  12.909  1.1904 -0.7240  0.8657
 6061TIP3    H239599   1.219   2.078  13.029  0.8415 -0.4477  0.7603
 6062TIP3   OH239600   6.299   5.413   1.755 -0.2130  0.0903 -0.3399
 6062TIP3    H139601   6.383   5.453   1.731  0.1515 -1.0063 -0.9901
 6062TIP3    H239602   6.323   5.336   1.805 -0.8802  0.2826  0.2901
 6063TIP3   OH239603   0.689   4.417  10.920  0.8187  0.3754  0.4276
 6063TIP3    H139604   0.614   4.388  10.971  0.5402  1.3144  0.5594
 6063TIP3    H239605   0.760   4.426  10.983  1.1636 -0.8481  0.2524
 6064TIP3   OH239606   4.139   0.465   3.311 -0.5676 -0.2759 -0.2257
 6064TIP3    H139607   4.077   0.537   3.318  0.0487  0.2698 -0.2636
 6064TIP3    H239608   4.085   0.386   3.314 -1.1479  0.1409  1.1936
 6065TIP3   OH239609   5.341   2.031  15.989  0.4976  0.0046  0.1413
 6065TIP3    H139610   5.397   2.084  16.046  0.7185  0.8763 -0.8460
 6065TIP3    H239611   5.271   1.999  16.046  1.9272 -1.0367  1.3931
 6066TIP3   OH239612   6.556   3.590   1.418 -0.7587  0.1737  0.3759
 6066TIP3    H139613   6.507   3.657   1.465 -4.1612  0.2445 -2.8365
 6066TIP3    H239614   6.594   3.635   1.343  1.3785 -0.6190  0.8958
 6067TIP3   OH239615   5.644   3.966   0.720 -0.2184  0.0170  0.1217
 6067TIP3    H139616   5.630   3.971   0.625  1.2323 -1.7460 -0.2438
 6067TIP3    H239617   5.676   3.877   0.735  1.0228  0.7235  2.0734
 6068TIP3   OH239618   5.361   5.380  15.272 -0.0991  0.7072  0.0082
 6068TIP3    H139619   5.322   5.298  15.243  2.0470 -0.9714  1.5157
 6068TIP3    H239620   5.404   5.416  15.194 -1.0793  0.4484 -0.6652
 6069TIP3   OH239621   1.958   3.025   3.273  0.2841  0.1920 -0.0687
 6069TIP3    H139622   2.011   2.955   3.311  1.9232  0.9624 -0.8427
 6069TIP3    H239623   1.982   3.026   3.180 -3.2372 -1.3156 -1.1706
 6070TIP3   OH239624   1.658   2.624   2.626 -0.2688 -0.6986  0.5492
 6070TIP3    H139625   1.623   2.713   2.641  1.6972  0.1372  0.4070
 6070TIP3    H239626   1.750   2.630   2.651  0.2207 -2.3688 -0.7081
 6071TIP3   OH239627   0.148   5.969   0.364  0.2187  0.1815  0.0955
 6071TIP3    H139628   0.087   6.043   0.361  0.5350  0.4145 -0.8804
 6071TIP3    H239629   0.103   5.900   0.315  0.4333  0.1193 -0.0130
 6072TIP3   OH239630   2.049   5.705  16.479 -0.3147 -0.2009 -0.1142
 6072TIP3    H139631   1.964   5.667  16.458 -0.8296 -0.7579  2.6000
 6072TIP3    H239632   2.096   5.634  16.523  1.1205  0.4686 -0.5084
 6073TIP3   OH239633   4.956   3.570  11.543  0.6192 -0.0956 -0.3070
 6073TIP3    H139634   4.866   3.550  11.517  0.2060  0.1294  0.8860
 6073TIP3    H239635   4.952   3.661  11.572  1.1555 -0.1871  0.0620
 6074TIP3   OH239636   3.009   2.336   0.492  0.0945  0.3384 -0.4596
 6074TIP3    H139637   2.967   2.268   0.545 -1.5855  1.5707 -0.1062
 6074TIP3    H239638   3.011   2.301   0.403  0.6854 -0.7679 -0.0259
 6075TIP3   OH239639   5.752   1.277  11.133 -0.1212  0.0267 -0.1927
 6075TIP3    H139640   5.771   1.191  11.169  1.0292  0.4017  0.1437
 6075TIP3    H239641   5.658   1.275  11.114 -0.0213 -1.4497 -0.6434
 6076TIP3   OH239642   3.330   2.047  11.700 -0.5754  0.2306  0.1269
 6076TIP3    H139643   3.254   2.018  11.750 -0.8716 -0.3365 -0.6337
 6076TIP3    H239644   3.294   2.103  11.631 -0.2156  0.6503  0.2737
 6077TIP3   OH239645   2.765   1.697  11.430 -1.0830  0.0084  0.2400
 6077TIP3    H139646   2.788   1.716  11.338 -3.5306  0.1919 -0.3912
 6077TIP3    H239647   2.703   1.765  11.454 -0.6132 -0.1506  2.0128
 6078TIP3   OH239648   1.300   6.455  13.392  0.1700  0.4522  0.5409
 6078TIP3    H139649   1.301   6.360  13.402  0.3445  0.5838  2.0028
 6078TIP3    H239650   1.265   6.470  13.304 -0.6764 -0.9358  0.6194
 6079TIP3   OH239651   5.723   2.562  11.552  0.5413  0.5583 -0.3134
 6079TIP3    H139652   5.743   2.606  11.469 -0.6029 -0.2478 -1.0407
 6079TIP3    H239653   5.647   2.609  11.587  0.6585  0.5231 -0.0080
 6080TIP3   OH239654   1.417   3.541  13.571  0.7880  0.8806 -0.2417
 6080TIP3    H139655   1.491   3.599  13.590  0.1987  1.4696  0.3101
 6080TIP3    H239656   1.443   3.495  13.491  1.4307  1.6445 -0.4950
 6081TIP3   OH239657   3.519   0.115   0.065 -0.6697 -0.5862  0.0783
 6081TIP3    H139658   3.551   0.026   0.078 -0.9052 -0.6399  0.2932
 6081TIP3    H239659   3.592   0.160   0.021  0.2603 -0.3290  1.7818
 6082TIP3   OH239660   2.764   2.783  17.094 -0.1747 -0.3207 -0.2535
 6082TIP3    H139661   2.711   2.860  17.073 -0.8778 -0.0557  2.2197
 6082TIP3    H239662   2.772   2.785  17.189 -0.6126 -3.5478 -0.0461
 6083TIP3   OH239663   1.382   6.433  14.435 -0.1793 -0.1964 -0.0882
 6083TIP3    H139664   1.381   6.377  14.512  0.9329 -1.5000 -0.9556
 6083TIP3    H239665   1.467   6.415  14.395 -1.0636 -0.2097 -2.0610
 6084TIP3   OH239666   0.117   6.259  16.134 -0.7637  0.2164 -0.2723
 6084TIP3    H139667   0.183   6.315  16.174 -1.0501  2.5990 -2.8325
 6084TIP3    H239668   0.035   6.308  16.143 -1.1195  0.0462 -2.1205
 6085TIP3   OH239669   4.686   2.375  14.562 -0.1064  0.0972 -0.2915
 6085TIP3    H139670   4.746   2.381  14.487  1.4772  0.1585  0.9202
 6085TIP3    H239671   4.740   2.339  14.632 -1.5634  0.0188  0.8205
 6086TIP3   OH239672   1.974   5.746   4.402 -0.0592  1.0851  0.1224
 6086TIP3    H139673   2.027   5.823   4.424  0.7440  0.2359  1.2757
 6086TIP3    H239674   1.994   5.730   4.309  0.8880  1.4340  0.2482
 6087TIP3   OH239675   1.630   2.227  15.986  0.0718  0.2266  1.1147
 6087TIP3    H139676   1.679   2.145  15.983 -0.9318 -0.3571 -1.3258
 6087TIP3    H239677   1.694   2.294  15.963  0.6648  0.0471  2.1659
 6088TIP3   OH239678   1.165   5.464  15.933  0.5193  0.2853 -0.1968
 6088TIP3    H139679   1.228   5.487  15.865 -0.1389  1.5088 -0.4261
 6088TIP3    H239680   1.093   5.526  15.921 -0.6072 -0.8902  0.2421
 6089TIP3   OH239681   0.826   1.256   3.841  0.0194  0.5823 -0.2753
 6089TIP3    H139682   0.866   1.263   3.754  0.7089  0.9829  0.0685
 6089TIP3    H239683   0.747   1.310   3.836  0.6136  1.4647 -0.3416
 6090TIP3   OH239684   3.342   5.404  12.223  0.4050  0.2661 -0.0407
 6090TIP3    H139685   3.373   5.319  12.253 -0.2988 -0.0845 -0.2931
 6090TIP3    H239686   3.248   5.404  12.241  0.7142  1.8548  1.9855
 6091TIP3   OH239687   4.813   0.665  13.517 -0.8123 -0.0229 -0.5543
 6091TIP3    H139688   4.820   0.573  13.542 -1.8659 -0.1221 -0.5774
 6091TIP3    H239689   4.849   0.669  13.428  1.2524 -0.0004  0.2340
 6092TIP3   OH239690   3.572   2.573   3.547  0.3275 -0.0036  0.2668
 6092TIP3    H139691   3.580   2.668   3.546  1.9600 -0.0707 -1.9557
 6092TIP3    H239692   3.479   2.556   3.528 -0.2551  1.0849  1.9514
 6093TIP3   OH239693   3.991   4.092  11.174 -0.3480 -0.4719 -0.1176
 6093TIP3    H139694   4.076   4.078  11.132 -0.7251  1.0548 -1.4738
 6093TIP3    H239695   3.927   4.059  11.111 -0.8396 -0.1439  0.2014
 6094TIP3   OH239696   2.341   3.634   1.844  0.3074 -0.4713 -0.0144
 6094TIP3    H139697   2.340   3.540   1.859  0.3014 -0.2628  1.4436
 6094TIP3    H239698   2.296   3.646   1.760 -0.6243 -1.6738  0.2943
 6095TIP3   OH239699   6.347   4.206  15.069  0.2835 -0.3210 -0.2344
 6095TIP3    H139700   6.414   4.230  15.133  2.6658  0.0107 -2.6679
 6095TIP3    H239701   6.370   4.116  15.043 -0.5017 -0.3693 -0.7996
 6096TIP3   OH239702   2.557   4.187   3.031 -0.2300 -0.2827  0.2072
 6096TIP3    H139703   2.539   4.192   3.125 -0.0935 -1.6510  0.3216
 6096TIP3    H239704   2.495   4.248   2.992 -0.5737 -0.0064  1.1479
 6097TIP3   OH239705   5.281   4.834  16.946 -0.7721 -0.1673 -0.5161
 6097TIP3    H139706   5.355   4.830  16.885  0.2953  1.5646  0.5637
 6097TIP3    H239707   5.306   4.775  17.017 -1.2606 -0.9110 -0.9417
 6098TIP3   OH239708   1.406   2.513  16.068  0.5094  0.1412 -0.4774
 6098TIP3    H139709   1.459   2.580  16.111  1.6838 -0.4718 -0.9177
 6098TIP3    H239710   1.321   2.518  16.112  1.0223  0.9456  0.4728
 6099TIP3   OH239711   5.504   2.578  13.428 -0.5396 -0.1443  0.9134
 6099TIP3    H139712   5.481   2.665  13.397 -1.6502 -1.4369 -2.3069
 6099TIP3    H239713   5.428   2.550  13.479 -0.6974  0.3082  0.9324
 6100TIP3   OH239714   2.972   2.463  13.236 -0.2333 -0.1296  0.4006
 6100TIP3    H139715   3.023   2.460  13.155  0.8365 -0.5414  1.0570
 6100TIP3    H239716   2.902   2.399  13.224 -0.2799  0.0541 -0.3179
 6101TIP3   OH239717   5.848   4.858  15.253  0.3907 -0.4268  0.5300
 6101TIP3    H139718   5.853   4.920  15.180  2.5380 -1.0551  0.0919
 6101TIP3    H239719   5.772   4.888  15.304 -0.2423  0.9373 -1.1053
 6102TIP3   OH239720   1.097   1.147   5.610 -0.0708  0.6456 -0.5619
 6102TIP3    H139721   1.123   1.234   5.580 -1.0774  1.3443  0.5187
 6102TIP3    H239722   1.019   1.162   5.664  2.6170 -0.2221  4.0872
 6103TIP3   OH239723   4.817   2.516   0.244 -0.7693 -0.1939 -0.5076
 6103TIP3    H139724   4.736   2.487   0.200 -0.1590 -0.0846 -1.7337
 6103TIP3    H239725   4.820   2.464   0.324 -2.2401  0.0503 -0.2659
 6104TIP3   OH239726   0.136   3.495   6.466 -0.4927 -0.1898 -0.8390
 6104TIP3    H139727   0.079   3.528   6.536  0.4067  1.2915 -0.7637
 6104TIP3    H239728   0.220   3.478   6.509 -0.6594 -1.8169 -1.0641
 6105TIP3   OH239729   5.756   0.244  15.080  0.6756  0.2610  0.7469
 6105TIP3    H139730   5.712   0.262  15.163  0.9793 -0.3210  1.0367
 6105TIP3    H239731   5.690   0.263  15.013  0.3178  0.3889  1.1353
 6106TIP3   OH239732   2.595   2.581  12.487 -0.3406  0.4017  0.1852
 6106TIP3    H139733   2.642   2.507  12.525 -0.0472  0.6819  0.3723
 6106TIP3    H239734   2.513   2.584  12.536  0.5300  1.4891  1.6455
 6107TIP3   OH239735   4.052   0.686   2.723 -0.7016  0.3110  0.2436
 6107TIP3    H139736   4.080   0.674   2.632 -0.4313  0.7013  0.2756
 6107TIP3    H239737   4.017   0.601   2.748  1.1370 -0.4309  0.4451
 6108TIP3   OH239738   2.300   3.854   5.347 -0.0313 -0.3605  0.4037
 6108TIP3    H139739   2.235   3.910   5.391 -0.4554  0.3391 -1.0197
 6108TIP3    H239740   2.271   3.853   5.255  1.3271 -0.9864 -0.0387
 6109TIP3   OH239741   5.636   4.086  13.650  0.1510  0.2805  0.0771
 6109TIP3    H139742   5.698   4.127  13.590  0.1639  0.9017  0.4962
 6109TIP3    H239743   5.691   4.055  13.722 -0.0092  0.8183  0.4412
 6110TIP3   OH239744   6.452   1.702   4.916  0.0327 -0.6147 -0.0276
 6110TIP3    H139745   6.511   1.756   4.864 -0.2788  0.8484  1.0407
 6110TIP3    H239746   6.472   1.612   4.891  1.0903 -0.0448 -1.3539
 6111TIP3   OH239747   2.686   0.153  12.911  0.3520  0.3933  0.8954
 6111TIP3    H139748   2.694   0.209  12.834 -1.5831  0.4038  0.6638
 6111TIP3    H239749   2.739   0.076  12.891  1.0932  1.0618  0.2130
 6112TIP3   OH239750   0.456   6.657   2.314 -0.0183 -0.1766  0.5417
 6112TIP3    H139751   0.514   6.676   2.387  0.4754  0.1451  0.0746
 6112TIP3    H239752   0.384   6.719   2.323 -0.3732 -0.6741  1.2038
 6113TIP3   OH239753   4.638   5.707   2.846  0.4688  0.4964  0.1934
 6113TIP3    H139754   4.546   5.681   2.852  0.6055 -0.0862 -0.1641
 6113TIP3    H239755   4.635   5.802   2.833 -0.0172  0.8409  2.3481
 6114TIP3   OH239756   6.486   2.972   0.805  0.5202  0.5680  0.2584
 6114TIP3    H139757   6.453   2.910   0.870 -0.4054  0.1989 -0.5338
 6114TIP3    H239758   6.491   2.921   0.723  1.9594  0.9399  0.1004
 6115TIP3   OH239759   3.348   3.973  14.030 -0.0449 -0.2763  0.3160
 6115TIP3    H139760   3.397   4.038  13.979 -0.5178  0.4084  0.7195
 6115TIP3    H239761   3.401   3.893  14.025  0.0550 -0.1487 -1.0133
 6116TIP3   OH239762   2.265   0.805   4.270  0.2098 -0.4394 -0.0772
 6116TIP3    H139763   2.286   0.863   4.343  0.4300 -0.8637  0.2013
 6116TIP3    H239764   2.170   0.806   4.264  0.1918 -0.4319  0.2358
 6117TIP3   OH239765   1.675   5.369   1.185 -0.4214 -0.3539  0.0242
 6117TIP3    H139766   1.604   5.392   1.244 -0.6727 -0.3714 -0.2722
 6117TIP3    H239767   1.633   5.347   1.102 -0.0924 -0.6275 -0.0766
 6118TIP3   OH239768   1.340   2.121  17.107  0.6963 -0.2047 -0.5046
 6118TIP3    H139769   1.350   2.038  17.155  1.9689 -0.2214 -0.7665
 6118TIP3    H239770   1.354   2.188  17.174 -0.2898 -0.1884 -0.3022
 6119TIP3   OH239771   1.323   4.393  16.887 -0.0867  0.2028 -0.7633
 6119TIP3    H139772   1.321   4.426  16.797  0.5292 -0.5278 -1.0501
 6119TIP3    H239773   1.231   4.374  16.907 -0.4134  1.6712 -0.7308
 6120TIP3   OH239774   4.172   2.938  15.941 -0.1324 -0.3940  0.4616
 6120TIP3    H139775   4.122   2.857  15.934  0.6944 -1.0068  1.4584
 6120TIP3    H239776   4.238   2.932  15.872  0.3186 -0.8604  0.9275
 6121TIP3   OH239777   2.717   5.980  13.634 -0.2763 -0.0334 -0.0621
 6121TIP3    H139778   2.783   5.916  13.662 -2.0656 -1.6220  0.7546
 6121TIP3    H239779   2.667   5.934  13.567 -1.7032  0.4284  0.6509
 6122TIP3   OH239780   0.029   1.958  16.046 -0.0535 -0.3111  0.5371
 6122TIP3    H139781  -0.042   1.912  16.091 -2.4173  0.7901 -1.8191
 6122TIP3    H239782   0.033   1.917  15.960 -0.5612  2.1872 -0.7415
 6123TIP3   OH239783   0.436   4.232  16.568  0.0785 -0.0445 -0.0758
 6123TIP3    H139784   0.404   4.309  16.522  1.7891 -0.1317 -1.4958
 6123TIP3    H239785   0.436   4.163  16.501  2.4791 -0.2085  0.0240
 6124TIP3   OH239786   0.934   1.386  14.653 -0.1273 -0.8082 -0.6850
 6124TIP3    H139787   0.897   1.459  14.703 -0.5600 -1.9498  0.7369
 6124TIP3    H239788   0.858   1.333  14.629  0.2476 -1.1962 -1.0292
 6125TIP3   OH239789   3.884   1.587  15.607  0.0269 -0.1179 -0.1219
 6125TIP3    H139790   3.856   1.497  15.622 -0.4079  0.1724  0.8851
 6125TIP3    H239791   3.900   1.622  15.694 -1.1930  1.2032 -0.3979
 6126TIP3   OH239792   1.805   3.900  14.822 -0.2327 -0.1681  0.3106
 6126TIP3    H139793   1.836   3.818  14.784  2.6227  0.1724  1.5808
 6126TIP3    H239794   1.767   3.948  14.749  2.7845 -0.5490 -1.7153
 6127TIP3   OH239795   2.702   5.847   6.309 -0.3236  0.3199  0.2875
 6127TIP3    H139796   2.698   5.915   6.375 -0.4598  0.6108 -0.0167
 6127TIP3    H239797   2.704   5.765   6.358  0.4587  0.5623  0.6757
 6128TIP3   OH239798   6.543   5.453   1.088  0.2734 -0.1006 -0.0415
 6128TIP3    H139799   6.596   5.374   1.085 -0.0754 -0.3310 -0.3272
 6128TIP3    H239800   6.463   5.426   1.134  0.4886  0.2959  0.5748
 6129TIP3   OH239801   0.700   3.720   6.114 -0.5876  0.8344  0.3611
 6129TIP3    H139802   0.789   3.733   6.147  0.1452 -2.2880 -0.1474
 6129TIP3    H239803   0.700   3.764   6.029 -0.2262  2.6103  1.2296
 6130TIP3   OH239804   0.045   3.159   3.786  0.1903 -0.2892  0.7952
 6130TIP3    H139805   0.099   3.238   3.780 -2.0464  1.3466  0.5823
 6130TIP3    H239806   0.066   3.121   3.871  1.0787  0.7061  1.0441
 6131TIP3   OH239807   4.559   0.424   6.730  0.2915  0.4093  0.0382
 6131TIP3    H139808   4.628   0.393   6.788  1.0165  1.6608 -0.1308
 6131TIP3    H239809   4.492   0.355   6.734 -0.1069  0.8416  3.0463
 6132TIP3   OH239810   4.858   4.970  16.391  0.7076  0.1493  0.8467
 6132TIP3    H139811   4.918   5.043  16.380  0.5077  0.3596  1.1528
 6132TIP3    H239812   4.811   4.966  16.307  0.7618  0.3296  0.8073
 6133TIP3   OH239813   3.461   1.692  15.882  0.3343  0.4511  0.1273
 6133TIP3    H139814   3.431   1.684  15.973 -2.8519 -0.3644 -0.8517
 6133TIP3    H239815   3.510   1.774  15.880  1.0947  0.1521  2.6918
 6134TIP3   OH239816   0.633   2.476  16.040 -0.1412 -0.2605  0.2033
 6134TIP3    H139817   0.552   2.474  16.091 -1.0232 -1.9683 -1.1681
 6134TIP3    H239818   0.685   2.403  16.075  0.9453  0.9538  1.2186
 6135TIP3   OH239819   3.499   2.942  13.152  0.2297 -0.1379  0.1959
 6135TIP3    H139820   3.489   2.847  13.162  0.9198 -0.3073 -0.5349
 6135TIP3    H239821   3.505   2.955  13.057 -0.1852  0.6756  0.2763
 6136TIP3   OH239822   0.968   4.386  11.349 -0.5451  0.2544  0.0586
 6136TIP3    H139823   1.025   4.321  11.307  1.8347  1.1965  1.5654
 6136TIP3    H239824   0.912   4.335  11.408  0.1267 -0.5835 -0.0054
 6137TIP3   OH239825   0.065   5.496  12.104 -0.7674 -0.1318 -0.4746
 6137TIP3    H139826  -0.015   5.547  12.095 -1.2625 -0.3718  1.8008
 6137TIP3    H239827   0.037   5.405  12.099 -0.1427 -0.2539 -2.7187
 6138TIP3   OH239828   3.960   3.900   2.559 -0.1200 -0.2204  0.1192
 6138TIP3    H139829   3.971   3.825   2.500  1.5973 -0.8747  1.1772
 6138TIP3    H239830   3.947   3.975   2.501  1.1858 -0.8846 -1.0889
 6139TIP3   OH239831   1.029   6.587  14.308  0.6259 -0.6675  0.4277
 6139TIP3    H139832   0.999   6.664  14.260 -0.7851 -1.4650 -0.0327
 6139TIP3    H239833   1.125   6.593  14.306  0.5811  0.0258 -1.3174
 6140TIP3   OH239834   2.286   0.527   2.193  0.2037 -0.1127 -0.4734
 6140TIP3    H139835   2.373   0.507   2.156 -0.3861  0.1157 -2.0329
 6140TIP3    H239836   2.255   0.602   2.143 -0.5901  0.2812  0.5888
 6141TIP3   OH239837   3.562   0.341  12.304  0.1195  0.1664 -0.0212
 6141TIP3    H139838   3.657   0.345  12.289  0.7428 -2.5049  2.3422
 6141TIP3    H239839   3.548   0.257  12.347 -3.2792  0.7687  0.3379
 6142TIP3   OH239840   4.149   3.724  13.535  0.0332  0.5042 -0.3535
 6142TIP3    H139841   4.152   3.797  13.597  4.2193  1.1257 -0.9613
 6142TIP3    H239842   4.152   3.646  13.590  0.9325  0.9856  0.3164
 6143TIP3   OH239843   2.956   5.205   2.119  0.3211  0.1086 -0.3252
 6143TIP3    H139844   3.016   5.224   2.047 -1.5910 -0.9837 -2.3258
 6143TIP3    H239845   2.916   5.289   2.140  0.1390  0.2839 -1.3088
 6144TIP3   OH239846   1.477   3.881   4.963  0.3346  0.0742 -0.3395
 6144TIP3    H139847   1.537   3.820   5.006 -1.2759 -0.7118  0.9010
 6144TIP3    H239848   1.390   3.847   4.983 -0.5449  1.3007 -1.8941
 6145TIP3   OH239849   3.631   4.718   2.988  0.2564  0.3120 -0.0005
 6145TIP3    H139850   3.664   4.660   3.057 -0.3931 -1.3645 -1.0445
 6145TIP3    H239851   3.546   4.748   3.020  0.1500 -0.1109  0.1165
 6146TIP3   OH239852   3.368   1.054   6.052  0.0014 -0.1585  0.6988
 6146TIP3    H139853   3.403   1.139   6.080  1.9003 -0.3813 -0.8283
 6146TIP3    H239854   3.403   0.992   6.116 -0.6537  0.0724  1.2959
 6147TIP3   OH239855   3.893   2.718   3.660 -0.1857  0.0516 -0.3831
 6147TIP3    H139856   3.929   2.653   3.600  2.8906  0.5327  0.7606
 6147TIP3    H239857   3.845   2.666   3.725 -1.2037 -0.6888 -1.6853
 6148TIP3   OH239858   4.532   1.158  16.415  0.5643  0.4529  0.2157
 6148TIP3    H139859   4.469   1.105  16.464  0.8596  2.1216  2.5450
 6148TIP3    H239860   4.546   1.108  16.334  0.1700 -2.5550  1.8375
 6149TIP3   OH239861   4.025   6.321   3.965 -0.1359 -0.6803 -0.4368
 6149TIP3    H139862   4.007   6.240   3.917  1.5706 -1.1975 -0.3078
 6149TIP3    H239863   3.942   6.344   4.006 -0.9385 -1.7543 -1.3777
 6150TIP3   OH239864   3.004   3.533   2.157  0.5192  0.0485  0.7798
 6150TIP3    H139865   2.947   3.487   2.219  0.4693 -0.7762  0.1329
 6150TIP3    H239866   3.068   3.467   2.130  0.7338  0.4921  0.1876
 6151TIP3   OH239867   2.588   1.104   3.299 -0.1093  0.3812  0.7134
 6151TIP3    H139868   2.621   1.162   3.231 -0.6688 -0.1952 -0.0615
 6151TIP3    H239869   2.531   1.042   3.253 -1.6703  0.8717  1.8865
 6152TIP3   OH239870   1.695   6.283   2.803 -0.3141 -0.4156 -0.2402
 6152TIP3    H139871   1.682   6.226   2.727  1.2366 -0.0500 -0.8151
 6152TIP3    H239872   1.785   6.314   2.794 -0.1192 -0.3252  1.7373
 6153TIP3   OH239873   3.674   2.281   1.565 -0.3040  0.4483 -0.1247
 6153TIP3    H139874   3.657   2.190   1.588  2.9703 -0.4236 -0.5969
 6153TIP3    H239875   3.661   2.285   1.470 -1.6524  0.8204  0.0646
 6154TIP3   OH239876   3.396   0.031   3.592  0.0459  0.5125 -0.3542
 6154TIP3    H139877   3.341  -0.047   3.598 -0.1883  0.6383 -0.7908
 6154TIP3    H239878   3.468   0.015   3.654  0.5692 -0.5190 -1.1868
 6155TIP3   OH239879   0.041   1.167  10.974 -0.3968  0.2254  0.6373
 6155TIP3    H139880   0.031   1.200  11.063 -1.0222  0.1009  0.6182
 6155TIP3    H239881   0.135   1.170  10.958 -0.3945  1.6263  0.7745
 6156TIP3   OH239882   2.048   3.245  16.283  0.1930 -0.4830 -0.4235
 6156TIP3    H139883   2.057   3.170  16.343 -0.9172  0.0351  0.4274
 6156TIP3    H239884   2.082   3.213  16.200 -0.5177 -2.0322 -0.1501
 6157TIP3   OH239885   1.039   6.012   5.565 -0.7860 -0.1254 -0.6014
 6157TIP3    H139886   0.976   6.069   5.523 -0.8134  0.6088  0.3982
 6157TIP3    H239887   1.023   6.023   5.659 -0.4544 -1.3893 -0.3730
 6158TIP3   OH239888   1.678   6.258  15.101 -0.0210  0.5664 -0.1029
 6158TIP3    H139889   1.610   6.216  15.049  0.0618  2.0487 -1.4930
 6158TIP3    H239890   1.737   6.187  15.126 -1.4141 -0.5513  0.1102
 6159TIP3   OH239891   5.668   5.726  17.203  0.5297 -0.3105 -0.3581
 6159TIP3    H139892   5.620   5.674  17.139  1.1716  0.7058 -1.7341
 6159TIP3    H239893   5.608   5.736  17.277 -0.4806 -0.9752 -1.0672
 6160TIP3   OH239894   2.520   3.281  16.120 -0.1296 -0.6706 -0.0798
 6160TIP3    H139895   2.447   3.230  16.085 -0.1639 -0.1302 -0.8446
 6160TIP3    H239896   2.510   3.368  16.079  1.1183 -0.6819 -0.4706
 6161TIP3   OH239897   0.912   2.101  16.650  0.2159  0.3929  0.4295
 6161TIP3    H139898   0.921   2.079  16.557  0.5144 -0.1275  0.5748
 6161TIP3    H239899   0.922   2.196  16.653  1.0410  0.3348  0.0147
 6162TIP3   OH239900   4.752   0.213   1.854  0.0235 -0.0785 -0.1297
 6162TIP3    H139901   4.731   0.121   1.838 -0.1448 -0.3583  1.5263
 6162TIP3    H239902   4.829   0.230   1.800  1.0769 -1.6713  0.7774
 6163TIP3   OH239903   0.245   5.958   2.704  0.2989  0.5181 -0.3407
 6163TIP3    H139904   0.206   6.043   2.725 -1.0084 -0.1858  0.2326
 6163TIP3    H239905   0.247   5.911   2.787 -1.4839 -0.9636 -1.0617
 6164TIP3   OH239906   4.052   5.710  16.619 -0.0725  0.1275  0.1679
 6164TIP3    H139907   4.006   5.786  16.656  1.3857  2.1323 -1.8824
 6164TIP3    H239908   4.141   5.741  16.604  0.1909 -1.5189 -2.1222
 6165TIP3   OH239909   2.133   5.377  11.692  0.4533 -0.2985 -0.7445
 6165TIP3    H139910   2.095   5.360  11.778 -0.6881  0.2301 -1.1242
 6165TIP3    H239911   2.076   5.443  11.654  0.9784 -0.4875 -1.8877
 6166TIP3   OH239912   0.585   5.327  12.031 -0.4717 -0.1907 -0.2921
 6166TIP3    H139913   0.521   5.321  11.960 -1.3745 -2.1678  0.6080
 6166TIP3    H239914   0.552   5.267  12.098  1.4925 -0.0426  0.8877
 6167TIP3   OH239915   5.678   2.676   3.049  0.4964 -0.0403 -0.2438
 6167TIP3    H139916   5.601   2.726   3.076  0.0991 -1.2645  1.0395
 6167TIP3    H239917   5.649   2.584   3.053  1.7412 -0.4662 -0.6781
 6168TIP3   OH239918   5.060   5.551   3.481  0.0524 -0.6507  0.3344
 6168TIP3    H139919   5.110   5.517   3.407 -2.5996 -1.4302 -1.2659
 6168TIP3    H239920   5.065   5.482   3.547  0.9817 -0.7426  0.1787
 6169TIP3   OH239921   3.830   1.960   2.310 -0.0405  0.0147 -0.5821
 6169TIP3    H139922   3.866   1.887   2.258 -0.5595  0.1400 -1.1185
 6169TIP3    H239923   3.888   2.034   2.290  1.1264 -0.4804  0.7613
 6170TIP3   OH239924   3.322   1.293   6.302 -0.1709 -0.1560  0.2505
 6170TIP3    H139925   3.251   1.251   6.350  0.4575 -1.0207  0.4499
 6170TIP3    H239926   3.393   1.300   6.366  0.1839  0.0136 -0.1526
 6171TIP3   OH239927   6.262   1.642   0.201 -0.3612  0.3662  0.3571
 6171TIP3    H139928   6.177   1.668   0.166 -0.1762 -0.1314 -0.4680
 6171TIP3    H239929   6.253   1.549   0.221  0.3221  0.0346 -0.7814
 6172TIP3   OH239930   0.708   4.649  11.876  0.3187 -0.7547  0.2090
 6172TIP3    H139931   0.626   4.662  11.828  0.4433 -1.1152 -0.1130
 6172TIP3    H239932   0.765   4.603  11.814  0.2125 -1.9593  0.9638
 6173TIP3   OH239933   6.302   1.416  16.043  0.0859 -0.3433 -0.1438
 6173TIP3    H139934   6.356   1.495  16.036 -0.5429  0.1799  0.6785
 6173TIP3    H239935   6.305   1.377  15.956  0.3373  0.6368 -0.5892
 6174TIP3   OH239936   5.909   3.793  14.731  0.6487 -0.0024  0.2750
 6174TIP3    H139937   5.852   3.850  14.680  0.3073 -0.3363  0.2739
 6174TIP3    H239938   5.939   3.727  14.668  1.0345  0.1691  0.2765
 6175TIP3   OH239939   4.697   3.726   0.508 -0.2294 -0.2789 -0.0999
 6175TIP3    H139940   4.642   3.804   0.507 -0.2145 -0.2601 -1.2311
 6175TIP3    H239941   4.671   3.677   0.430  0.5768 -0.8170 -0.0485
 6176TIP3   OH239942   3.469   3.794   5.820 -0.0346  0.7678  0.2079
 6176TIP3    H139943   3.478   3.784   5.915  0.9166  0.1441  0.0637
 6176TIP3    H239944   3.426   3.878   5.809  1.6937  1.8164  1.1325
 6177TIP3   OH239945   2.147   1.836  14.007 -0.4232 -0.5334 -0.1651
 6177TIP3    H139946   2.152   1.905  13.941 -0.8338 -1.8802 -1.6653
 6177TIP3    H239947   2.159   1.755  13.958 -0.8934 -1.6027  1.4071
 6178TIP3   OH239948   5.365   1.782   0.606  0.0707  0.6692  0.2503
 6178TIP3    H139949   5.293   1.788   0.670  1.5147  0.1848  2.0225
 6178TIP3    H239950   5.330   1.728   0.535 -1.3216  0.4724  1.0492
 6179TIP3   OH239951   4.740   6.289   3.767  0.4079  0.3229 -0.4516
 6179TIP3    H139952   4.679   6.356   3.798  1.9752  1.8199 -0.4764
 6179TIP3    H239953   4.692   6.207   3.778 -1.5315  1.4105 -0.3108
 6180TIP3   OH239954   4.226   5.513   2.380  0.6476  0.1635  0.2780
 6180TIP3    H139955   4.170   5.543   2.452  2.2166  2.1727  0.7709
 6180TIP3    H239956   4.238   5.420   2.396 -1.0578  0.0604  1.1826
 6181TIP3   OH239957   5.534   2.903   0.364 -0.5771 -1.0998  0.2316
 6181TIP3    H139958   5.539   2.810   0.385 -0.7920 -0.6453  2.5662
 6181TIP3    H239959   5.494   2.944   0.441  0.3923  1.0546 -0.3069
 6182TIP3   OH239960   5.566   4.808   1.833  0.3214  0.0565 -0.3629
 6182TIP3    H139961   5.557   4.896   1.796  0.6834  1.1180  1.8939
 6182TIP3    H239962   5.479   4.789   1.869  0.0823 -0.7879 -1.3500
 6183TIP3   OH239963   1.154   0.341   2.438 -0.3264  0.0618  0.0298
 6183TIP3    H139964   1.086   0.408   2.429  2.6436  3.2957 -0.7257
 6183TIP3    H239965   1.159   0.324   2.532 -0.4184  1.8901  0.4075
 6184TIP3   OH239966   5.716   5.844   0.403 -0.5468 -0.3465 -0.0992
 6184TIP3    H139967   5.757   5.797   0.331  0.9699  1.0449 -0.1900
 6184TIP3    H239968   5.649   5.898   0.361  0.1377  0.2434 -0.4648
 6185TIP3   OH239969   2.935   2.396  15.373  0.2131 -0.3917  0.1656
 6185TIP3    H139970   2.851   2.414  15.415  0.9263  0.3528  1.3302
 6185TIP3    H239971   2.950   2.302  15.388 -1.0454 -0.8507 -1.2868
 6186TIP3   OH239972   0.723   5.146   4.575 -0.0576 -0.5419 -0.0673
 6186TIP3    H139973   0.802   5.092   4.574  0.7444  0.5664  0.9987
 6186TIP3    H239974   0.726   5.191   4.660 -0.3080  1.6927 -1.1701
 6187TIP3   OH239975   1.981   1.814  11.375  0.2453 -0.4142 -0.1851
 6187TIP3    H139976   1.946   1.893  11.334  2.0147  1.2030  1.2491
 6187TIP3    H239977   1.952   1.819  11.466 -1.3067 -2.5139 -0.5033
 6188TIP3   OH239978   3.478   4.619   4.382  0.1100 -0.0572 -0.1408
 6188TIP3    H139979   3.389   4.617   4.346 -1.1095 -0.6392  2.6283
 6188TIP3    H239980   3.469   4.579   4.469  2.7542  1.4238  0.9101
 6189TIP3   OH239981   3.152   6.652  13.461 -0.2689 -0.1842 -0.1440
 6189TIP3    H139982   3.210   6.700  13.403 -2.0626  0.3973 -1.5627
 6189TIP3    H239983   3.140   6.710  13.536 -2.5379  1.8318 -1.9036
 6190TIP3   OH239984   4.240   5.202  11.679 -0.2144 -0.0136  0.3845
 6190TIP3    H139985   4.238   5.119  11.726 -1.0033  0.5870  1.4499
 6190TIP3    H239986   4.292   5.260  11.734  3.6470 -0.7382 -2.1094
 6191TIP3   OH239987   0.441   4.122   4.760  0.1008 -0.4695 -0.0661
 6191TIP3    H139988   0.525   4.168   4.758 -1.2704  2.1856 -0.7501
 6191TIP3    H239989   0.422   4.102   4.668 -0.4194 -0.3011  0.0035
 6192TIP3   OH239990   6.211   4.568  12.227  0.5066  0.2077 -0.2655
 6192TIP3    H139991   6.131   4.619  12.233  1.1120  1.0545  1.3989
 6192TIP3    H239992   6.265   4.614  12.163  0.5405  0.9609  0.2889
 6193TIP3   OH239993   1.122   3.490  12.085 -0.4052 -0.0614 -0.6500
 6193TIP3    H139994   1.068   3.559  12.124  0.6830  0.5071 -0.1351
 6193TIP3    H239995   1.066   3.412  12.087 -1.1412  0.4720  0.0359
 6194TIP3   OH239996   4.831   5.966   5.426  0.4225 -0.0619 -0.5922
 6194TIP3    H139997   4.834   6.061   5.410 -1.1314 -0.0828 -1.1158
 6194TIP3    H239998   4.884   5.928   5.356  0.3547  0.3626 -0.8776
 6195TIP3   OH239999   5.275   6.502   5.173  0.4834  0.3890  0.5307
 6195TIP3    H140000   5.206   6.454   5.219  0.2048 -0.1527 -0.4163
 6195TIP3    H240001   5.305   6.441   5.105  0.5726  1.3158 -0.2776
 6196TIP3   OH240002   4.195   1.941  10.878  0.2211 -0.0086  0.9513
 6196TIP3    H140003   4.274   1.946  10.932 -0.1990  0.1811  1.5588
 6196TIP3    H240004   4.227   1.942  10.788  0.7737  4.3444  0.9923
 6197TIP3   OH240005   6.666   2.876  15.224 -0.0295  0.7998 -0.0467
 6197TIP3    H140006   6.621   2.804  15.269  1.9947 -0.2689  0.4350
 6197TIP3    H240007   6.660   2.854  15.132 -1.4367  1.2975 -0.1007
 6198TIP3   OH240008   5.063   4.444  13.057  0.5962  0.2353 -0.1418
 6198TIP3    H140009   4.971   4.437  13.082  0.7741 -0.1194  0.4307
 6198TIP3    H240010   5.086   4.535  13.075 -0.3586  1.1075 -2.8283
 6199TIP3   OH240011   0.124   3.292   0.380  0.2212 -0.3911 -0.3033
 6199TIP3    H140012   0.114   3.376   0.336 -0.0286 -0.3038 -0.0836
 6199TIP3    H240013   0.216   3.288   0.405 -0.1824  0.7466  1.5360
 6200TIP3   OH240014   2.161   4.839   5.238 -0.1119  0.4252 -0.4192
 6200TIP3    H140015   2.073   4.837   5.276 -0.0698 -0.2145 -0.3439
 6200TIP3    H240016   2.218   4.865   5.310 -0.2033  0.5338 -0.3869
 6201TIP3   OH240017   6.163   4.289  13.581 -0.5823  0.2106  0.5997
 6201TIP3    H140018   6.124   4.201  13.585 -1.9102  0.8157  1.6566
 6201TIP3    H240019   6.109   4.342  13.639  1.1123  1.4101  1.1512
 6202TIP3   OH240020   0.869   5.117   5.924 -0.4058 -0.2389 -0.0646
 6202TIP3    H140021   0.805   5.090   5.989 -1.4111  0.5985 -0.6784
 6202TIP3    H240022   0.880   5.211   5.938  1.0219 -0.4379  0.3033
 6203TIP3   OH240023   6.336   4.707  13.071 -0.0565 -0.2646 -0.3558
 6203TIP3    H140024   6.427   4.729  13.049  0.7856  0.5311  3.1733
 6203TIP3    H240025   6.293   4.792  13.083 -0.9886 -0.6431 -0.9566
 6204TIP3   OH240026   3.927   1.350  15.994  0.5517 -0.5351  0.6418
 6204TIP3    H140027   4.000   1.398  15.955 -0.0087 -0.3506 -0.2247
 6204TIP3    H240028   3.968   1.289  16.055  1.4358 -0.4947  0.1048
 6205TIP3   OH240029   5.476   5.489  15.051  0.2191  0.5218 -0.1409
 6205TIP3    H140030   5.551   5.458  15.000  1.7833  1.1157  1.6854
 6205TIP3    H240031   5.492   5.582  15.065 -1.5130  0.9510 -0.7390
 6206TIP3   OH240032   6.757   4.196  13.471  0.2492  0.2760 -0.1242
 6206TIP3    H140033   6.834   4.147  13.498 -1.7416 -2.6484  0.6367
 6206TIP3    H240034   6.786   4.287  13.469  2.9818 -0.3769  2.7923
 6207TIP3   OH240035   6.751   4.658   3.201 -0.0959  0.0451  0.4558
 6207TIP3    H140036   6.693   4.596   3.157  0.7693  0.2183 -0.9730
 6207TIP3    H240037   6.693   4.711   3.256 -1.0597 -0.8777  0.3537
 6208TIP3   OH240038   1.488   5.851   1.876 -0.2951 -0.5551  0.4907
 6208TIP3    H140039   1.502   5.765   1.917 -0.1185 -0.6337  0.2684
 6208TIP3    H240040   1.539   5.847   1.795 -3.2626 -1.6840 -1.5156
 6209TIP3   OH240041   6.073   1.951   4.846  0.1978  0.1886  0.2087
 6209TIP3    H140042   6.067   1.951   4.750 -0.2452  1.9265  0.2074
 6209TIP3    H240043   6.128   2.027   4.866  0.2266 -0.1158  1.3426
 6210TIP3   OH240044   0.826   3.024  12.263  0.1148 -0.0535  0.2703
 6210TIP3    H140045   0.782   3.029  12.348 -0.3660 -0.8113  0.0811
 6210TIP3    H240046   0.856   3.113  12.246  2.1452 -0.2993  2.2244
 6211TIP3   OH240047   1.390   0.897  16.557 -0.8221  0.2204  0.1726
 6211TIP3    H140048   1.336   0.858  16.488 -0.5710  2.7103 -1.5817
 6211TIP3    H240049   1.446   0.826  16.586 -2.2406 -1.4071 -0.8470
 6212TIP3   OH240050   3.118   3.768   2.164  0.4622  0.4333  0.8207
 6212TIP3    H140051   3.074   3.685   2.141 -0.4925  0.4551  2.3960
 6212TIP3    H240052   3.175   3.786   2.090 -1.2008 -0.3178 -0.7263
 6213TIP3   OH240053   5.754   5.568   5.840  0.5243 -0.1598  0.1018
 6213TIP3    H140054   5.799   5.494   5.880  1.2639 -0.4928 -1.2689
 6213TIP3    H240055   5.795   5.646   5.879  0.5537 -0.4734  0.6964
 6214TIP3   OH240056   1.482   5.835  10.566 -0.1826 -0.3021  0.4705
 6214TIP3    H140057   1.421   5.785  10.513  0.6590 -0.6351 -0.1897
 6214TIP3    H240058   1.568   5.800  10.545  0.6947  2.6274 -1.4883
 6215TIP3   OH240059   1.275   4.937   3.633 -0.0982 -0.0860  0.2396
 6215TIP3    H140060   1.215   4.988   3.580  0.6758  0.6075  0.0075
 6215TIP3    H240061   1.311   4.872   3.572 -0.9610 -0.8256  0.4966
 6216TIP3   OH240062   0.176   4.806  14.007 -0.1578  0.8847 -0.5265
 6216TIP3    H140063   0.240   4.749  13.965  0.0195  0.3994  0.3848
 6216TIP3    H240064   0.133   4.852  13.934  1.9404  2.0290 -1.1156
 6217TIP3   OH240065   4.439   6.686  13.642  0.2808 -0.6176  0.3466
 6217TIP3    H140066   4.449   6.761  13.701  0.0647  0.3787 -0.8660
 6217TIP3    H240067   4.346   6.684  13.620  0.5327 -0.3210 -0.8008
 6218TIP3   OH240068   1.389   0.857  15.782 -0.8549  0.8665  0.2575
 6218TIP3    H140069   1.366   0.821  15.697 -2.2944 -0.5078  1.1631
 6218TIP3    H240070   1.358   0.947  15.779 -1.2014  0.7281 -0.5587
 6219TIP3   OH240071   2.457   0.180   4.691 -0.5719  0.1815  0.6012
 6219TIP3    H140072   2.522   0.250   4.696 -0.2523 -0.1406  1.0548
 6219TIP3    H240073   2.385   0.218   4.642 -0.6376  1.0243  1.3198
 6220TIP3   OH240074   0.635   0.117   1.797  0.2066  0.5421  0.3654
 6220TIP3    H140075   0.601   0.197   1.838 -3.9789  0.2862 -2.1081
 6220TIP3    H240076   0.644   0.140   1.705  0.7730 -1.3491 -0.0845
 6221TIP3   OH240077   3.657   2.173  10.700  0.3465  0.3867  0.0184
 6221TIP3    H140078   3.637   2.250  10.648  2.6115  1.0434 -0.0040
 6221TIP3    H240079   3.598   2.105  10.667 -1.9551  2.1287  0.2740
 6222TIP3   OH240080   3.211   2.207   0.099 -0.1896  0.1804  0.1599
 6222TIP3    H140081   3.139   2.265   0.124 -0.6848 -0.3450 -0.0215
 6222TIP3    H240082   3.272   2.211   0.173 -0.6289  0.2668  0.5236
 6223TIP3   OH240083   6.460   5.710  12.831 -0.0017 -0.4654  0.5524
 6223TIP3    H140084   6.500   5.754  12.756 -1.6878  0.6879  0.2503
 6223TIP3    H240085   6.530   5.701  12.895  1.0427  0.1680 -0.4660
 6224TIP3   OH240086   4.203   5.916   0.013  0.3056  0.0346  0.2772
 6224TIP3    H140087   4.182   5.843   0.072 -2.0819 -1.5725 -2.2719
 6224TIP3    H240088   4.298   5.911   0.001  0.4284 -1.5250  1.5873
 6225TIP3   OH240089   3.138   0.766  15.372 -1.1827  0.0734 -0.1904
 6225TIP3    H140090   3.127   0.702  15.302 -1.2615  0.7020 -0.7662
 6225TIP3    H240091   3.076   0.836  15.350  1.2414  1.9375 -1.4489
 6226TIP3   OH240092   5.454   2.152  12.058  0.4962  0.8753 -0.2245
 6226TIP3    H140093   5.411   2.197  11.985 -0.2071  0.2138 -0.2332
 6226TIP3    H240094   5.442   2.059  12.038  0.8534  0.6909  0.4132
 6227TIP3   OH240095   2.651   1.084   1.416  0.3423 -0.6456 -0.6244
 6227TIP3    H140096   2.684   1.108   1.503 -0.3303  0.6663 -0.7146
 6227TIP3    H240097   2.675   0.991   1.406 -1.6849 -1.5506  1.9612
 6228TIP3   OH240098   1.686   5.770   0.674  0.1562  0.0297  0.2716
 6228TIP3    H140099   1.697   5.840   0.609  1.1936  0.3473  0.7633
 6228TIP3    H240100   1.690   5.815   0.759 -0.6529 -0.4480  0.5715
 6229TIP3   OH240101   1.609   3.872  16.802 -0.4978 -0.0539 -0.5475
 6229TIP3    H140102   1.576   3.915  16.881 -0.9784 -0.0008 -0.7752
 6229TIP3    H240103   1.691   3.832  16.830 -0.8874 -0.4275  0.1004
 6230TIP3   OH240104   1.349   5.631   2.323 -0.3745  0.2780  0.1261
 6230TIP3    H140105   1.316   5.544   2.343 -0.8744  0.6389  0.9205
 6230TIP3    H240106   1.286   5.691   2.364 -0.5438  1.0367 -1.1844
 6231TIP3   OH240107   5.631   3.741   2.898  0.0071 -0.2118  0.5299
 6231TIP3    H140108   5.555   3.724   2.954  0.3471  0.7006  1.2819
 6231TIP3    H240109   5.700   3.685   2.932 -0.5284 -1.6713 -0.6697
 6232TIP3   OH240110   4.920   0.700  12.873  0.2865 -0.1861  0.4750
 6232TIP3    H140111   4.925   0.605  12.886  0.2318 -0.4871 -1.3829
 6232TIP3    H240112   4.923   0.711  12.778  1.7566  1.7824  0.6926
 6233TIP3   OH240113   6.501   2.812   0.581 -0.7527  0.2532  0.1096
 6233TIP3    H140114   6.439   2.812   0.508 -1.2648  1.7835  0.5106
 6233TIP3    H240115   6.585   2.794   0.541 -1.3683 -1.4530 -0.5069
 6234TIP3   OH240116   1.514   0.113  14.365 -0.1066 -0.0821 -0.0852
 6234TIP3    H140117   1.456   0.108  14.289  1.4139  0.3669 -1.3242
 6234TIP3    H240118   1.595   0.152  14.331 -0.5929  3.6599  2.4992
 6235TIP3   OH240119   2.634   6.630   2.365 -0.0678  0.2882  0.4509
 6235TIP3    H140120   2.637   6.573   2.288  1.7866 -0.9177  1.3528
 6235TIP3    H240121   2.592   6.577   2.433 -2.6158  1.6857  0.0925
 6236TIP3   OH240122   2.488   1.557   5.941  0.0685 -0.3115  0.5431
 6236TIP3    H140123   2.523   1.598   6.020 -1.6938 -1.2226  1.8858
 6236TIP3    H240124   2.393   1.556   5.955 -0.6316  2.0492 -2.8856
 6237TIP3   OH240125   5.148   0.179   1.224  0.6293  0.6037  0.0529
 6237TIP3    H140126   5.088   0.110   1.196 -0.2157  1.1863  0.3540
 6237TIP3    H240127   5.135   0.186   1.318  1.2428  0.6727  0.1321
 6238TIP3   OH240128   1.390   3.888  16.106  0.0905  0.5278  0.1870
 6238TIP3    H140129   1.304   3.887  16.063 -0.7112 -1.2445  1.6477
 6238TIP3    H240130   1.369   3.904  16.199  1.3371  0.1044  0.5530
 6239TIP3   OH240131   6.643   6.403  14.124  0.1940  0.0777  0.3487
 6239TIP3    H140132   6.558   6.406  14.079  0.0669 -1.0785  0.4864
 6239TIP3    H240133   6.621   6.420  14.215  0.2166  0.5707  0.2650
 6240TIP3   OH240134   3.021   3.375  14.393 -0.5261 -0.5018 -0.4183
 6240TIP3    H140135   2.941   3.404  14.438  1.3466  0.5209  2.5825
 6240TIP3    H240136   3.061   3.456  14.361  0.9777 -0.4994  1.2826
 6241TIP3   OH240137   0.540   3.730   2.868 -0.3848 -0.1000  0.0641
 6241TIP3    H140138   0.580   3.767   2.789  3.1342  1.6959  2.3781
 6241TIP3    H240139   0.522   3.639   2.846  0.7089  0.2513 -2.7068
 6242TIP3   OH240140   3.569   4.035   2.971  0.0411 -0.2308  0.1641
 6242TIP3    H140141   3.575   3.975   2.897  0.2675 -0.9658  0.7582
 6242TIP3    H240142   3.658   4.035   3.008 -0.3331 -0.8038  1.1241
 6243TIP3   OH240143   3.406   4.412   4.011 -0.6368  0.0744 -0.5077
 6243TIP3    H140144   3.431   4.369   3.929  1.2713  0.9318 -0.4249
 6243TIP3    H240145   3.370   4.496   3.984  0.2864  0.4914 -0.4876
 6244TIP3   OH240146   4.459   3.537   1.091  0.2337  0.1871  0.0751
 6244TIP3    H140147   4.423   3.457   1.131 -1.4779  0.6860 -0.4226
 6244TIP3    H240148   4.492   3.508   1.006 -0.2606 -0.0086 -0.0500
 6245TIP3   OH240149   4.614   0.847  11.421  0.0013  0.3913  0.8085
 6245TIP3    H140150   4.563   0.923  11.446 -2.6902 -0.6956 -0.9522
 6245TIP3    H240151   4.551   0.776  11.415  1.9327 -1.3708 -0.2732
 6246TIP3   OH240152   2.395   0.498  12.809  0.6271 -0.0776 -0.3675
 6246TIP3    H140153   2.401   0.503  12.905  0.6308 -2.3048 -0.2052
 6246TIP3    H240154   2.484   0.517  12.779  0.8659 -0.3594  0.1390
 6247TIP3   OH240155   2.573   2.178  11.355  0.2732 -0.2978 -0.0301
 6247TIP3    H140156   2.573   2.268  11.324 -1.1019 -0.0271  0.6669
 6247TIP3    H240157   2.510   2.133  11.298  0.7987 -0.7800 -0.2424
 6248TIP3   OH240158   5.946   2.424  14.896 -0.6992  0.0959 -0.5224
 6248TIP3    H140159   5.965   2.383  14.811 -1.4822 -2.4314  0.4395
 6248TIP3    H240160   5.872   2.374  14.931  0.3016  0.3275  2.1550
 6249TIP3   OH240161   3.734   1.717   4.111 -0.1922  0.7268  0.2308
 6249TIP3    H140162   3.803   1.654   4.129  0.9104  1.9516  0.4010
 6249TIP3    H240163   3.715   1.706   4.018 -2.0699 -1.8246  0.8160
 6250TIP3   OH240164   3.985   5.432  16.706  0.3641 -0.0213 -0.3159
 6250TIP3    H140165   3.912   5.373  16.688 -0.7649  1.3875 -0.5566
 6250TIP3    H240166   3.966   5.511  16.655  1.9880  0.4491 -0.2624
 6251TIP3   OH240167   6.724   4.084  14.805 -0.5091 -0.0788 -0.4363
 6251TIP3    H140168   6.801   4.098  14.750 -1.4399 -1.1857 -2.0961
 6251TIP3    H240169   6.748   4.123  14.889  2.7523 -2.3307 -0.1225
 6252TIP3   OH240170   4.464   6.262   5.416  0.5552 -0.1349  0.2210
 6252TIP3    H140171   4.415   6.237   5.338 -0.8545  0.2766  0.9355
 6252TIP3    H240172   4.440   6.354   5.431 -1.5364 -0.9589  2.7175
 6253TIP3   OH240173   6.167   0.565   4.373 -0.6166  0.5657  0.4439
 6253TIP3    H140174   6.233   0.578   4.441 -1.8782  2.1072  1.4295
 6253TIP3    H240175   6.126   0.481   4.395  0.4784 -0.0397  0.2509
 6254TIP3   OH240176   1.412   4.861   5.880  0.1176 -0.2967 -0.4414
 6254TIP3    H140177   1.338   4.912   5.911 -0.4867 -0.0215 -2.2137
 6254TIP3    H240178   1.489   4.906   5.915 -0.4793  0.7302 -0.4196
 6255TIP3   OH240179   0.417   0.435   0.002 -0.2472  0.3210  0.3842
 6255TIP3    H140180   0.462   0.408  -0.078  0.3407 -1.3314  1.2307
 6255TIP3    H240181   0.456   0.520   0.023  0.2230  0.3639 -0.5938
 6256TIP3   OH240182   1.167   2.404  13.278  0.7123 -0.1075  0.0529
 6256TIP3    H140183   1.238   2.370  13.333  1.0464  0.6847  0.1300
 6256TIP3    H240184   1.212   2.441  13.202  0.4147  0.7873  0.3058
 6257TIP3   OH240185   0.397   6.510   6.137 -0.0800 -0.3840  0.0601
 6257TIP3    H140186   0.343   6.431   6.128  0.0778 -0.6803  1.5598
 6257TIP3    H240187   0.408   6.522   6.231 -1.7147  2.5285  0.0159
 6258TIP3   OH240188   2.029   0.721  17.125 -0.2206  0.1094 -0.2867
 6258TIP3    H140189   2.083   0.645  17.148  0.5234  0.3624 -1.1530
 6258TIP3    H240190   1.941   0.685  17.117 -0.1294 -0.3968  0.6933
 6259TIP3   OH240191   0.914   1.583  13.738 -0.3761  0.3213  0.0451
 6259TIP3    H140192   0.990   1.543  13.781 -0.9968  0.5245  1.3671
 6259TIP3    H240193   0.871   1.510  13.693  0.9743  0.3238 -1.3300
 6260TIP3   OH240194   4.418   5.469   4.891 -0.8886  0.3597  0.5502
 6260TIP3    H140195   4.374   5.515   4.963 -1.5409 -2.2252  1.9382
 6260TIP3    H240196   4.372   5.498   4.812 -0.1114  3.3340  1.0465
 6261TIP3   OH240197   0.844   2.819   2.409  0.3103 -0.4707  0.5706
 6261TIP3    H140198   0.869   2.745   2.464 -0.2479 -0.4438  0.8633
 6261TIP3    H240199   0.779   2.867   2.460 -0.6469 -0.7717 -0.3385
 6262TIP3   OH240200   3.096   1.011  16.861 -0.4393 -0.2053  0.0033
 6262TIP3    H140201   3.109   1.003  16.955 -1.9979 -0.7902  0.1985
 6262TIP3    H240202   3.135   1.095  16.838 -0.5968  0.2393  1.2812
 6263TIP3   OH240203   4.197   2.636  13.318 -0.1969 -0.2494  0.3957
 6263TIP3    H140204   4.249   2.615  13.240  1.9446 -1.1597  1.9785
 6263TIP3    H240205   4.117   2.677  13.283  0.4059 -1.1411 -2.2857
 6264TIP3   OH240206   6.488   5.559  16.974  0.1906 -0.2512  0.7987
 6264TIP3    H140207   6.540   5.630  17.013  1.4782  0.2990 -1.6521
 6264TIP3    H240208   6.529   5.479  17.006  0.9301  0.1695  0.9436
 6265TIP3   OH240209   2.614   4.702   1.762 -0.4469  0.0043 -0.2284
 6265TIP3    H140210   2.629   4.631   1.826  0.0287 -0.8706 -1.2762
 6265TIP3    H240211   2.665   4.676   1.686 -2.1091  0.3171 -1.4916
 6266TIP3   OH240212   1.055   2.877  15.558  0.0338 -0.1979 -0.1031
 6266TIP3    H140213   1.012   2.960  15.579 -0.2224 -0.6378  1.2012
 6266TIP3    H240214   1.120   2.899  15.492  1.2879  1.4001  1.5735
 6267TIP3   OH240215   5.673   0.561  17.016 -0.1678  0.2645 -0.1420
 6267TIP3    H140216   5.642   0.511  16.940 -0.2140  0.1347 -0.0378
 6267TIP3    H240217   5.691   0.648  16.981 -1.0558  0.4643 -0.1254
 6268TIP3   OH240218   1.863   1.556   4.185 -0.1625  0.1681 -0.4140
 6268TIP3    H140219   1.884   1.489   4.250 -1.3514 -0.0566 -0.2296
 6268TIP3    H240220   1.773   1.583   4.207 -0.2331  0.7708 -1.3832
 6269TIP3   OH240221   6.324   1.263  11.525 -0.3180  0.3160  0.4951
 6269TIP3    H140222   6.302   1.293  11.614 -1.4139 -0.9265  0.6612
 6269TIP3    H240223   6.240   1.249  11.483  0.1703 -1.1008 -0.0512
 6270TIP3   OH240224   3.335   2.696  11.879  0.5270  0.4861  0.7566
 6270TIP3    H140225   3.374   2.617  11.842  2.1278  1.8560 -0.6627
 6270TIP3    H240226   3.373   2.703  11.966 -1.1245 -1.2876  1.6848
 6271TIP3   OH240227   2.899   1.687  14.000  0.0392 -0.1807 -0.2852
 6271TIP3    H140228   2.841   1.760  14.022 -0.3101 -0.6703  0.4422
 6271TIP3    H240229   2.892   1.678  13.905 -2.7228 -1.5751 -0.0440
 6272TIP3   OH240230   3.715   0.752   2.328 -0.7390  0.0848  0.0092
 6272TIP3    H140231   3.705   0.789   2.415 -1.5488  0.8421 -0.3890
 6272TIP3    H240232   3.776   0.679   2.339  2.4851  2.6291  0.5256
 6273TIP3   OH240233   6.481   4.427   2.133 -0.0571  0.5139  0.1179
 6273TIP3    H140234   6.509   4.508   2.176  1.8203 -0.1279  0.1764
 6273TIP3    H240235   6.490   4.360   2.200 -1.7537  0.2422  0.1153
 6274TIP3   OH240236   1.562   1.405   3.788 -0.2961  0.1603  0.1916
 6274TIP3    H140237   1.491   1.433   3.845  0.4925  0.6380  0.9847
 6274TIP3    H240238   1.641   1.444   3.828  0.8143 -2.7427  1.0709
 6275TIP3   OH240239   3.152   0.023   5.715 -0.0856  0.3611  0.5793
 6275TIP3    H140240   3.180   0.084   5.784 -0.7106  0.5502  0.6671
 6275TIP3    H240241   3.092  -0.038   5.759  1.2162 -0.8971  0.7105
 6276TIP3   OH240242   6.640   4.068   5.442 -0.9485 -0.6878  0.0434
 6276TIP3    H140243   6.607   4.134   5.381 -4.9329 -0.7382  1.8410
 6276TIP3    H240244   6.638   3.986   5.393 -0.2525 -0.1984 -0.8478
 6277TIP3   OH240245   1.209   2.092   5.988  0.3504 -0.0606 -0.3555
 6277TIP3    H140246   1.126   2.049   6.010  0.3029 -0.3719 -1.1093
 6277TIP3    H240247   1.265   2.076   6.064 -0.3773  0.4267  0.2971
 6278TIP3   OH240248   5.549   5.644  13.506 -0.2376  0.4664 -0.4187
 6278TIP3    H140249   5.477   5.657  13.443  0.5656 -0.1284 -1.4939
 6278TIP3    H240250   5.609   5.716  13.488 -0.6784  1.1358  0.6842
 6279TIP3   OH240251   1.429   5.972  11.396  0.1207  0.2305  0.2889
 6279TIP3    H140252   1.419   5.896  11.454  2.7651 -0.4579 -0.0567
 6279TIP3    H240253   1.507   6.017  11.429  0.0376  1.4145 -1.0504
 6280TIP3   OH240254   2.963   2.456   0.965 -0.5732 -0.2186 -0.3844
 6280TIP3    H140255   3.034   2.504   0.922  1.3800 -0.1079  2.5998
 6280TIP3    H240256   2.992   2.365   0.964 -0.7200 -0.2759  0.2236
 6281TIP3   OH240257   5.326   4.642   3.030  0.9195  0.0832 -0.6496
 6281TIP3    H140258   5.416   4.632   3.060  0.5138 -0.0618  0.5873
 6281TIP3    H240259   5.274   4.648   3.111 -0.2449 -0.4987 -1.3230
 6282TIP3   OH240260   5.105   3.271   4.184  0.3650  0.2628  0.3873
 6282TIP3    H140261   5.189   3.316   4.189  0.0229  0.7890  2.5099
 6282TIP3    H240262   5.043   3.332   4.226 -0.9085 -0.4614 -0.3834
 6283TIP3   OH240263   4.393   3.862   3.104  0.5134  0.4692  0.3103
 6283TIP3    H140264   4.376   3.807   3.027 -2.9660 -0.9720  1.9071
 6283TIP3    H240265   4.426   3.802   3.170 -0.4065  0.8703  1.1568
 6284TIP3   OH240266   1.425   2.802   0.517  0.3139 -0.2899 -0.8454
 6284TIP3    H140267   1.411   2.851   0.436 -1.4893 -2.0439 -1.6683
 6284TIP3    H240268   1.477   2.726   0.491 -0.3164 -0.8942 -0.3852
 6285TIP3   OH240269   5.799   3.386   5.523 -0.2219  0.1593  0.2125
 6285TIP3    H140270   5.802   3.411   5.615  0.9072  0.8709  0.0000
 6285TIP3    H240271   5.787   3.469   5.476 -1.2070 -0.2358 -0.2771
 6286TIP3   OH240272   4.188   1.043   0.376 -0.2127 -0.0462  0.2603
 6286TIP3    H140273   4.182   1.096   0.456 -0.9626  0.6315 -0.2300
 6286TIP3    H240274   4.098   1.034   0.345 -0.0191 -0.9938 -0.0778
 6287TIP3   OH240275   5.365   0.545  15.517 -0.1302 -0.0510 -0.0866
 6287TIP3    H140276   5.403   0.568  15.602  0.4949 -0.2014 -0.3184
 6287TIP3    H240277   5.378   0.622  15.463  0.4263 -0.3228 -0.3534
 6288TIP3   OH240278   1.735   0.844   3.656 -0.2683  0.5026  0.4564
 6288TIP3    H140279   1.657   0.900   3.661 -0.2763  0.5817 -0.4804
 6288TIP3    H240280   1.706   0.766   3.609  0.6394  1.3375 -1.6393
 6289TIP3   OH240281   2.768   5.719   4.814 -0.4876  0.2394 -0.4216
 6289TIP3    H140282   2.683   5.697   4.852 -0.7299  1.6224 -0.0977
 6289TIP3    H240283   2.804   5.787   4.872  2.0605 -2.0973  0.9770
 6290TIP3   OH240284   4.117   0.605  16.664  0.2684  0.3108 -0.0452
 6290TIP3    H140285   4.210   0.620  16.648  0.3016 -0.8390 -1.0901
 6290TIP3    H240286   4.081   0.692  16.684  1.1419  1.1497 -1.8870
 6291TIP3   OH240287   1.142   5.816  15.327  0.4424 -0.2640  0.3649
 6291TIP3    H140288   1.096   5.819  15.243  0.3685  1.1196  0.4286
 6291TIP3    H240289   1.079   5.851  15.390  0.1568 -2.1481  1.2108
 6292TIP3   OH240290   2.727   4.687   3.213 -0.7396  0.2675  0.2294
 6292TIP3    H140291   2.788   4.741   3.163  0.2099 -0.5480  0.4833
 6292TIP3    H240292   2.665   4.654   3.148 -1.0278  1.2458 -0.0061
 6293TIP3   OH240293   2.464   2.443  14.089  0.3352  0.3299  0.0547
 6293TIP3    H140294   2.420   2.491  14.159 -0.9381 -0.7073  0.0012
 6293TIP3    H240295   2.454   2.351  14.113  1.6047  0.0278 -0.5012
 6294TIP3   OH240296   1.035   2.192   2.460  0.5848 -0.5450  0.3030
 6294TIP3    H140297   1.046   2.099   2.439 -0.3783 -0.4461 -0.7085
 6294TIP3    H240298   1.113   2.234   2.425  0.8347 -0.9192  0.4053
 6295TIP3   OH240299   3.261   0.858  10.916 -0.3020  0.0690  0.1462
 6295TIP3    H140300   3.300   0.945  10.901  0.3490  0.2865  2.6525
 6295TIP3    H240301   3.314   0.799  10.862  0.1243  1.0383 -0.5391
 6296TIP3   OH240302   0.387   6.185  12.255  0.2326  0.5374  0.4575
 6296TIP3    H140303   0.299   6.206  12.285 -0.1730  0.2734 -0.5215
 6296TIP3    H240304   0.375   6.151  12.167  1.1431 -1.1617  0.9464
 6297TIP3   OH240305   1.080   1.957   2.015  0.3325  0.0253  0.4279
 6297TIP3    H140306   0.988   1.934   2.006  0.2254  0.4606  0.3807
 6297TIP3    H240307   1.127   1.881   1.981  0.0118 -0.5765  1.3106
 6298TIP3   OH240308   0.160   2.678   1.709  0.2192  0.2836 -0.0748
 6298TIP3    H140309   0.239   2.624   1.707  0.1677  0.2411 -1.8114
 6298TIP3    H240310   0.174   2.745   1.642 -0.7603  0.9408  0.3551
 6299TIP3   OH240311   4.025   5.928  13.708 -0.4611  0.8093 -0.4067
 6299TIP3    H140312   3.959   5.929  13.639 -1.7350  0.6712  0.7773
 6299TIP3    H240313   4.040   5.835  13.725 -1.1247  0.8431  0.3958
 6300TIP3   OH240314   0.010   4.429  14.798 -0.2746  0.1083  0.6506
 6300TIP3    H140315   0.032   4.436  14.706 -2.1843 -0.8028  0.0590
 6300TIP3    H240316   0.092   4.445  14.845  0.3024  2.6798 -1.0939
 6301TIP3   OH240317   1.849   6.190   4.376  0.6610 -0.6412  0.6119
 6301TIP3    H140318   1.892   6.107   4.394  2.3416  0.2658  0.9984
 6301TIP3    H240319   1.919   6.255   4.381 -0.3679  0.6635 -0.9523
 6302TIP3   OH240320   0.292   1.167  10.943  0.0685  0.6077 -0.3071
 6302TIP3    H140321   0.329   1.224  10.875  1.9943  2.5840  2.2214
 6302TIP3    H240322   0.346   1.088  10.941 -0.1251  0.4863 -1.2628
 6303TIP3   OH240323   1.359   5.769  11.547 -0.2959  0.4209 -0.3461
 6303TIP3    H140324   1.285   5.808  11.593 -1.0760 -0.5008 -0.7941
 6303TIP3    H240325   1.341   5.676  11.546 -0.3651  0.4034 -2.5947
 6304TIP3   OH240326   5.480   5.698  14.162 -0.6613  0.1579  0.5612
 6304TIP3    H140327   5.472   5.645  14.083  2.0462 -1.7255  1.4351
 6304TIP3    H240328   5.491   5.635  14.233  1.4469  1.8294  1.8219
 6305TIP3   OH240329   3.981   2.905  13.457 -0.1375 -0.1322 -0.2068
 6305TIP3    H140330   4.077   2.912  13.457 -0.0879 -0.6903 -0.7911
 6305TIP3    H240331   3.960   2.873  13.545  0.0114  2.1502  0.7134
 6306TIP3   OH240332   3.077   2.807  14.843 -0.1602  0.0859 -0.0475
 6306TIP3    H140333   3.108   2.877  14.900  1.0993  0.2631 -0.9198
 6306TIP3    H240334   3.053   2.735  14.903 -0.3091  0.8051  0.7707
 6307TIP3   OH240335   3.020   1.925   4.998  0.4273 -0.5047  0.7610
 6307TIP3    H140336   2.938   1.973   5.010  0.7546  0.2685  0.0074
 6307TIP3    H240337   3.076   1.956   5.070  0.3432 -0.3930  0.7791
 6308TIP3   OH240338   0.720   1.989   0.261  0.0889  0.1957 -0.1342
 6308TIP3    H140339   0.708   1.926   0.333  0.9355 -1.5051 -1.4120
 6308TIP3    H240340   0.631   2.016   0.238 -0.3010 -0.5587  0.4344
 6309TIP3   OH240341   6.384   4.101   4.823  0.4968  0.0124 -0.0354
 6309TIP3    H140342   6.290   4.083   4.828 -0.3004  3.5552  0.3166
 6309TIP3    H240343   6.399   4.169   4.889  2.3832  2.7383 -3.0226
 6310TIP3   OH240344   3.892   0.691  13.202 -0.2450  0.4882 -0.0991
 6310TIP3    H140345   3.952   0.745  13.151  0.0640 -0.0313 -0.2922
 6310TIP3    H240346   3.948   0.624  13.241 -0.6786  0.0990 -0.1466
 6311TIP3   OH240347   5.056   2.902  16.523  0.3859 -0.8371 -0.1175
 6311TIP3    H140348   5.109   2.961  16.576  1.1298  0.7029 -2.4261
 6311TIP3    H240349   5.119   2.857  16.466 -0.5698  1.2879 -3.1709
 6312TIP3   OH240350   4.980   0.730  13.733  0.2417  0.0545  0.1670
 6312TIP3    H140351   4.945   0.762  13.816  1.2213  1.2395  0.1483
 6312TIP3    H240352   4.909   0.744  13.669 -0.2869 -0.2886  0.6668
 6313TIP3   OH240353   1.642   6.188  15.850 -0.2031 -0.1029  0.1729
 6313TIP3    H140354   1.561   6.212  15.896  0.3467  2.1007  0.1170
 6313TIP3    H240355   1.658   6.097  15.875 -2.7999 -0.6750 -0.0006
 6314TIP3   OH240356   6.639   1.608   6.094  0.2465 -0.3253  0.4255
 6314TIP3    H140357   6.568   1.556   6.133  1.9826 -2.9961  0.2950
 6314TIP3    H240358   6.595   1.683   6.055 -2.4692 -1.6658  0.6582
 6315TIP3   OH240359   2.785   4.651  16.193  0.1139 -0.7768  0.3393
 6315TIP3    H140360   2.870   4.608  16.182  0.1535 -1.0335  1.4891
 6315TIP3    H240361   2.735   4.592  16.250 -0.0696  0.3665  1.4051
 6316TIP3   OH240362   1.235   2.154  12.128  0.1352 -0.0353 -0.1065
 6316TIP3    H140363   1.235   2.059  12.111  0.6451  0.1597 -1.3181
 6316TIP3    H240364   1.318   2.185  12.092  0.1536  0.8266  0.6423
 6317TIP3   OH240365   5.052   1.392  14.905 -0.5772 -0.0360 -0.3788
 6317TIP3    H140366   5.133   1.443  14.913 -0.6938 -0.0020  0.6945
 6317TIP3    H240367   5.068   1.334  14.829  0.2573  0.3084 -0.4821
 6318TIP3   OH240368   4.337   4.865  14.537  0.1083 -0.4356 -0.0885
 6318TIP3    H140369   4.334   4.773  14.564  0.1546 -0.4773 -0.2218
 6318TIP3    H240370   4.267   4.907  14.586 -1.0708 -0.8885 -1.2911
 6319TIP3   OH240371   6.214   4.286   1.328 -0.0565 -0.1309  0.2263
 6319TIP3    H140372   6.151   4.296   1.400 -0.8527 -1.1944 -0.2823
 6319TIP3    H240373   6.160   4.291   1.249  1.0849  3.3813 -0.4741
 6320TIP3   OH240374   1.710   0.829   1.707  0.9128  0.5312 -0.2707
 6320TIP3    H140375   1.623   0.792   1.692  0.8279  1.1088 -1.3126
 6320TIP3    H240376   1.698   0.890   1.780  0.7096 -0.2656  0.3759
 6321TIP3   OH240377   5.619   2.940  15.071  0.3462 -0.0390  0.2381
 6321TIP3    H140378   5.644   2.854  15.106  1.0296 -0.6654 -1.6915
 6321TIP3    H240379   5.536   2.923  15.026  0.2859  0.4127  0.1805
 6322TIP3   OH240380   0.593   3.572   4.509 -0.0163  0.7612 -0.1397
 6322TIP3    H140381   0.504   3.583   4.474  0.1738 -1.2846 -1.3969
 6322TIP3    H240382   0.633   3.658   4.498 -1.4531  1.4025 -0.6936
 6323TIP3   OH240383   3.311   0.348  12.010  0.1680  0.1707 -0.0546
 6323TIP3    H140384   3.383   0.379  11.954  0.9341 -2.4622 -0.6714
 6323TIP3    H240385   3.353   0.288  12.071 -1.3527 -0.5149  0.3469
 6324TIP3   OH240386   2.542   0.201  13.961 -0.0670  0.4881 -0.7369
 6324TIP3    H140387   2.540   0.243  14.047 -2.2293  1.0607 -1.0033
 6324TIP3    H240388   2.466   0.143  13.961  0.6134 -0.4428 -1.8199
 6325TIP3   OH240389   4.434   4.373   3.746 -0.0345  0.4272  0.2556
 6325TIP3    H140390   4.526   4.350   3.732 -0.5664 -1.5264 -0.2225
 6325TIP3    H240391   4.410   4.422   3.668  0.1057 -0.6913 -0.5083
 6326TIP3   OH240392   2.499   1.962  15.104 -0.3120 -0.1643 -0.2032
 6326TIP3    H140393   2.589   1.931  15.090 -0.2529 -0.6003  0.9633
 6326TIP3    H240394   2.444   1.886  15.084 -0.3972 -0.0130 -0.5460
 6327TIP3   OH240395   6.277   0.613  13.185 -0.9208 -0.3738 -0.0267
 6327TIP3    H140396   6.360   0.577  13.154 -0.6847 -0.8175  1.0741
 6327TIP3    H240397   6.301   0.680  13.248 -1.3927  0.6098 -0.8639
 6328TIP3   OH240398   4.161   2.244   5.659  0.2683  0.2537  0.1453
 6328TIP3    H140399   4.234   2.296   5.693  1.5096 -1.4956  0.2567
 6328TIP3    H240400   4.144   2.280   5.572 -0.3762  2.2318  1.0203
 6329TIP3   OH240401   4.198   2.054   0.350 -0.6571 -0.2527  0.5069
 6329TIP3    H140402   4.127   2.048   0.414  0.2464 -2.3524  1.4251
 6329TIP3    H240403   4.163   2.010   0.272 -1.5223  1.7289 -0.2875
 6330TIP3   OH240404   0.764   1.994  15.601 -0.4044 -0.2667 -0.1572
 6330TIP3    H140405   0.822   2.055  15.645 -0.2869 -0.9932  0.7162
 6330TIP3    H240406   0.813   1.966  15.523  0.7449 -1.4076  0.9297
 6331TIP3   OH240407   3.214   4.738  10.517  0.9445  0.1043 -0.0290
 6331TIP3    H140408   3.131   4.723  10.562  0.0897 -2.1632 -2.1446
 6331TIP3    H240409   3.272   4.670  10.551  0.8886 -0.3862 -0.8852
 6332TIP3   OH240410   5.253   6.003  14.808 -0.2555  0.4809 -0.1494
 6332TIP3    H140411   5.296   6.028  14.726  0.1854  0.6287  0.1277
 6332TIP3    H240412   5.263   5.908  14.812  0.0065  0.5105 -0.1062
 6333TIP3   OH240413   0.496   3.319  12.227  0.2595 -0.0438  0.2637
 6333TIP3    H140414   0.549   3.261  12.281  0.1070 -0.6098 -0.1939
 6333TIP3    H240415   0.527   3.407  12.249  0.3503 -0.2790  1.1044
 6334TIP3   OH240416   4.243   5.124  14.666 -0.1114 -0.5473  0.4874
 6334TIP3    H140417   4.170   5.102  14.724 -1.3506  0.7363 -0.5177
 6334TIP3    H240418   4.203   5.172  14.594  1.7062 -0.0052 -0.2206
 6335TIP3   OH240419   0.410   1.398  11.110 -0.2897  0.5410  0.2848
 6335TIP3    H140420   0.354   1.369  11.037 -0.5105 -0.7807  0.9548
 6335TIP3    H240421   0.497   1.367  11.087 -0.3245  0.2872  0.4969
 6336TIP3   OH240422   5.222   5.503  13.394  0.3284 -0.0382  0.3105
 6336TIP3    H140423   5.287   5.443  13.357  0.9698  0.4746  0.5816
 6336TIP3    H240424   5.217   5.575  13.331 -0.3259 -0.2888  0.0624
 6337TIP3   OH240425   3.335   5.212   3.333  0.5816  0.3039 -0.6623
 6337TIP3    H140426   3.393   5.169   3.271 -2.1153 -0.4927 -2.8279
 6337TIP3    H240427   3.311   5.144   3.396  1.1635  0.3522 -0.3892
 6338TIP3   OH240428   5.792   3.495   5.060 -0.6683  0.2371  0.0547
 6338TIP3    H140429   5.777   3.574   5.112 -0.0279  1.0475 -0.9583
 6338TIP3    H240430   5.887   3.491   5.049 -0.7867  0.0935 -1.0542
 6339TIP3   OH240431   3.730   1.591  12.735  0.1104 -0.4594  0.0686
 6339TIP3    H140432   3.751   1.540  12.656 -0.6463  0.5316 -0.8011
 6339TIP3    H240433   3.662   1.652  12.706  0.8383  0.8934  1.1357
 6340TIP3   OH240434   0.629   4.897  12.512 -0.6284  0.1910 -0.5211
 6340TIP3    H140435   0.681   4.906  12.591  0.0530  0.8383 -1.0351
 6340TIP3    H240436   0.570   4.824  12.530 -0.9758  0.7883  0.8488
 6341TIP3   OH240437   1.363   2.332  14.634 -0.1317  0.1336 -0.2569
 6341TIP3    H140438   1.414   2.285  14.568 -0.0882 -0.2580  0.0507
 6341TIP3    H240439   1.370   2.424  14.608  0.2350  0.0271 -0.5566
 6342TIP3   OH240440   6.401   4.327  11.895  0.0685 -0.1635 -0.2295
 6342TIP3    H140441   6.327   4.387  11.902 -0.0652 -0.3607  0.0806
 6342TIP3    H240442   6.367   4.244  11.929  0.4126 -0.2713 -0.1467
 6343TIP3   OH240443   1.579   5.282  16.241 -0.0071  0.0026  0.6491
 6343TIP3    H140444   1.611   5.342  16.173  2.1568 -1.5863  0.1585
 6343TIP3    H240445   1.634   5.300  16.317  0.2829 -0.9505  0.6760
 6344TIP3   OH240446   5.666   3.603   0.159 -1.0798  0.1721 -0.2376
 6344TIP3    H140447   5.725   3.561   0.096 -1.7540 -0.0352 -0.7456
 6344TIP3    H240448   5.722   3.628   0.232 -0.5273 -0.9075 -0.2751
 6345TIP3   OH240449   4.213   5.555  14.813  0.0514  0.2262  0.1863
 6345TIP3    H140450   4.190   5.523  14.725 -1.7241  2.7494 -0.3461
 6345TIP3    H240451   4.135   5.538  14.866  0.3723  0.5500  0.7683
 6346TIP3   OH240452   6.551   3.050   1.156 -0.0472 -0.1985 -0.3289
 6346TIP3    H140453   6.635   3.095   1.145  0.4988 -1.2435 -0.5743
 6346TIP3    H240454   6.573   2.957   1.155 -1.2002 -0.4933 -0.2593
 6347TIP3   OH240455   1.246   5.815  16.137  0.4968 -0.2029  0.0097
 6347TIP3    H140456   1.196   5.734  16.147  0.3341 -0.1106 -0.0571
 6347TIP3    H240457   1.210   5.874  16.203 -0.6491  0.4412 -1.1505
 6348TIP3   OH240458   4.976   3.267   0.771 -0.5476  0.3955 -0.5946
 6348TIP3    H140459   5.062   3.308   0.767  0.1892 -0.9275  0.8694
 6348TIP3    H240460   4.919   3.334   0.809  0.2159  0.7183  0.0079
 6349TIP3   OH240461   5.408   3.869  11.079  0.2135 -0.0562 -0.0134
 6349TIP3    H140462   5.433   3.829  11.162  2.6142  0.3196 -0.4928
 6349TIP3    H240463   5.369   3.797  11.029 -2.0806 -0.1085  1.6497
 6350TIP3   OH240464   5.211   4.372  15.694 -0.5493 -0.4415 -0.2118
 6350TIP3    H140465   5.194   4.466  15.686  0.8951 -0.1473 -0.1568
 6350TIP3    H240466   5.267   4.352  15.619  1.0162 -0.7612  1.0093
 6351TIP3   OH240467   4.906   6.470  12.647  0.1327  0.2144 -0.3082
 6351TIP3    H140468   4.907   6.522  12.566  0.0685  0.8775  0.1060
 6351TIP3    H240469   4.847   6.519  12.705  0.1547 -0.2743  0.1253
 6352TIP3   OH240470   2.274   0.777   0.246 -0.5329  0.0508  0.0005
 6352TIP3    H140471   2.269   0.743   0.157 -1.8492 -0.0050  0.0737
 6352TIP3    H240472   2.225   0.860   0.243 -1.9271 -0.6867  0.9827
 6353TIP3   OH240473   0.674   2.638  15.023  0.3278  0.1760  0.9463
 6353TIP3    H140474   0.715   2.596  14.947  0.0077  0.3453  0.6732
 6353TIP3    H240475   0.645   2.723  14.990 -2.6637 -0.9292  0.3276
 6354TIP3   OH240476   3.659   1.158  12.658  0.3397 -0.3934 -0.4894
 6354TIP3    H140477   3.727   1.181  12.596  0.1721  0.3132 -0.4192
 6354TIP3    H240478   3.580   1.201  12.625  0.3901  0.5612  0.5442
 6355TIP3   OH240479   2.702   6.592  17.302  0.6226  0.2218 -0.4158
 6355TIP3    H140480   2.607   6.580  17.302  0.5184  0.9938  0.0185
 6355TIP3    H240481   2.737   6.504  17.319 -0.0595  0.1377  0.6241
 6356TIP3   OH240482   4.261   2.875  14.877  0.0821  0.2804 -0.5154
 6356TIP3    H140483   4.177   2.830  14.871 -0.0524  0.1886  1.4367
 6356TIP3    H240484   4.247   2.944  14.941  1.0433  1.3966 -1.4442
 6357TIP3   OH240485   3.601   0.225  15.285  0.1805  0.6648  0.1287
 6357TIP3    H140486   3.567   0.311  15.310  1.0234  1.4393 -1.2707
 6357TIP3    H240487   3.689   0.222  15.323  0.1722  0.4413  0.1313
 6358TIP3   OH240488   3.231   0.888   3.731  0.5276 -0.6386  0.7674
 6358TIP3    H140489   3.248   0.799   3.700 -2.4905 -0.7956 -0.7739
 6358TIP3    H240490   3.165   0.878   3.800  0.1955  0.3958  0.6168
 6359TIP3   OH240491   0.131   4.315   3.112  0.0129  0.7370  0.0851
 6359TIP3    H140492   0.158   4.271   3.193  0.7793  1.0806  0.0159
 6359TIP3    H240493   0.115   4.243   3.051 -0.9655  0.4514  0.6474
 6360TIP3   OH240494   1.552   6.654   1.735  0.2335  0.5649 -0.3645
 6360TIP3    H140495   1.514   6.742   1.732  1.5595  1.3216  2.0239
 6360TIP3    H240496   1.516   6.615   1.815  0.3406 -0.7282 -0.9237
 6361TIP3   OH240497   4.739   4.315   4.846  0.2741 -0.9234  0.2704
 6361TIP3    H140498   4.813   4.353   4.799  0.0255 -0.7935 -0.0214
 6361TIP3    H240499   4.664   4.331   4.788 -0.3999  0.9888  1.5725
 6362TIP3   OH240500   0.973   5.543  14.562  0.0838 -0.8763  0.3158
 6362TIP3    H140501   0.958   5.587  14.479  1.2819 -1.3448 -0.1818
 6362TIP3    H240502   0.898   5.565  14.616 -0.8080 -0.7162 -0.9615
 6363TIP3   OH240503   5.744   2.696  15.131  0.7045 -0.3284  0.2312
 6363TIP3    H140504   5.706   2.609  15.141 -0.4145  0.0427 -0.6372
 6363TIP3    H240505   5.767   2.702  15.039  0.0795  0.5657  0.1209
 6364TIP3   OH240506   0.044   5.229   5.227 -0.1743  0.0362 -0.1548
 6364TIP3    H140507   0.107   5.167   5.262 -1.0290 -0.9212 -0.2615
 6364TIP3    H240508   0.097   5.293   5.178  0.6605 -1.0878 -0.7590
 6365TIP3   OH240509   3.977   5.422  13.774  0.2897 -0.4267 -0.3541
 6365TIP3    H140510   4.027   5.426  13.855  0.4674 -0.4601 -0.4627
 6365TIP3    H240511   3.885   5.429  13.802  0.3547 -0.3624 -0.1583
 6366TIP3   OH240512   2.523   1.469  11.724  0.0770 -0.5533 -0.3478
 6366TIP3    H140513   2.593   1.513  11.773 -1.2211  2.0438 -0.7077
 6366TIP3    H240514   2.564   1.443  11.642  0.4921  1.5588 -0.8463
 6367TIP3   OH240515   6.665   3.034   1.448  0.0637  0.2998 -0.6423
 6367TIP3    H140516   6.618   3.073   1.374  2.2159  1.7866 -1.3223
 6367TIP3    H240517   6.702   2.953   1.414 -0.8664 -0.2091 -0.4789
 6368TIP3   OH240518   2.422   2.910  17.264 -0.1172  0.5178  0.4387
 6368TIP3    H140519   2.436   2.972  17.192 -1.8396  1.7360  1.0701
 6368TIP3    H240520   2.327   2.898  17.267  0.1705 -2.8167 -0.1248
 6369TIP3   OH240521   3.060   6.040  10.973  0.1700  0.1352  0.0678
 6369TIP3    H140522   3.022   6.058  10.887 -2.2540  0.0616  1.0170
 6369TIP3    H240523   3.015   6.101  11.032 -0.5830 -1.8817  1.7268
 6370TIP3   OH240524   2.264   5.596   1.746  0.4199 -0.4753 -0.0935
 6370TIP3    H140525   2.171   5.594   1.768  0.1559  1.5316 -0.8294
 6370TIP3    H240526   2.266   5.604   1.650  1.3527 -0.5310 -0.0884
 6371TIP3   OH240527   4.948   2.479  15.430  0.6637  0.1388 -0.2320
 6371TIP3    H140528   4.961   2.471  15.524 -0.5445 -1.5909 -0.1652
 6371TIP3    H240529   4.860   2.514  15.420  0.5133 -0.3486 -0.7061
 6372TIP3   OH240530   3.887   1.560   1.458  0.2141 -0.3811  0.4840
 6372TIP3    H140531   3.933   1.539   1.377  1.2562  1.0229  0.6636
 6372TIP3    H240532   3.795   1.542   1.440  0.4514 -0.2098 -0.9528
 6373TIP3   OH240533   0.212   5.613  12.388 -0.1510 -0.0652  0.0819
 6373TIP3    H140534   0.262   5.595  12.308 -0.3520 -3.3169  0.5528
 6373TIP3    H240535   0.156   5.687  12.365 -1.3722 -1.8557 -3.3947
 6374TIP3   OH240536   1.943   3.639  13.248 -0.5853 -0.2276 -0.5487
 6374TIP3    H140537   1.857   3.626  13.288 -0.3394 -0.8460 -0.2131
 6374TIP3    H240538   2.004   3.592  13.305 -0.1248 -0.4503 -1.2089
 6375TIP3   OH240539   4.686   6.416  12.863 -0.2157  0.0013 -0.7302
 6375TIP3    H140540   4.777   6.409  12.891 -0.7007 -0.4049  0.8435
 6375TIP3    H240541   4.639   6.442  12.942 -1.4451  0.3563 -1.5617
 6376TIP3   OH240542   3.279   0.543  13.274  0.3435 -0.5598  0.5222
 6376TIP3    H140543   3.241   0.558  13.188  0.7404  0.8001  0.5630
 6376TIP3    H240544   3.216   0.580  13.336  2.1033  2.7196  0.5355
 6377TIP3   OH240545   2.763   4.411   3.284 -0.0042  0.2357  0.1219
 6377TIP3    H140546   2.733   4.501   3.291 -1.8889 -0.4141  1.0293
 6377TIP3    H240547   2.797   4.404   3.195 -1.0491  1.4865 -0.4105
 6378TIP3   OH240548   3.684   0.764  14.753  0.0583  0.1221 -0.0599
 6378TIP3    H140549   3.601   0.717  14.758  0.3887 -0.4945 -0.2200
 6378TIP3    H240550   3.747   0.699  14.721 -0.0510  1.4236 -3.1989
 6379TIP3   OH240551   2.124   6.287   4.456 -0.7264 -0.2524 -0.0117
 6379TIP3    H140552   2.172   6.228   4.514  1.3949  1.8667  0.5897
 6379TIP3    H240553   2.085   6.351   4.514  1.2380  1.7728 -0.7611
 6380TIP3   OH240554   6.005   4.765   0.301  0.2689  0.3132  0.0205
 6380TIP3    H140555   5.961   4.841   0.340  0.6764  1.1575 -1.0727
 6380TIP3    H240556   5.954   4.747   0.222 -0.5584 -1.3650  0.9073
 6381TIP3   OH240557   1.095   6.349   5.608  0.1334 -0.7985  0.1918
 6381TIP3    H140558   1.138   6.289   5.668  0.9604  0.7982  1.2649
 6381TIP3    H240559   1.048   6.292   5.546  1.0252 -2.5146  1.0334
 6382TIP3   OH240560   3.552   3.053   3.967 -0.3216  1.0442  0.1542
 6382TIP3    H140561   3.594   3.011   3.892  0.9011  3.4745 -0.6611
 6382TIP3    H240562   3.493   2.987   4.002  1.3893 -1.2492 -1.0122
 6383TIP3   OH240563   2.395   3.037  11.229 -0.0288  0.1499 -0.5485
 6383TIP3    H140564   2.422   2.960  11.278  1.8553  0.0021 -1.7386
 6383TIP3    H240565   2.302   3.023  11.211  0.3488 -1.9897 -1.0088
 6384TIP3   OH240566   0.542   2.697  13.399  0.2571  0.1651  0.5705
 6384TIP3    H140567   0.457   2.675  13.438  0.6109  0.1615  1.3514
 6384TIP3    H240568   0.585   2.613  13.387 -0.6893 -0.0564 -1.8733
 6385TIP3   OH240569   4.983   0.232   0.853  0.2004 -0.0282  0.4803
 6385TIP3    H140570   5.047   0.285   0.901 -0.9355 -0.8857  3.1255
 6385TIP3    H240571   5.002   0.142   0.879 -1.3853 -0.3981  0.4490
 6386TIP3   OH240572   5.612   2.211   4.751 -0.1238 -0.3886 -0.3626
 6386TIP3    H140573   5.576   2.157   4.822  0.3455 -1.2078 -0.7328
 6386TIP3    H240574   5.556   2.288   4.749 -0.3342 -0.4930  0.6981
 6387TIP3   OH240575   1.548   2.128   3.532 -0.5056 -0.0490 -0.2184
 6387TIP3    H140576   1.627   2.183   3.527 -1.4808  1.5208  0.8387
 6387TIP3    H240577   1.564   2.071   3.607 -0.3870  0.2671 -0.0024
 6388TIP3   OH240578   3.849   5.906   4.794 -0.2917  0.5707 -0.1583
 6388TIP3    H140579   3.831   5.815   4.816 -2.1238  0.6006 -1.3042
 6388TIP3    H240580   3.843   5.909   4.698 -1.3428  2.0692 -0.0770
 6389TIP3   OH240581   2.371   3.437  12.856 -0.0778  0.0340  0.1587
 6389TIP3    H140582   2.293   3.406  12.810 -0.8459  0.3099  1.2336
 6389TIP3    H240583   2.336   3.487  12.930  1.0966  2.2920 -0.7043
 6390TIP3   OH240584   0.700   5.090  11.727  0.4641 -0.1749  0.2013
 6390TIP3    H140585   0.712   5.143  11.649 -0.4013  0.9042  0.7701
 6390TIP3    H240586   0.747   5.008  11.709  0.6905  0.2538 -1.2246
 6391TIP3   OH240587   6.512   6.117   0.789 -0.7375 -0.2555 -0.3507
 6391TIP3    H140588   6.476   6.206   0.795 -0.2671 -0.1589  1.8348
 6391TIP3    H240589   6.480   6.073   0.868 -0.9450 -2.0522 -1.3893
 6392TIP3   OH240590   2.042   6.071  16.355  0.3043 -0.6716 -0.0821
 6392TIP3    H140591   2.134   6.058  16.331  1.4932  3.3030  1.4606
 6392TIP3    H240592   1.993   6.048  16.277  2.8166 -0.6785 -1.7695
 6393TIP3   OH240593   5.201   0.503  11.534 -0.2112  0.3991 -0.3007
 6393TIP3    H140594   5.160   0.456  11.607 -0.9717 -0.0261 -0.9921
 6393TIP3    H240595   5.288   0.465  11.527 -0.7664 -0.8369 -0.7673
 6394TIP3   OH240596   5.748   2.371  13.969  0.2106  0.5969 -0.2888
 6394TIP3    H140597   5.823   2.335  13.923 -0.1284 -1.0323  0.3710
 6394TIP3    H240598   5.692   2.407  13.900  0.4618 -0.3713 -1.0145
 6395TIP3   OH240599   3.287   0.358  11.030 -0.1764 -0.2205 -0.1121
 6395TIP3    H140600   3.370   0.363  11.079 -0.8830  1.3749  0.9979
 6395TIP3    H240601   3.222   0.333  11.096 -0.6607 -1.2026 -0.9237
 6396TIP3   OH240602   1.995   5.550  14.227 -0.1693 -0.8337 -0.0024
 6396TIP3    H140603   2.012   5.456  14.235 -0.4847 -0.8496  0.5930
 6396TIP3    H240604   1.955   5.574  14.311 -1.9873 -0.5850 -0.8767
 6397TIP3   OH240605   6.453   0.814  16.697 -0.0575 -0.0484 -0.3396
 6397TIP3    H140606   6.517   0.744  16.690 -1.4293 -1.3179 -0.6957
 6397TIP3    H240607   6.501   0.893  16.671  1.1864 -1.0486 -1.2063
 6398TIP3   OH240608   6.107   5.860  13.179 -0.1032 -0.4407  0.3299
 6398TIP3    H140609   6.189   5.816  13.155 -0.4501 -1.1085  0.3596
 6398TIP3    H240610   6.056   5.793  13.225 -1.8810 -0.9585 -2.1788
 6399TIP3   OH240611   6.712   4.817  17.045  0.7589 -0.1290 -0.1334
 6399TIP3    H140612   6.691   4.743  16.989 -0.2683 -0.9396  1.2591
 6399TIP3    H240613   6.805   4.833  17.030  0.6769 -0.7809 -1.4982
 6400TIP3   OH240614   5.370   4.289   2.580 -0.5211 -0.0682  0.0310
 6400TIP3    H140615   5.439   4.231   2.611 -1.5253 -2.1657 -1.3697
 6400TIP3    H240616   5.289   4.244   2.603 -1.6004  2.7987  2.5521
 6401TIP3   OH240617   1.749   4.695  15.451  0.7490  0.2852 -0.0001
 6401TIP3    H140618   1.751   4.753  15.527  1.1027 -0.7234  0.8010
 6401TIP3    H240619   1.791   4.744  15.381 -0.8641  1.7858  0.0181
 6402TIP3   OH240620   1.173   5.438   1.097 -0.2316  0.1008 -0.2998
 6402TIP3    H140621   1.210   5.356   1.131 -4.3796 -0.8947  2.5192
 6402TIP3    H240622   1.145   5.417   1.009 -0.1959 -1.1609 -0.0316
 6403TIP3   OH240623   5.877   3.820   5.341  0.2927 -0.3342  0.1113
 6403TIP3    H140624   5.800   3.764   5.346 -1.8264  2.4490  0.8285
 6403TIP3    H240625   5.877   3.853   5.251  0.6452 -0.2850  0.1272
 6404TIP3   OH240626   2.033   4.869   5.871  0.6247  0.4092  0.6312
 6404TIP3    H140627   1.979   4.792   5.886 -0.6808  0.4119 -3.0647
 6404TIP3    H240628   1.990   4.939   5.920 -0.9114 -0.2845  0.3308
 6405TIP3   OH240629   5.831   0.242   6.456 -0.2377 -0.3671 -0.6486
 6405TIP3    H140630   5.853   0.176   6.521 -0.7363  1.2058  1.2313
 6405TIP3    H240631   5.787   0.311   6.506 -0.7357  0.8902 -2.6869
 6406TIP3   OH240632   2.264   2.240   1.641 -0.0787 -0.0173 -0.2162
 6406TIP3    H140633   2.292   2.213   1.553 -2.3090  0.3709 -1.0874
 6406TIP3    H240634   2.241   2.332   1.632  1.2347  0.4968  1.2154
 6407TIP3   OH240635   4.075   6.561   0.682 -0.4235 -0.1065 -0.6674
 6407TIP3    H140636   4.139   6.632   0.687 -2.1904  1.5324 -0.2589
 6407TIP3    H240637   4.118   6.487   0.724  0.7640  1.2656  0.6379
 6408TIP3   OH240638   1.575   4.403  15.991 -0.6636 -0.4660  0.1882
 6408TIP3    H140639   1.640   4.455  16.038 -1.2491 -0.2756  0.7977
 6408TIP3    H240640   1.553   4.455  15.915 -2.6812  1.1481  1.7706
 6409TIP3   OH240641   5.611   4.194   5.968 -0.0487  0.0486 -0.4343
 6409TIP3    H140642   5.621   4.289   5.963  0.4729  0.1067  1.0710
 6409TIP3    H240643   5.677   4.160   5.908 -1.3625  0.6260 -2.2877
 6410TIP3   OH240644   2.748   4.945   1.636 -0.1385  0.0580 -0.2342
 6410TIP3    H140645   2.691   4.881   1.680 -1.3038  1.6938  0.7176
 6410TIP3    H240646   2.833   4.934   1.678  0.0653 -1.7634 -1.0178
 6411TIP3   OH240647   1.831   6.725   5.710  0.0385 -0.0290 -0.2027
 6411TIP3    H140648   1.807   6.649   5.764  0.4796  0.7771  1.1856
 6411TIP3    H240649   1.805   6.800   5.763  3.2001  0.8806  0.2653
 6412TIP3   OH240650   2.804   3.743  11.332 -0.2916  0.1679 -0.1384
 6412TIP3    H140651   2.870   3.809  11.309 -0.3853  0.5799  0.7181
 6412TIP3    H240652   2.800   3.685  11.256  2.2662 -0.8551  0.3789
 6413TIP3   OH240653   5.176   5.978   5.435 -0.1799  0.4019  0.6320
 6413TIP3    H140654   5.113   6.021   5.377  0.1333  1.3397  0.9729
 6413TIP3    H240655   5.261   6.011   5.406  0.3004 -1.6428 -0.5221
 6414TIP3   OH240656   4.418   3.236  16.028  0.0037 -0.3022  0.2862
 6414TIP3    H140657   4.328   3.268  16.019 -0.7369 -2.2160  0.2748
 6414TIP3    H240658   4.431   3.180  15.951  1.8274  1.2292 -0.5885
 6415TIP3   OH240659   3.301   6.573  14.687 -0.1438 -0.5712  0.4967
 6415TIP3    H140660   3.263   6.624  14.616 -0.7540  1.1950  2.0175
 6415TIP3    H240661   3.314   6.486  14.650 -1.8427 -0.1155 -1.3139
 6416TIP3   OH240662   6.227   2.544   3.691 -0.3628 -0.1749  0.7064
 6416TIP3    H140663   6.168   2.567   3.620 -0.0898 -0.4622  0.3820
 6416TIP3    H240664   6.258   2.628   3.725 -0.5932 -0.0353  0.5715
 6417TIP3   OH240665   3.281   4.872  16.003 -0.0263  0.2990  0.0137
 6417TIP3    H140666   3.269   4.851  15.911 -1.6407  0.0140  0.2560
 6417TIP3    H240667   3.353   4.936  16.004  0.6597 -0.4153 -1.3300
 6418TIP3   OH240668   4.449   6.339  11.629  0.4742  0.8067 -0.1281
 6418TIP3    H140669   4.400   6.293  11.560 -1.2888  0.8172  1.0469
 6418TIP3    H240670   4.460   6.428  11.596 -1.8771  1.2992  0.2394
 6419TIP3   OH240671   1.674   5.052  12.617  0.3661  0.0772 -0.4023
 6419TIP3    H140672   1.606   5.117  12.600 -0.3491 -0.4599  0.3448
 6419TIP3    H240673   1.749   5.082  12.565 -0.8194  0.0021 -2.2396
 6420TIP3   OH240674   4.672   0.145   5.618 -0.2130 -0.0562  0.1732
 6420TIP3    H140675   4.597   0.170   5.564 -1.4873  0.1144  1.9596
 6420TIP3    H240676   4.744   0.199   5.586 -1.4435  1.5443  0.0220
 6421TIP3   OH240677   0.376   6.747   2.016  0.8893 -0.5413 -0.4078
 6421TIP3    H140678   0.405   6.805   2.087  0.3187  1.3788 -1.6543
 6421TIP3    H240679   0.456   6.705   1.985  1.4649  0.2425 -0.0199
 6422TIP3   OH240680   2.452   4.381   0.223  0.0400 -0.6067 -0.1273
 6422TIP3    H140681   2.388   4.437   0.268 -0.1490 -0.0092 -1.1089
 6422TIP3    H240682   2.411   4.295   0.222 -1.0146 -0.1155 -1.2110
 6423TIP3   OH240683   4.190   3.586  15.708 -0.3185  0.3218 -0.1343
 6423TIP3    H140684   4.283   3.567  15.719  0.3581  2.4368 -1.5230
 6423TIP3    H240685   4.155   3.510  15.662  0.9650 -0.0772 -0.4967
 6424TIP3   OH240686   2.625   3.442   0.808  0.2528  0.0533 -0.0055
 6424TIP3    H140687   2.627   3.537   0.793 -1.1140  0.6772  2.9401
 6424TIP3    H240688   2.563   3.409   0.743 -1.6862  1.7316  0.8812
 6425TIP3   OH240689   5.087   2.607   0.234  0.6832 -0.2441  0.2305
 6425TIP3    H140690   5.059   2.691   0.270  0.4470 -0.2857  0.1496
 6425TIP3    H240691   5.005   2.560   0.217  0.7450  0.1487 -1.2921
 6426TIP3   OH240692   2.253   2.134  16.073 -0.2048  0.0369 -0.2986
 6426TIP3    H140693   2.217   2.210  16.118 -4.2386 -2.0305  0.4509
 6426TIP3    H240694   2.251   2.064  16.139  0.0433 -1.5087 -1.8599
 6427TIP3   OH240695   0.901   6.604   5.566  0.1835 -0.0387  0.2243
 6427TIP3    H140696   0.854   6.527   5.600 -1.0801  0.9577  0.8125
 6427TIP3    H240697   0.971   6.618   5.629  0.9274 -1.1563 -0.3123
 6428TIP3   OH240698   6.188   5.542   3.168  0.1666 -0.0111 -0.1940
 6428TIP3    H140699   6.218   5.622   3.126 -1.6094  1.2046  0.7418
 6428TIP3    H240700   6.195   5.559   3.262  0.1856 -1.1185  0.0236
 6429TIP3   OH240701   5.216   0.853   0.059  0.5670  0.3395  0.1397
 6429TIP3    H140702   5.284   0.829  -0.004  1.1367  0.2619  0.7701
 6429TIP3    H240703   5.137   0.808   0.028  1.0520 -0.4172 -0.0265
 6430TIP3   OH240704   5.177   0.318  12.858  0.7221  0.3651 -0.0980
 6430TIP3    H140705   5.214   0.344  12.773 -2.3509  1.9275 -1.1101
 6430TIP3    H240706   5.127   0.238  12.838  1.7122 -0.4834  0.7493
 6431TIP3   OH240707   2.515   0.453   5.746  0.4072  0.2226 -0.7090
 6431TIP3    H140708   2.442   0.497   5.704  0.4492  1.0181  0.0351
 6431TIP3    H240709   2.539   0.383   5.685 -1.5868 -0.6747 -0.5090
 6432TIP3   OH240710   5.204   4.462   1.545  0.7144  0.3655  0.3354
 6432TIP3    H140711   5.121   4.510   1.548  0.9955  0.8226  1.2421
 6432TIP3    H240712   5.199   4.410   1.465 -0.0853  1.0387 -0.0702
 6433TIP3   OH240713   6.566   3.184   3.001  0.3212  0.1297 -0.0566
 6433TIP3    H140714   6.612   3.256   2.959  0.8893 -0.5197 -0.5540
 6433TIP3    H240715   6.634   3.120   3.022 -0.0088  0.2219  1.4315
 6434TIP3   OH240716   3.657   0.789  16.716  0.1342  0.1163 -0.3551
 6434TIP3    H140717   3.594   0.860  16.704  0.6864  0.9725  1.4206
 6434TIP3    H240718   3.723   0.804  16.648 -1.3673 -0.6494 -2.0739
 6435TIP3   OH240719   6.022   1.754   4.230  0.9423 -0.4951  0.1222
 6435TIP3    H140720   6.068   1.685   4.182 -2.3195 -2.6286 -0.2839
 6435TIP3    H240721   5.939   1.713   4.256 -0.5348  2.8679  1.2088
 6436TIP3   OH240722   2.633   5.171  13.640 -0.8080 -0.3698 -0.1360
 6436TIP3    H140723   2.685   5.175  13.560 -1.3599 -3.8497 -0.8575
 6436TIP3    H240724   2.605   5.261  13.656  2.4181  1.0545 -1.6792
 6437TIP3   OH240725   5.531   1.624  16.577  0.1703 -0.5358 -0.3228
 6437TIP3    H140726   5.530   1.569  16.499  1.6580  0.6344 -1.2251
 6437TIP3    H240727   5.468   1.694  16.559 -1.9897 -2.0289  0.9715
 6438TIP3   OH240728   0.661   0.423   6.408  0.5293  0.1143 -0.1125
 6438TIP3    H140729   0.633   0.509   6.377  1.6567  0.9631  1.1503
 6438TIP3    H240730   0.584   0.368   6.397 -0.3259  1.3591 -0.6138
 6439TIP3   OH240731   6.477   4.074  15.438  0.6132 -0.2057 -0.1557
 6439TIP3    H140732   6.536   4.148  15.424 -0.2065  0.2684 -1.3518
 6439TIP3    H240733   6.389   4.112  15.426  0.1957 -1.4542 -1.3745
 6440TIP3   OH240734   2.251   3.249   0.764  0.0428  0.0508  0.2466
 6440TIP3    H140735   2.230   3.238   0.857  1.2811  2.0641  0.8399
 6440TIP3    H240736   2.168   3.235   0.719 -0.7625 -0.1670  1.7243
 6441TIP3   OH240737   5.251   1.444   4.188  0.3805 -0.2754  0.6169
 6441TIP3    H140738   5.231   1.398   4.106 -0.1808 -1.2516  1.2759
 6441TIP3    H240739   5.238   1.536   4.168  2.2080 -0.2898 -0.9465
 6442TIP3   OH240740   1.249   0.774  11.837  0.1312  0.4074  0.1965
 6442TIP3    H140741   1.344   0.762  11.835 -0.1245 -2.6276  1.1775
 6442TIP3    H240742   1.234   0.825  11.916  0.8769 -0.0119  0.6244
 6443TIP3   OH240743   0.865   3.133  16.973  0.0153 -0.2198  0.1208
 6443TIP3    H140744   0.782   3.161  17.011 -0.4087  0.3101 -1.1326
 6443TIP3    H240745   0.903   3.074  17.038 -0.0263  1.6652  1.9380
 6444TIP3   OH240746   6.182   1.466  13.337 -0.1845  0.6361 -0.5888
 6444TIP3    H140747   6.212   1.408  13.267  1.6774  0.1567  0.5361
 6444TIP3    H240748   6.214   1.553  13.311  0.4773  0.4638 -0.3891
 6445TIP3   OH240749   2.324   1.403   4.602 -0.3543  0.9575 -0.0349
 6445TIP3    H140750   2.304   1.407   4.695  0.8382 -0.2300  0.3039
 6445TIP3    H240751   2.256   1.347   4.564  0.0482  0.1684  0.3997
 6446TIP3   OH240752   3.485   2.695  13.839 -0.0429 -0.1111  0.3526
 6446TIP3    H140753   3.398   2.737  13.839  0.4830  1.1330 -2.0298
 6446TIP3    H240754   3.497   2.666  13.930 -2.3759  0.8684  1.0581
 6447TIP3   OH240755   0.676   4.516   5.879  0.3392  0.5126 -0.7428
 6447TIP3    H140756   0.715   4.525   5.793 -0.1534  0.9758 -0.9246
 6447TIP3    H240757   0.587   4.551   5.869 -0.7213 -1.9391 -0.7553
 6448TIP3   OH240758   2.666   0.233   3.645 -0.0038 -0.1995  0.6039
 6448TIP3    H140759   2.756   0.214   3.619  0.3472  0.3517  1.3893
 6448TIP3    H240760   2.622   0.148   3.642 -0.1790 -0.0858 -2.4182
 6449TIP3   OH240761   6.564   4.823   3.855 -0.0884 -0.0356  0.0441
 6449TIP3    H140762   6.482   4.776   3.873  0.4262 -0.9169  0.1212
 6449TIP3    H240763   6.591   4.857   3.940 -0.1073 -0.1752  0.1063
 6450TIP3   OH240764   3.206   4.149   4.859  0.1687  0.0332 -0.3379
 6450TIP3    H140765   3.269   4.109   4.919 -0.7595 -0.5037  0.3210
 6450TIP3    H240766   3.147   4.199   4.916 -0.2792  0.1413 -0.8807
 6451TIP3   OH240767   0.281   3.896  14.157  0.4655  0.6774  0.1918
 6451TIP3    H140768   0.208   3.956  14.174 -0.2526 -0.3274  0.8018
 6451TIP3    H240769   0.358   3.941  14.193 -0.1884  0.9183  1.3615
 6452TIP3   OH240770   3.512   5.782   3.414 -0.1435 -0.4493 -0.3944
 6452TIP3    H140771   3.565   5.804   3.491  0.9811 -0.6610 -1.0868
 6452TIP3    H240772   3.446   5.720   3.446  1.4656 -1.9956  0.0474
 6453TIP3   OH240773   6.685   3.164   5.695 -0.4191  0.2800  0.3328
 6453TIP3    H140774   6.712   3.100   5.761  1.4012  0.6649  0.0266
 6453TIP3    H240775   6.625   3.223   5.742 -1.8686 -1.4053  0.6976
 6454TIP3   OH240776   2.438   3.177   3.893  0.3618 -0.0232 -0.6344
 6454TIP3    H140777   2.435   3.083   3.877  0.4943 -0.3914  1.3595
 6454TIP3    H240778   2.487   3.211   3.818 -0.1720 -1.4502 -1.6812
 6455TIP3   OH240779   0.599   5.234  15.944  0.0849  0.1031  0.4419
 6455TIP3    H140780   0.588   5.309  16.001  0.2742  0.3393  0.1720
 6455TIP3    H240781   0.543   5.166  15.982 -0.7940  0.6630  0.1873
 6456TIP3   OH240782   4.762   5.897  15.222 -0.3441  1.1189 -0.0255
 6456TIP3    H140783   4.690   5.911  15.161 -0.3069 -0.5835 -0.5241
 6456TIP3    H240784   4.817   5.831  15.179 -0.8419 -0.9220  2.2604
 6457TIP3   OH240785   3.570   1.028   6.484  0.1896  0.0324  0.1871
 6457TIP3    H140786   3.610   0.941   6.491 -0.3695 -0.2577 -0.1854
 6457TIP3    H240787   3.478   1.011   6.465 -0.3397  0.6807  1.9948
 6458TIP3   OH240788   6.264   0.173  12.677  0.3590 -0.0174 -0.4139
 6458TIP3    H140789   6.266   0.268  12.683 -0.3302  0.0414 -0.9552
 6458TIP3    H240790   6.177   0.149  12.706 -0.2485 -0.2977 -2.2967
 6459TIP3   OH240791   0.255   2.637   0.702  0.1122  0.3405  0.0003
 6459TIP3    H140792   0.296   2.724   0.705  1.9723 -0.5114  0.6594
 6459TIP3    H240793   0.169   2.650   0.742 -1.0892  2.5450 -2.8846
 6460TIP3   OH240794   3.643   0.013   3.689  0.4025 -0.4724  0.3330
 6460TIP3    H140795   3.686   0.070   3.625  0.2834 -0.5096  0.2202
 6460TIP3    H240796   3.696   0.021   3.768  0.9123 -0.9206  0.0399
 6461TIP3   OH240797   5.233   6.124  15.075  0.5606  0.0275  0.3032
 6461TIP3    H140798   5.177   6.091  15.145  2.3126 -1.3456  1.1323
 6461TIP3    H240799   5.208   6.071  14.998 -0.6798  0.8674  0.0921
 6462TIP3   OH240800   6.155   2.705   4.003 -0.3397  0.3872 -0.4732
 6462TIP3    H140801   6.216   2.689   4.075  0.6366 -1.3490 -1.6046
 6462TIP3    H240802   6.068   2.695   4.043  0.1247 -3.8603 -0.0127
 6463TIP3   OH240803   1.534   2.413   4.187 -0.5573  0.0381  0.3007
 6463TIP3    H140804   1.492   2.455   4.112 -1.9042  0.2109  1.1176
 6463TIP3    H240805   1.508   2.466   4.262  0.0548 -0.6254  1.0059
 6464TIP3   OH240806   5.286   1.555  13.574 -0.0682 -0.2738 -0.3232
 6464TIP3    H140807   5.319   1.466  13.590 -0.5909 -0.4646 -0.2893
 6464TIP3    H240808   5.305   1.571  13.482  1.5335  0.2262  0.0655
 6465TIP3   OH240809   0.368   4.459  16.429 -0.4531 -0.4781 -0.1781
 6465TIP3    H140810   0.364   4.431  16.338  1.8278  1.1004 -0.8546
 6465TIP3    H240811   0.319   4.541  16.431 -0.8781 -0.7322  0.1494
 6466TIP3   OH240812   5.678   0.405   6.609 -0.0112 -0.5891 -1.1052
 6466TIP3    H140813   5.615   0.472   6.583  0.7846  1.9380  2.8120
 6466TIP3    H240814   5.625   0.340   6.656 -0.2453 -0.7980 -1.6405
 6467TIP3   OH240815   4.177   6.297   4.200 -0.3357  0.2386 -0.0955
 6467TIP3    H140816   4.199   6.391   4.198 -0.8857  0.4020  0.8848
 6467TIP3    H240817   4.133   6.281   4.117 -0.1176  0.8158 -0.3307
 6468TIP3   OH240818   3.544   3.749   3.719 -0.3342  0.1599  0.2246
 6468TIP3    H140819   3.604   3.684   3.754 -2.9447 -1.7131  1.5563
 6468TIP3    H240820   3.591   3.832   3.727  1.8331 -1.1165  1.6856
 6469TIP3   OH240821   3.415   6.678  12.548  0.4358 -0.1425  0.2709
 6469TIP3    H140822   3.446   6.685  12.638  0.9982 -0.4060  0.0991
 6469TIP3    H240823   3.413   6.584  12.530 -2.8413 -0.3370  1.0961
 6470TIP3   OH240824   0.622   6.141  15.931 -0.4325 -0.3858 -0.0019
 6470TIP3    H140825   0.587   6.053  15.946 -0.2432 -0.4647 -0.0285
 6470TIP3    H240826   0.706   6.127  15.887 -1.1003 -0.1726 -1.4383
 6471TIP3   OH240827   3.196   0.267  11.340  0.0283 -0.0584  0.3516
 6471TIP3    H140828   3.123   0.279  11.279  0.7511  0.1306 -0.4928
 6471TIP3    H240829   3.216   0.356  11.370  0.6965  0.0393 -0.3598
 6472TIP3   OH240830   3.939   0.255  11.684 -0.0059  0.2032 -0.3181
 6472TIP3    H140831   4.021   0.226  11.643  0.1337  0.7600 -0.4492
 6472TIP3    H240832   3.899   0.175  11.717  0.2574 -0.1600 -0.8653
 6473TIP3   OH240833   5.068   0.761  15.403 -0.2770  0.6020  0.4423
 6473TIP3    H140834   4.985   0.744  15.448 -0.7126  0.9725 -0.2010
 6473TIP3    H240835   5.042   0.805  15.322  0.5898  1.2408  0.4992
 6474TIP3   OH240836   2.367   1.015   5.559 -0.0667  0.1207 -0.0959
 6474TIP3    H140837   2.330   1.073   5.626 -0.8889 -0.6352  0.1216
 6474TIP3    H240838   2.308   1.024   5.484  0.7942  0.8867 -0.6896
 6475TIP3   OH240839   3.960   6.051   5.731  0.0673  0.0835  0.1672
 6475TIP3    H140840   3.871   6.044   5.695 -1.1236 -0.3358  2.9186
 6475TIP3    H240841   3.971   6.145   5.748  1.1226  0.4607 -2.2395
 6476TIP3   OH240842   1.801   6.730   6.536  0.5513 -0.6985 -0.0391
 6476TIP3    H140843   1.735   6.667   6.564  0.5226 -0.3218  0.7552
 6476TIP3    H240844   1.820   6.705   6.445 -1.6755 -0.0024 -0.7801
 6477TIP3   OH240845   2.880   3.544   3.741  0.1815  0.4665 -0.3975
 6477TIP3    H140846   2.817   3.504   3.800 -0.3917 -0.1716 -1.4106
 6477TIP3    H240847   2.853   3.636   3.736  0.6289  0.6826  0.8076
 6478TIP3   OH240848   2.119   2.517   6.349  0.0397  0.6686  0.6613
 6478TIP3    H140849   2.157   2.429   6.349 -1.4128  0.0138  0.2967
 6478TIP3    H240850   2.079   2.525   6.263 -0.6184  1.3352  1.0276
 6479TIP3   OH240851   0.742   1.854  16.216  0.3000 -0.3139  0.5722
 6479TIP3    H140852   0.729   1.930  16.159 -2.0733  1.8593  3.6464
 6479TIP3    H240853   0.696   1.782  16.172 -1.5512  1.2824 -0.2415
 6480TIP3   OH240854   4.728   2.071  13.749  0.0021  0.3383  0.5687
 6480TIP3    H140855   4.790   2.143  13.739  0.5434  0.2076  2.5116
 6480TIP3    H240856   4.721   2.032  13.662 -0.2064  2.6347 -0.4933
 6481TIP3   OH240857   1.971   5.576  11.570 -0.1285  0.2891  0.0153
 6481TIP3    H140858   1.908   5.507  11.550 -0.2962  0.3511  0.3332
 6481TIP3    H240859   1.933   5.623  11.644 -0.0940  0.8270 -0.2986
 6482TIP3   OH240860   2.904   1.869   2.897 -0.2779  0.2074  0.5110
 6482TIP3    H140861   2.859   1.940   2.945 -0.3858  0.5087 -0.0285
 6482TIP3    H240862   2.923   1.803   2.964 -2.9264 -0.6538  0.5202
 6483TIP3   OH240863   1.631   1.661  15.502 -0.2650  0.1102 -0.2246
 6483TIP3    H140864   1.659   1.724  15.436  1.7307 -2.0345 -1.5745
 6483TIP3    H240865   1.574   1.600  15.454  2.8781 -2.7204 -0.7283
 6484TIP3   OH240866   5.803   5.449  16.154  0.2283 -0.3591 -0.1808
 6484TIP3    H140867   5.711   5.439  16.132  0.2086 -3.4658  0.9066
 6484TIP3    H240868   5.850   5.427  16.074  0.0948  0.7875 -0.6019
 6485TIP3   OH240869   2.930   1.595   5.925  0.4561 -0.1882 -0.1900
 6485TIP3    H140870   2.920   1.569   6.017 -1.1242  0.3679 -0.1777
 6485TIP3    H240871   2.860   1.548   5.879  1.9928 -1.4634 -1.3711
 6486TIP3   OH240872   1.255   0.484  11.817 -0.3909 -0.6044 -0.1285
 6486TIP3    H140873   1.202   0.472  11.896  1.7860  2.4089  2.0347
 6486TIP3    H240874   1.247   0.578  11.797  0.3725 -0.9918 -2.5796
 6487TIP3   OH240875   1.784   3.016  12.509 -0.0681 -0.8965 -0.2278
 6487TIP3    H140876   1.850   2.955  12.476 -0.9201 -2.2481  0.4879
 6487TIP3    H240877   1.710   2.961  12.533 -2.0648  0.6872 -2.3404
 6488TIP3   OH240878   1.290   0.252   1.139 -0.2160 -0.2800  0.3407
 6488TIP3    H140879   1.282   0.277   1.231  0.4391  3.0593 -0.4011
 6488TIP3    H240880   1.206   0.209   1.119 -0.3389 -1.1493  2.4505
 6489TIP3   OH240881   2.830   6.171   0.512  0.6662 -0.1574  0.0143
 6489TIP3    H140882   2.816   6.080   0.540 -0.7503  0.1605  0.3629
 6489TIP3    H240883   2.790   6.224   0.581 -0.0652  0.6972 -1.0462
 6490TIP3   OH240884   5.565   3.374  13.655  0.2144  0.3181  0.2663
 6490TIP3    H140885   5.652   3.340  13.675 -0.2988 -1.3261 -0.0935
 6490TIP3    H240886   5.534   3.318  13.583 -0.3733  2.1355 -0.9614
 6491TIP3   OH240887   6.660   5.645   6.424  0.1340  0.1174  0.1838
 6491TIP3    H140888   6.743   5.662   6.379  0.5861 -1.5036  0.3440
 6491TIP3    H240889   6.646   5.551   6.414 -1.9363  0.4174 -0.2308
 6492TIP3   OH240890   2.619   1.176   1.151 -0.1623  0.3820 -0.0455
 6492TIP3    H140891   2.620   1.142   1.240  0.2487 -1.4319 -0.6907
 6492TIP3    H240892   2.711   1.181   1.126 -0.2367  1.5925 -0.1421
 6493TIP3   OH240893   3.887   0.671  15.827  0.3080 -0.3647  0.3433
 6493TIP3    H140894   3.854   0.582  15.817  1.3352 -0.5675 -1.7930
 6493TIP3    H240895   3.809   0.723  15.847 -0.5705 -1.4981 -0.0231
 6494TIP3   OH240896   4.262   1.841  15.252 -0.0241  0.3973 -0.0073
 6494TIP3    H140897   4.226   1.879  15.332 -1.7379  1.2188 -1.1009
 6494TIP3    H240898   4.289   1.916  15.200  0.9732 -0.1222 -0.2705
 6495TIP3   OH240899   5.063   2.455  16.934  0.2432  0.4392 -0.4525
 6495TIP3    H140900   5.029   2.441  16.846  1.6640  0.7313 -1.0873
 6495TIP3    H240901   5.057   2.550  16.947  3.8340  1.0415 -1.9804
 6496TIP3   OH240902   5.549   0.526  11.139 -0.2956 -0.5751 -0.7374
 6496TIP3    H140903   5.590   0.522  11.053 -0.6540 -1.0867 -0.8844
 6496TIP3    H240904   5.548   0.620  11.160  1.4824 -0.5820 -0.4615
 6497TIP3   OH240905   4.742   2.664  11.572  0.7900  1.0409 -0.0265
 6497TIP3    H140906   4.694   2.612  11.508  0.6052  0.6682  0.4071
 6497TIP3    H240907   4.690   2.657  11.652  1.4419  0.8158  0.3870
 6498TIP3   OH240908   5.929   3.410   2.749 -0.2344 -0.4771 -0.2552
 6498TIP3    H140909   5.950   3.383   2.660 -0.5191  0.1339 -0.5142
 6498TIP3    H240910   5.970   3.344   2.805  1.9248  0.3778 -0.7348
 6499TIP3   OH240911   4.208   3.079   4.184 -0.4844 -0.1241  0.0955
 6499TIP3    H140912   4.241   3.034   4.106  0.0323  0.6119 -0.1310
 6499TIP3    H240913   4.261   3.160   4.188 -0.0678 -0.4460  1.5694
 6500TIP3   OH240914   0.847   4.414   4.385  0.3769 -0.4586  0.8957
 6500TIP3    H140915   0.758   4.439   4.357  0.0026 -1.8378  0.7813
 6500TIP3    H240916   0.855   4.322   4.360  1.5090 -0.6155  1.7560
 6501TIP3   OH240917   2.839   3.973   4.713 -0.2530  0.7255 -0.6633
 6501TIP3    H140918   2.821   4.011   4.799 -1.1264 -0.3093 -0.3774
 6501TIP3    H240919   2.912   3.912   4.728  0.2100  1.2157 -0.8541
 6502TIP3   OH240920   0.812   3.718  12.583  0.3358  0.5616  0.3088
 6502TIP3    H140921   0.784   3.655  12.650  0.1379  2.6203  2.2439
 6502TIP3    H240922   0.905   3.700  12.570  0.6912  0.9698  2.1222
 6503TIP3   OH240923   1.422   5.425   6.295 -1.0746 -0.0468  0.0726
 6503TIP3    H140924   1.373   5.368   6.354 -0.3416 -1.1791 -0.3857
 6503TIP3    H240925   1.361   5.496   6.275 -2.6189 -1.4936 -0.6008
 6504TIP3   OH240926   6.107   5.919   1.830 -0.4265  0.3575 -0.1161
 6504TIP3    H140927   6.037   5.860   1.858  0.5379 -0.3056  1.0231
 6504TIP3    H240928   6.163   5.864   1.776 -0.7826  0.8882 -1.0336
 6505TIP3   OH240929   1.018   0.538   4.308 -0.5646  0.0415  0.3528
 6505TIP3    H140930   0.964   0.548   4.229 -0.7582  0.0087  0.4791
 6505TIP3    H240931   0.964   0.573   4.378 -0.0667  0.8206  0.3501
 6506TIP3   OH240932   1.149   4.806  17.198  0.5726 -0.5535 -0.3309
 6506TIP3    H140933   1.233   4.773  17.229  0.4434  1.0718  2.0023
 6506TIP3    H240934   1.171   4.875  17.135  1.1970  1.6991  2.1727
 6507TIP3   OH240935   3.503   6.626   6.168 -0.6613  0.5570 -0.2828
 6507TIP3    H140936   3.421   6.632   6.217  0.7204 -1.2937  2.4894
 6507TIP3    H240937   3.569   6.605   6.233  1.5036 -1.1831 -2.8217
 6508TIP3   OH240938   5.694   2.664   3.419 -0.0512 -0.3837 -0.1962
 6508TIP3    H140939   5.686   2.572   3.443  0.6256 -0.1549  0.9370
 6508TIP3    H240940   5.774   2.668   3.366 -0.0298 -0.4249 -0.1669
 6509TIP3   OH240941   3.307   5.174   5.263  0.0941  0.6133  0.4008
 6509TIP3    H140942   3.234   5.115   5.244 -0.0115  1.4191 -2.0688
 6509TIP3    H240943   3.385   5.121   5.247 -0.0020  0.8410 -0.9886
 6510TIP3   OH240944   5.685   0.358   1.752 -0.1853 -0.4382 -0.0729
 6510TIP3    H140945   5.745   0.431   1.768 -0.4608 -0.4061  0.8892
 6510TIP3    H240946   5.599   0.394   1.772 -0.6203 -0.3178 -1.9869
 6511TIP3   OH240947   2.142   0.888   6.244  0.7319  0.0964  0.3428
 6511TIP3    H140948   2.063   0.871   6.191  0.4867  0.1488  0.6866
 6511TIP3    H240949   2.116   0.867   6.334  1.5732 -1.3439  0.2770
 6512TIP3   OH240950   4.320   4.084   2.359  0.2096 -0.1314  0.3588
 6512TIP3    H140951   4.301   4.008   2.414  0.1356  0.1440  0.7242
 6512TIP3    H240952   4.394   4.127   2.403  1.6355 -1.1190 -0.9762
 6513TIP3   OH240953   5.778   1.255  11.838  0.1496 -0.1485 -0.4041
 6513TIP3    H140954   5.803   1.206  11.917 -0.4114  0.4509  0.1691
 6513TIP3    H240955   5.746   1.338  11.872 -1.4102 -0.4007 -1.1596
 6514TIP3   OH240956   5.300   0.278   1.617 -0.5656  0.2175  0.6177
 6514TIP3    H140957   5.264   0.219   1.684 -1.0577 -1.3747 -0.9607
 6514TIP3    H240958   5.223   0.308   1.568 -0.3401  2.4108  1.5288
 6515TIP3   OH240959   2.334   5.045  13.843 -0.1817 -0.4298  0.1473
 6515TIP3    H140960   2.353   5.098  13.765 -2.9441 -2.9858 -2.5046
 6515TIP3    H240961   2.409   4.985  13.849  0.5519  0.4606  0.1368
 6516TIP3   OH240962   5.101   1.251   4.335  0.4253  0.7081 -0.5415
 6516TIP3    H140963   5.140   1.317   4.392 -3.2887  2.2989  0.4320
 6516TIP3    H240964   5.085   1.297   4.252  0.4834  0.1161 -0.8908
 6517TIP3   OH240965   5.474   4.687   5.556 -0.3334  0.1298 -0.8965
 6517TIP3    H140966   5.436   4.602   5.582 -0.8390  1.1080  1.9538
 6517TIP3    H240967   5.559   4.690   5.601 -1.6140  2.2797  1.6893
 6518TIP3   OH240968   4.274   0.579   0.514 -0.4200  0.2208  0.0643
 6518TIP3    H140969   4.317   0.605   0.432  0.2055 -3.6576 -1.0512
 6518TIP3    H240970   4.188   0.547   0.486  0.7910 -3.8011  0.2446
 6519TIP3   OH240971   6.481   5.513  13.299  0.1643  0.2194  0.2172
 6519TIP3    H140972   6.494   5.430  13.344 -0.4398 -0.8581 -1.4927
 6519TIP3    H240973   6.459   5.488  13.209  1.3113  2.2563 -0.6950
 6520TIP3   OH240974   6.111   3.591   5.924  0.0673  0.3517 -0.2252
 6520TIP3    H140975   6.144   3.625   6.007  3.1296 -3.3732  0.3729
 6520TIP3    H240976   6.048   3.523   5.949  0.6782 -0.4912 -0.9000
 6521TIP3   OH240977   4.699   1.863   5.017  0.2768  0.2770 -0.2615
 6521TIP3    H140978   4.696   1.906   4.931  0.4638 -0.6017 -0.7221
 6521TIP3    H240979   4.640   1.788   5.008 -0.0918  0.4591  0.5464
 6522TIP3   OH240980   6.530   1.593  16.934 -0.1985 -0.5502 -0.0829
 6522TIP3    H140981   6.452   1.546  16.961 -0.3315 -0.4558 -0.2999
 6522TIP3    H240982   6.603   1.543  16.972 -0.3105 -1.1941 -0.6911
 6523TIP3   OH240983   2.657   0.137   2.465 -0.3600  0.0444 -0.3560
 6523TIP3    H140984   2.658   0.169   2.555 -1.0921  2.7326 -1.2012
 6523TIP3    H240985   2.695   0.049   2.469  1.5802  0.9175  2.2405
 6524TIP3   OH240986   4.562   0.628   4.371  0.0426 -0.3060  0.2245
 6524TIP3    H140987   4.483   0.575   4.355  0.3600 -0.8696  0.4922
 6524TIP3    H240988   4.571   0.629   4.467 -1.3069  2.2388  0.4111
 6525TIP3   OH240989   5.442   0.691  15.756 -0.0062 -0.5457  0.2562
 6525TIP3    H140990   5.506   0.762  15.767 -0.9103  0.1504  1.2145
 6525TIP3    H240991   5.475   0.621  15.812  0.0042 -0.2553  0.6136
 6526TIP3   OH240992   0.648   1.301  11.009  0.3630 -0.1465 -0.2064
 6526TIP3    H140993   0.660   1.207  10.999 -0.7133 -0.3049 -0.1986
 6526TIP3    H240994   0.683   1.339  10.929 -0.8834 -0.7296 -1.0638
 6527TIP3   OH240995   6.492   1.376  11.317  0.2848 -0.2762 -0.4668
 6527TIP3    H140996   6.493   1.447  11.381 -0.4482  0.3868 -1.1708
 6527TIP3    H240997   6.413   1.326  11.337 -0.0786  0.0741 -0.9836
 6528TIP3   OH240998   6.274   1.582  15.154  0.0046  0.4531 -0.2191
 6528TIP3    H140999   6.277   1.655  15.091 -1.1268  0.9191  0.2424
 6528TIP3    H241000   6.315   1.616  15.233 -0.8537  0.7125  0.1161
 6529TIP3   OH241001   0.526   3.916   5.874 -0.2653 -0.5328 -0.4577
 6529TIP3    H141002   0.454   3.935   5.814 -0.2512  0.9517 -0.0320
 6529TIP3    H241003   0.601   3.962   5.836 -0.4888  1.3195  1.2068
 6530TIP3   OH241004   3.952   5.716  15.480  0.2912  0.1651  0.4213
 6530TIP3    H141005   3.919   5.702  15.569  1.0619  0.0845  0.6946
 6530TIP3    H241006   3.915   5.643  15.430  0.3197 -0.1171  0.8009
 6531TIP3   OH241007   0.714   0.013   0.454  0.4331  0.0810  0.5980
 6531TIP3    H141008   0.619   0.011   0.444  0.3317  2.7386  0.0714
 6531TIP3    H241009   0.728   0.036   0.546  0.4390  1.6458  0.2412
 6532TIP3   OH241010   1.905   6.376   1.312  0.3949  0.2190 -0.4083
 6532TIP3    H141011   1.980   6.347   1.260  1.8045  1.0171  1.1063
 6532TIP3    H241012   1.904   6.471   1.302 -0.2048  0.2431 -0.1320
 6533TIP3   OH241013   0.208   2.350  14.607  0.0929 -0.2761  0.2322
 6533TIP3    H141014   0.234   2.428  14.558  1.4344 -0.4625  0.6073
 6533TIP3    H241015   0.291   2.306  14.628 -0.3918 -0.1249  2.7968
 6534TIP3   OH241016   3.116   6.308  11.319  0.1649  0.3095 -0.0685
 6534TIP3    H141017   3.084   6.298  11.409  0.9741 -1.2959  0.0886
 6534TIP3    H241018   3.186   6.373  11.325 -0.9442  1.5164  0.1312
 6535TIP3   OH241019   6.529   6.628  14.409  0.3549  0.1155  0.1850
 6535TIP3    H141020   6.615   6.640  14.451  0.4045 -0.8177  0.3796
 6535TIP3    H241021   6.516   6.533  14.409 -0.0881  0.1517 -1.0344
 6536TIP3   OH241022   2.208   2.160   4.249 -0.1917  0.1610  0.4552
 6536TIP3    H141023   2.304   2.167   4.247 -0.1321 -0.2447  1.3357
 6536TIP3    H241024   2.181   2.230   4.309 -0.4420  0.2544  0.2304
 6537TIP3   OH241025   3.248   3.338  11.382  0.3066  0.3535 -0.4033
 6537TIP3    H141026   3.284   3.329  11.470 -0.6475 -0.7125 -0.1079
 6537TIP3    H241027   3.300   3.408  11.342  0.9265  0.6650  0.9068
 6538TIP3   OH241028   1.699   2.409   1.427 -0.5013  0.0029  0.1760
 6538TIP3    H141029   1.627   2.363   1.383  0.0490  0.1489 -0.9025
 6538TIP3    H241030   1.682   2.502   1.409 -0.3056  0.0698  0.3313
 6539TIP3   OH241031   2.291   0.976   1.189  0.7902 -0.3213 -0.1192
 6539TIP3    H141032   2.339   1.044   1.142 -1.9365  0.9076 -1.3922
 6539TIP3    H241033   2.286   1.007   1.279 -0.9046  1.5692 -0.7973
 6540TIP3   OH241034   0.818   1.876  10.562  0.0822  0.1314 -0.3096
 6540TIP3    H141035   0.858   1.810  10.619  1.0131  0.0459 -1.0434
 6540TIP3    H241036   0.871   1.954  10.576 -0.7964  0.6478  0.2821
 6541TIP3   OH241037   1.219   0.824   6.809  0.0310  0.1481 -0.1512
 6541TIP3    H141038   1.303   0.868   6.824  1.1919 -2.5936  2.3849
 6541TIP3    H241039   1.238   0.761   6.739 -0.0418 -0.1627  0.1090
 6542TIP3   OH241040   5.383   4.715  15.474  0.2470  0.1581  0.5338
 6542TIP3    H141041   5.300   4.680  15.507  1.0217 -0.3442  2.0596
 6542TIP3    H241042   5.403   4.789  15.532  1.8706 -1.0357  1.5959
 6543TIP3   OH241043   5.483   4.745   6.372 -0.0336  0.7988  0.5546
 6543TIP3    H141044   5.567   4.701   6.379  0.3087  1.5133  1.0655
 6543TIP3    H241045   5.473   4.791   6.455  0.6083  3.4117 -0.7312
 6544TIP3   OH241046   1.238   0.338   1.435 -0.4720  0.1364 -0.2313
 6544TIP3    H141047   1.224   0.245   1.452 -1.8428  0.1174 -1.2304
 6544TIP3    H241048   1.211   0.382   1.516  2.7950 -0.3991  1.3091
 6545TIP3   OH241049   4.084   3.711   2.854  0.1899  0.4849  0.7030
 6545TIP3    H141050   4.121   3.699   2.941  3.7893  1.6490 -0.4800
 6545TIP3    H241051   4.063   3.805   2.849 -0.6795  0.2906  0.5327
 6546TIP3   OH241052   5.011   5.337  14.724 -0.2743 -0.0397 -0.0545
 6546TIP3    H141053   5.051   5.418  14.756 -0.8224  0.6999 -1.1900
 6546TIP3    H241054   5.078   5.298  14.668 -0.6371  0.5494 -0.9264
 6547TIP3   OH241055   2.912   4.968   3.109  0.4749 -0.0573  0.7257
 6547TIP3    H141056   2.928   5.047   3.160 -0.5912 -0.2935  1.4534
 6547TIP3    H241057   2.908   4.999   3.018 -0.5323  0.8461  1.0464
 6548TIP3   OH241058   2.150   2.194   0.563  0.2473 -0.4702 -0.2215
 6548TIP3    H141059   2.134   2.100   0.574 -0.4038 -0.2831  0.5916
 6548TIP3    H241060   2.129   2.232   0.649 -0.8105  0.5811 -0.9044
 6549TIP3   OH241061   0.995   2.076   5.761  0.3876 -0.4346 -0.1618
 6549TIP3    H141062   0.901   2.086   5.780  0.6887  2.0619  0.2690
 6549TIP3    H241063   1.034   2.053   5.846  0.1545 -2.0664 -0.4515
 6550TIP3   OH241064   1.862   4.700   6.094 -0.8912 -0.0390 -0.4719
 6550TIP3    H141065   1.881   4.627   6.153  0.9313 -0.1209 -1.1150
 6550TIP3    H241066   1.853   4.776   6.152  1.1285 -0.0711 -0.0587
 6551TIP3   OH241067   3.536   3.889  17.278 -0.2203 -0.5203  0.1198
 6551TIP3    H141068   3.461   3.945  17.298  0.4951  0.6322 -0.3470
 6551TIP3    H241069   3.605   3.919  17.337 -0.0602 -1.4266  0.3987
 6552TIP3   OH241070   5.314   5.736  14.756  0.9933  0.4353 -0.0791
 6552TIP3    H141071   5.306   5.642  14.744 -0.5684  0.5961 -0.4300
 6552TIP3    H241072   5.352   5.768  14.675  1.3265  0.1412 -0.0401
 6553TIP3   OH241073   2.621   4.930  16.914  0.0908 -0.0496 -0.1536
 6553TIP3    H141074   2.530   4.913  16.889 -0.0465  0.7852 -0.2429
 6553TIP3    H241075   2.669   4.929  16.831 -0.2404  1.9428 -0.4062
 6554TIP3   OH241076   4.236   0.743  15.144  0.4950  0.4185  0.3745
 6554TIP3    H141077   4.186   0.711  15.220 -0.1092  0.7586  0.1283
 6554TIP3    H241078   4.220   0.837  15.144  1.8764  0.6682  0.8113
 6555TIP3   OH241079   3.718   1.781  14.249  0.3082  0.5960 -0.3732
 6555TIP3    H141080   3.657   1.764  14.321  1.0545 -0.6325  0.0109
 6555TIP3    H241081   3.799   1.809  14.292  0.9240 -0.6460 -0.6616
 6556TIP3   OH241082   3.974   0.800   0.065 -0.3956  0.6506  0.4972
 6556TIP3    H141083   3.891   0.754   0.055 -0.3494  0.4645  0.9402
 6556TIP3    H241084   3.967   0.876   0.007  0.1442 -0.7258 -1.4789
 6557TIP3   OH241085   1.949   5.791  15.391 -0.5456  0.6183  0.3856
 6557TIP3    H141086   1.987   5.761  15.309 -0.9481  0.1228  0.3727
 6557TIP3    H241087   1.856   5.770  15.383 -0.6694  1.0008  0.7739
 6558TIP3   OH241088   4.906   2.695   6.366  0.3950  0.3541 -0.1126
 6558TIP3    H141089   4.861   2.779   6.375 -1.3246 -0.6850  1.5721
 6558TIP3    H241090   4.915   2.682   6.272  0.7538  2.4210 -0.4100
 6559TIP3   OH241091   0.698   6.282   6.194 -0.4499 -0.4249 -0.8325
 6559TIP3    H141092   0.664   6.339   6.263  0.3786  1.2596 -1.7531
 6559TIP3    H241093   0.651   6.309   6.115  0.3495 -0.6442 -1.3918
 6560TIP3   OH241094   0.730   2.408   6.374 -0.0756 -0.1852 -0.6294
 6560TIP3    H141095   0.714   2.463   6.451  0.7854 -0.9309  0.1150
 6560TIP3    H241096   0.815   2.436   6.341  0.4957 -1.2040 -0.0835
 6561TIP3   OH241097   4.882   2.398   0.910 -0.6400 -0.3995  0.3047
 6561TIP3    H141098   4.923   2.352   0.836  0.7350 -0.6564  1.1887
 6561TIP3    H241099   4.880   2.333   0.980  1.4115  0.8298  1.6025
 6562TIP3   OH241100   5.492   5.067  13.569  0.2861 -0.6655  0.0815
 6562TIP3    H141101   5.568   5.027  13.610  0.5333 -0.0373  0.2567
 6562TIP3    H241102   5.433   4.994  13.549  1.1503 -1.2149 -0.5214
 6563TIP3   OH241103   2.907   0.068  15.438 -0.0210  0.6288 -0.6637
 6563TIP3    H141104   2.980   0.035  15.490  0.6677  1.2580 -1.2064
 6563TIP3    H241105   2.927   0.043  15.348 -1.6512 -1.2439 -0.5827
 6564TIP3   OH241106   3.250   1.119   5.217  0.4927  0.4298  0.0567
 6564TIP3    H141107   3.326   1.160   5.175 -1.0330  2.9242 -0.5339
 6564TIP3    H241108   3.198   1.193   5.248 -0.5925 -1.2628  2.5200
 6565TIP3   OH241109   2.823   1.234   5.157  0.2831 -0.1396 -0.0651
 6565TIP3    H141110   2.791   1.273   5.076 -0.4822 -0.5482  0.0286
 6565TIP3    H241111   2.824   1.140   5.140  1.0469 -0.1632  0.0794
 6566TIP3   OH241112   5.124   5.297   2.688 -0.7454 -0.4986  0.0161
 6566TIP3    H141113   5.062   5.300   2.761  1.3501  1.3507  1.8472
 6566TIP3    H241114   5.122   5.385   2.651  0.3684 -0.5742 -0.2503
 6567TIP3   OH241115   0.328   1.758  12.761 -0.3439 -0.6149  0.5565
 6567TIP3    H141116   0.323   1.852  12.775 -1.8674 -0.8199  1.6640
 6567TIP3    H241117   0.289   1.744  12.675 -0.6651 -0.2753  0.6431
 6568TIP3   OH241118   6.325   0.773  13.684  0.1109 -0.5333  0.5522
 6568TIP3    H141119   6.298   0.720  13.759 -0.3538 -1.3312 -0.1627
 6568TIP3    H241120   6.299   0.862  13.707  0.4352 -0.6888  1.5513
 6569TIP3   OH241121   2.725   4.982  15.753  0.8099 -0.5357  0.0430
 6569TIP3    H141122   2.751   5.060  15.703 -1.7904  0.7235  0.4978
 6569TIP3    H241123   2.741   5.006  15.845  0.5246 -0.7607  0.1503
 6570TIP3   OH241124   2.421   1.275  16.942 -0.2002 -0.4821  0.3302
 6570TIP3    H141125   2.328   1.297  16.934  0.0634  0.5126 -0.1248
 6570TIP3    H241126   2.449   1.258  16.852  0.2587  0.0928  0.3619
 6571TIP3   OH241127   3.044   3.689   4.445 -0.0452  0.6107 -0.2239
 6571TIP3    H141128   3.064   3.782   4.431 -1.2447  0.7840 -0.8376
 6571TIP3    H241129   3.111   3.643   4.394  0.0734  1.1538 -0.5726
 6572TIP3   OH241130   4.138   1.628   0.974  0.5635  0.2023 -0.2242
 6572TIP3    H141131   4.132   1.715   1.013 -1.4455 -0.1909  0.4765
 6572TIP3    H241132   4.171   1.643   0.886  2.5282  1.4002  0.6683
 6573TIP3   OH241133   3.877   0.857  14.895  0.5439 -0.3173 -0.4247
 6573TIP3    H141134   3.801   0.828  14.845  1.6403 -1.3967 -1.5007
 6573TIP3    H241135   3.857   0.831  14.985  0.0270 -1.4555 -0.8439
 6574TIP3   OH241136   5.747   0.764  13.443  0.2594 -0.7878 -0.1104
 6574TIP3    H141137   5.714   0.680  13.477  2.5515 -1.6872  0.0860
 6574TIP3    H241138   5.739   0.756  13.348  0.2510 -1.1524 -0.0834
 6575TIP3   OH241139   0.533   4.445   1.986  0.3281 -0.0193  0.2822
 6575TIP3    H141140   0.461   4.419   2.043 -0.0744 -0.6866 -0.5086
 6575TIP3    H241141   0.604   4.385   2.009  0.0985 -0.4252 -0.0469
 6576TIP3   OH241142   4.024   1.304   1.831 -0.0802 -0.8150 -0.8059
 6576TIP3    H141143   3.995   1.394   1.815  1.5764  0.0468  0.6422
 6576TIP3    H241144   4.099   1.293   1.773 -0.4767 -1.4139 -1.2214
 6577TIP3   OH241145   2.482   0.960  11.287  0.3108 -0.0568 -0.1705
 6577TIP3    H141146   2.542   0.908  11.233  1.9926 -1.0484  2.4363
 6577TIP3    H241147   2.521   1.047  11.290  0.9506 -0.3496  0.4340
 6578TIP3   OH241148   1.300   0.687  11.464  0.0342  0.1015  0.3057
 6578TIP3    H141149   1.280   0.710  11.374 -1.6238 -0.3772  0.5253
 6578TIP3    H241150   1.274   0.763  11.516 -1.5969 -0.6335  0.6218
 6579TIP3   OH241151   5.629   0.522   2.389 -0.1518 -0.0755  0.2321
 6579TIP3    H141152   5.651   0.603   2.343 -0.1067 -1.1139 -1.6800
 6579TIP3    H241153   5.535   0.511   2.373  0.1034 -1.0706 -0.7068
 6580TIP3   OH241154   5.993   6.135   1.155 -0.7554  0.6693 -0.4658
 6580TIP3    H141155   5.976   6.040   1.151 -2.8885  0.9923 -0.1422
 6580TIP3    H241156   6.075   6.142   1.204 -0.3349 -1.0197 -0.8308
 6581TIP3   OH241157   2.966   5.791  13.154  0.3323  0.2448  0.0365
 6581TIP3    H141158   3.043   5.845  13.135 -0.0647  0.4587 -1.0574
 6581TIP3    H241159   2.929   5.771  13.068 -0.1509 -0.8741  0.4838
 6582TIP3   OH241160   5.598   5.526   0.140  0.6847  0.1206 -0.3843
 6582TIP3    H141161   5.681   5.560   0.174  0.4088  0.0876  0.3588
 6582TIP3    H241162   5.588   5.440   0.182 -1.4048  1.5549  2.4567
 6583TIP3   OH241163   4.943   0.811   3.287 -0.1675  0.3518 -0.1006
 6583TIP3    H141164   4.887   0.781   3.215 -1.4624  0.4654  0.8345
 6583TIP3    H241165   4.882   0.849   3.350  0.9655  0.3200  1.0355
 6584TIP3   OH241166   6.575   3.450  13.480 -0.2481  0.2877  0.0060
 6584TIP3    H141167   6.641   3.489  13.422 -1.6991 -0.3551 -2.2181
 6584TIP3    H241168   6.617   3.447  13.565  1.8335  1.8013 -0.8665
 6585TIP3   OH241169   5.887   2.442  10.893  0.1744 -0.0745  0.3735
 6585TIP3    H141170   5.895   2.528  10.933  0.2358  0.9802 -1.7556
 6585TIP3    H241171   5.963   2.434  10.836 -0.5575 -0.9216 -0.5330
 6586TIP3   OH241172   4.498   5.224   2.706 -0.4015 -0.5601  0.9308
 6586TIP3    H141173   4.588   5.198   2.722  0.2359  1.3383  0.6970
 6586TIP3    H241174   4.476   5.184   2.622  1.2088  1.1003 -0.3726
 6587TIP3   OH241175   0.640   4.013   0.475 -0.8412 -0.6675 -0.4711
 6587TIP3    H141176   0.707   3.970   0.527 -2.1061 -2.0227  0.1040
 6587TIP3    H241177   0.639   4.103   0.507 -0.2333 -0.9788  0.4542
 6588TIP3   OH241178   6.192   3.732   6.702  0.5025  0.3585 -0.5705
 6588TIP3    H141179   6.169   3.641   6.720  0.7444  0.4177  0.0372
 6588TIP3    H241180   6.117   3.783   6.734 -0.0169  0.3288 -1.6792
 6589TIP3   OH241181   3.175   2.171  13.925  0.0021 -0.5521  0.4189
 6589TIP3    H141182   3.192   2.209  13.838  1.8883  0.5457  1.2075
 6589TIP3    H241183   3.154   2.246  13.980  0.2407 -1.0679  1.2263
 6590TIP3   OH241184   2.321   4.416  12.867 -0.2918 -0.1026  0.0798
 6590TIP3    H141185   2.371   4.387  12.944 -1.0752 -1.1055  0.2329
 6590TIP3    H241186   2.386   4.420  12.797  0.3289  0.2919  0.6688
 6591TIP3   OH241187   1.117   2.869  14.287  0.2140  0.0932  0.1400
 6591TIP3    H141188   1.080   2.852  14.200 -0.2201 -0.1163  0.3619
 6591TIP3    H241189   1.075   2.950  14.315 -0.4000 -0.3567  0.5624
 6592TIP3   OH241190   4.657   3.126   4.665 -0.0084 -0.1392 -0.2327
 6592TIP3    H141191   4.693   3.092   4.747 -2.1062 -1.8741  0.0259
 6592TIP3    H241192   4.566   3.098   4.664 -0.3811  0.8844 -2.6107
 6593TIP3   OH241193   3.141   4.743   5.297  0.3306  0.1387  0.1067
 6593TIP3    H141194   3.183   4.717   5.215  1.2210 -0.4896  0.7466
 6593TIP3    H241195   3.106   4.830   5.279  3.9832  1.8358  0.1839
 6594TIP3   OH241196   3.350   3.827  13.340 -0.3208 -0.4328  0.0568
 6594TIP3    H141197   3.300   3.872  13.408 -0.3898 -0.3452 -0.0532
 6594TIP3    H241198   3.288   3.766  13.301  0.2235 -1.9531  1.4212
 6595TIP3   OH241199   4.422   6.335  14.153 -0.1966  0.2063 -0.4621
 6595TIP3    H141200   4.413   6.308  14.244  0.5880  1.5661  0.0564
 6595TIP3    H241201   4.365   6.411  14.145  0.6072  0.7862 -0.7813
 6596TIP3   OH241202   5.512   1.665  14.701 -0.7217 -0.3602 -0.6064
 6596TIP3    H141203   5.554   1.669  14.787  0.5530 -0.5047 -1.2035
 6596TIP3    H241204   5.422   1.694  14.717 -0.9982 -1.9790  1.0674
 6597TIP3   OH241205   0.528   2.018   5.607  0.5974  0.7276 -0.3781
 6597TIP3    H141206   0.533   1.947   5.670  2.6970  1.5256  0.4478
 6597TIP3    H241207   0.534   1.976   5.522  1.0557 -0.1292  0.0723
 6598TIP3   OH241208   2.206   5.760   2.832  0.4543 -0.1024 -0.2366
 6598TIP3    H141209   2.113   5.759   2.853  0.7220 -1.6069  1.0057
 6598TIP3    H241210   2.217   5.691   2.767  0.6567  0.3457 -0.6895
 6599TIP3   OH241211   1.672   4.845  12.811  0.0168  0.4550 -0.0963
 6599TIP3    H141212   1.738   4.864  12.877  0.8996 -1.9031 -0.2234
 6599TIP3    H241213   1.697   4.899  12.736  1.6777 -0.2209 -0.0624
 6600TIP3   OH241214   1.098   5.409  12.605  0.3967 -0.3119 -0.0611
 6600TIP3    H141215   1.026   5.351  12.628  0.2128  0.4586  1.4466
 6600TIP3    H241216   1.177   5.357  12.622  0.3176  0.3898  3.2825
 6601TIP3   OH241217   2.814   3.966   5.538 -0.0583 -0.2218  0.2661
 6601TIP3    H141218   2.820   4.036   5.604 -1.2208  0.0949  0.0572
 6601TIP3    H241219   2.764   4.005   5.466 -0.1029 -1.0500 -0.1623
 6602TIP3   OH241220   4.790   3.563   1.536  0.2297 -0.3207  0.6071
 6602TIP3    H141221   4.835   3.503   1.476 -0.5527 -0.9747  0.6532
 6602TIP3    H241222   4.855   3.629   1.558  0.5639 -0.1026 -0.9168
 6603TIP3   OH241223   4.706   2.879  14.373  0.3753 -0.4152  0.1874
 6603TIP3    H141224   4.748   2.881  14.459  0.4454 -0.1676  0.1480
 6603TIP3    H241225   4.635   2.944  14.379  1.2596  0.6368 -0.3878
 6604TIP3   OH241226   3.883   2.258  16.181 -0.1244 -0.1988 -0.1003
 6604TIP3    H141227   3.831   2.230  16.106  0.1527  1.5422 -0.9749
 6604TIP3    H241228   3.923   2.177  16.214 -1.5132 -1.2084 -0.8348
 6605TIP3   OH241229   6.166   5.334  11.872 -0.0920  0.4002  0.4870
 6605TIP3    H141230   6.246   5.386  11.861  1.4753 -2.0257 -0.2083
 6605TIP3    H241231   6.141   5.310  11.783  0.0763 -1.2054  0.8391
 6606TIP3   OH241232   1.534   3.937   4.694 -0.1069 -0.1771  0.1277
 6606TIP3    H141233   1.534   3.909   4.785  0.2477  3.0041  1.2317
 6606TIP3    H241234   1.613   3.991   4.685 -1.6012  1.9728 -1.1891
 6607TIP3   OH241235   4.534   3.778  14.537 -0.0256  0.0650 -0.2650
 6607TIP3    H141236   4.618   3.807  14.570  0.2050 -0.3641 -0.4653
 6607TIP3    H241237   4.546   3.685  14.519 -0.7556 -0.1675  0.3961
 6608TIP3   OH241238   5.661   4.769  14.448 -0.0268  0.1524 -0.2160
 6608TIP3    H141239   5.623   4.723  14.523  2.2384 -0.7205  0.4654
 6608TIP3    H241240   5.657   4.705  14.377  2.1416 -0.8462  0.4585
 6609TIP3   OH241241   1.724   1.701   0.622  0.3456 -0.5761 -0.5710
 6609TIP3    H141242   1.714   1.747   0.706 -0.2076 -1.8095  0.0588
 6609TIP3    H241243   1.665   1.748   0.562  1.7823  1.2024 -0.6930
 6610TIP3   OH241244   1.902   1.673   2.023  0.3336 -0.0976  0.3063
 6610TIP3    H141245   1.824   1.683   1.968  0.1810 -0.8795  0.3730
 6610TIP3    H241246   1.974   1.706   1.969 -0.0984  1.0507  0.4148
 6611TIP3   OH241247   5.144   2.930  13.487 -0.6695  0.4215  0.2256
 6611TIP3    H141248   5.230   2.924  13.446 -0.3825  0.9690  0.7371
 6611TIP3    H241249   5.115   3.019  13.468 -1.8121 -0.2234 -1.2727
 6612TIP3   OH241250   2.138   4.819  17.163  0.3190  0.3981 -0.1885
 6612TIP3    H141251   2.090   4.740  17.140  1.2257 -0.0436 -0.6416
 6612TIP3    H241252   2.076   4.872  17.213 -0.0331 -0.9676  0.8574
 6613TIP3   OH241253   3.571   3.127  12.384  0.1526  0.2571  0.1996
 6613TIP3    H141254   3.646   3.184  12.402  0.5144 -0.3061  0.5076
 6613TIP3    H241255   3.566   3.069  12.460 -1.3532  1.0725  0.7690
 6614TIP3   OH241256   0.636   2.663   5.714  0.3172 -0.3087 -0.1839
 6614TIP3    H141257   0.607   2.664   5.805  0.4545  0.7511 -0.1384
 6614TIP3    H241258   0.571   2.609   5.669  0.4330 -1.1103  0.5911
 6615TIP3   OH241259   1.313   1.307   1.058  0.1469  0.0551 -0.2218
 6615TIP3    H141260   1.287   1.360   1.134  2.5501  2.4088 -0.8643
 6615TIP3    H241261   1.315   1.217   1.091 -2.9601  0.3988  1.2771
 6616TIP3   OH241262   2.604   4.461  15.890 -0.1296 -0.1398  0.4724
 6616TIP3    H141263   2.524   4.478  15.939 -1.6582 -0.6418 -1.7061
 6616TIP3    H241264   2.657   4.540  15.902 -1.1063  0.3625  1.6425
 6617TIP3   OH241265   5.867   0.504  16.398 -0.1214 -0.1006  0.2004
 6617TIP3    H141266   5.875   0.429  16.456  2.1515  0.1522  0.2953
 6617TIP3    H241267   5.867   0.580  16.456 -0.3734  0.0627 -0.0064
 6618TIP3   OH241268   6.231   2.755  15.745 -0.2947 -0.1964 -0.5127
 6618TIP3    H141269   6.301   2.766  15.809  0.3787  0.6828 -1.3702
 6618TIP3    H241270   6.161   2.712  15.794 -0.0325  0.9704  0.9761
 6619TIP3   OH241271   5.684   2.346   0.488 -0.3513  0.2574 -0.0842
 6619TIP3    H141272   5.605   2.343   0.543 -1.2494  0.7307 -1.2918
 6619TIP3    H241273   5.684   2.435   0.453 -0.2584 -0.2708 -1.4690
 6620TIP3   OH241274   2.036   3.231  12.290 -0.0512 -0.3127  0.2172
 6620TIP3    H141275   1.997   3.243  12.204  0.1823 -0.1626  0.1296
 6620TIP3    H241276   2.077   3.145  12.286 -0.0486 -0.3098  0.1792
 6621TIP3   OH241277   6.641   2.180   4.905  0.2785  0.0490  0.0908
 6621TIP3    H141278   6.666   2.160   4.815  1.8800  2.1164  0.0010
 6621TIP3    H241279   6.562   2.233   4.897  1.0663  1.2057 -0.1963
 6622TIP3   OH241280   1.720   0.441   6.009  0.2319  0.1958 -0.0243
 6622TIP3    H141281   1.757   0.529   6.006  0.3779  0.2492  1.9192
 6622TIP3    H241282   1.717   0.420   6.102  0.5811 -2.0228 -0.4685
 6623TIP3   OH241283   4.670   0.066  15.526 -0.1791  0.8007 -0.2265
 6623TIP3    H141284   4.718  -0.014  15.545 -0.1810  0.5984 -1.0599
 6623TIP3    H241285   4.672   0.115  15.609  0.4544  0.2796  0.0752
 6624TIP3   OH241286   0.053   0.970   0.110  0.2312  0.3122 -0.0196
 6624TIP3    H141287  -0.039   0.946   0.121  0.0511  1.9889  3.0587
 6624TIP3    H241288   0.051   1.057   0.071  0.6635 -0.5476 -2.1146
 6625TIP3   OH241289   3.482   1.505   4.847 -0.2928 -0.5264  0.6538
 6625TIP3    H141290   3.464   1.581   4.903 -1.6261 -0.2860 -0.0520
 6625TIP3    H241291   3.396   1.467   4.831  0.1911 -1.2522 -0.3086
 6626TIP3   OH241292   4.979   4.270   0.028 -0.5790  0.1717 -0.2196
 6626TIP3    H141293   4.985   4.198  -0.035  0.7511  0.7344 -0.7514
 6626TIP3    H241294   5.022   4.237   0.107 -1.9563 -0.4109  0.3332
 6627TIP3   OH241295   6.072   6.605   0.226  0.2264 -0.2959  0.4791
 6627TIP3    H141296   6.073   6.526   0.281 -0.6219  0.5688  1.7812
 6627TIP3    H241297   6.032   6.672   0.281 -0.0496  0.7814 -0.9893
 6628TIP3   OH241298   1.130   1.260   4.985  0.0569 -0.0386  0.4733
 6628TIP3    H141299   1.123   1.318   5.060 -1.0836  0.2311  0.1708
 6628TIP3    H241300   1.144   1.173   5.022  1.8298  0.4038  0.9288
 6629TIP3   OH241301   0.975   1.024   6.301 -0.0865 -0.4689  0.0189
 6629TIP3    H141302   0.903   1.069   6.345 -0.1641 -1.2677  0.7441
 6629TIP3    H241303   0.995   0.949   6.358  2.0062  0.2848  0.3949
 6630TIP3   OH241304   6.735   3.045  12.920  0.1033  0.1089  0.1041
 6630TIP3    H141305   6.820   3.009  12.946  0.3298  0.7977  0.3172
 6630TIP3    H241306   6.672   2.977  12.946  0.7647 -1.5165 -2.2468
 6631TIP3   OH241307   1.182   2.097  15.761  0.0720 -0.2864 -0.4891
 6631TIP3    H141308   1.087   2.105  15.767 -0.0062 -0.8974 -0.8723
 6631TIP3    H241309   1.216   2.163  15.822 -0.5715  1.1369 -1.6290
 6632TIP3   OH241310   3.529   6.067   0.341 -0.0179 -0.2062  0.6493
 6632TIP3    H141311   3.551   6.080   0.433 -2.1121 -1.7158  1.4589
 6632TIP3    H241312   3.520   5.972   0.331 -2.9192  0.0599 -0.2406
 6633TIP3   OH241313   4.994   2.212   0.705 -0.8252 -0.2334 -0.9252
 6633TIP3    H141314   5.059   2.177   0.767 -0.9259  1.7722  0.3977
 6633TIP3    H241315   5.026   2.186   0.619  1.8719  0.8494 -0.3422
 6634TIP3   OH241316   6.612   0.028   3.633  0.3460 -0.2253 -0.0075
 6634TIP3    H141317   6.654   0.018   3.719  1.9047  0.9885 -0.5708
 6634TIP3    H241318   6.552   0.101   3.644 -0.0701 -0.6001  0.2500
 6635TIP3   OH241319   6.591   6.342   3.018 -0.4914  0.1296  0.2062
 6635TIP3    H141320   6.679   6.346   2.980 -1.2805  1.1713 -1.6073
 6635TIP3    H241321   6.592   6.408   3.088  0.3885 -0.4635  0.7868
 6636TIP3   OH241322   2.594   2.862  13.546 -0.1439  0.7985 -0.0730
 6636TIP3    H141323   2.659   2.827  13.607 -1.0011  1.2235  1.1182
 6636TIP3    H241324   2.580   2.792  13.482  2.5190  1.1946 -1.2300
 6637TIP3   OH241325   3.177   2.056   4.304 -0.1812 -0.3647 -0.0920
 6637TIP3    H141326   3.192   2.029   4.395 -0.5934 -0.3619 -0.0199
 6637TIP3    H241327   3.254   2.109   4.282 -0.7218  0.7973  0.7242
 6638TIP3   OH241328   6.293   2.541  13.366 -0.3124  0.3066 -0.2546
 6638TIP3    H141329   6.306   2.590  13.448  3.6835  0.3021 -0.6819
 6638TIP3    H241330   6.224   2.589  13.321 -1.9263  0.9342  2.5845
 6639TIP3   OH241331   3.258   5.549   1.403  0.6004  0.1866 -0.0580
 6639TIP3    H141332   3.217   5.635   1.408 -1.3493 -0.6113 -0.8966
 6639TIP3    H241333   3.328   5.551   1.467  0.9145  2.5362 -0.3831
 6640TIP3   OH241334   2.429   3.094   1.223  0.3294  0.7877  1.1244
 6640TIP3    H141335   2.506   3.051   1.261 -1.1947 -3.3714  0.0624
 6640TIP3    H241336   2.452   3.109   1.132  0.3321  0.8247  1.1310
 6641TIP3   OH241337   6.545   4.534   1.060  0.6512  0.2856  0.0693
 6641TIP3    H141338   6.518   4.464   1.119 -0.4426  0.8970  0.3281
 6641TIP3    H241339   6.587   4.490   0.986  0.6719 -0.5796  0.5894
 6642TIP3   OH241340   2.763   3.822   0.012 -0.2493 -0.0594  0.0237
 6642TIP3    H141341   2.828   3.837  -0.056  0.5592  1.5014  1.0899
 6642TIP3    H241342   2.799   3.750   0.065  0.5855  0.7192  0.5399
 6643TIP3   OH241343   1.917   6.379  12.841  0.4103  0.0990 -0.5252
 6643TIP3    H141344   1.938   6.286  12.825 -1.2602 -0.0411 -2.3013
 6643TIP3    H241345   1.987   6.426  12.795  0.2302 -0.3125 -1.2512
 6644TIP3   OH241346   3.354   3.018   3.380 -0.0259  0.1991 -0.3423
 6644TIP3    H141347   3.271   3.040   3.337  0.8227  1.1081 -1.5953
 6644TIP3    H241348   3.372   2.928   3.354 -0.3397  0.1903 -0.5345
 6645TIP3   OH241349   6.045   6.432  15.128 -0.3179  0.4159 -0.4390
 6645TIP3    H141350   5.960   6.467  15.152 -0.0140  1.4242 -0.7484
 6645TIP3    H241351   6.087   6.411  15.211 -0.7057  0.3141 -0.2676
 6646TIP3   OH241352   5.468   0.050  12.300  0.1009 -0.7502 -0.1405
 6646TIP3    H141353   5.433   0.103  12.372 -0.9164 -0.7114 -0.6414
 6646TIP3    H241354   5.427   0.087  12.221  0.9444 -1.0007 -0.7062
 6647TIP3   OH241355   1.940   1.443   0.669 -0.2514  0.1463 -0.0715
 6647TIP3    H141356   1.934   1.359   0.715  1.5689 -1.6627 -2.8347
 6647TIP3    H241357   1.857   1.488   0.690 -1.9817 -2.9544  0.3521
 6648TIP3   OH241358   4.712   3.138   0.328 -0.2715  0.1886  0.9972
 6648TIP3    H141359   4.766   3.210   0.295 -2.0637  1.8751  1.5175
 6648TIP3    H241360   4.732   3.134   0.422 -3.5118  3.4151  2.0930
 6649TIP3   OH241361   2.716   1.371  12.781  0.3852  0.1723 -0.2825
 6649TIP3    H141362   2.631   1.339  12.811  0.8659 -1.6268 -0.7186
 6649TIP3    H241363   2.721   1.461  12.813 -0.6939 -0.4348  1.7314
 6650TIP3   OH241364   1.491   0.183   0.934  0.1255  0.0009 -0.4310
 6650TIP3    H141365   1.424   0.220   0.991  0.8114 -0.3483  0.6306
 6650TIP3    H241366   1.499   0.092   0.963  0.6523 -0.1188 -0.9287
 6651TIP3   OH241367   6.536   2.420   0.226 -0.4537  0.3418  0.1055
 6651TIP3    H141368   6.598   2.492   0.237  0.7474 -0.5642 -0.3913
 6651TIP3    H241369   6.549   2.392   0.135  1.5084 -2.5276  1.1033
 6652TIP3   OH241370   3.176   5.686   5.749 -0.1715  0.3108 -0.1408
 6652TIP3    H141371   3.093   5.654   5.714 -0.0900 -1.2854  1.0059
 6652TIP3    H241372   3.223   5.719   5.673 -2.4851  2.8441 -0.6150
 6653TIP3   OH241373   2.476   5.181  17.124  0.3172 -0.2693 -0.0509
 6653TIP3    H141374   2.419   5.121  17.076 -0.3317  1.0898 -1.0467
 6653TIP3    H241375   2.550   5.127  17.151 -0.7292 -1.7400 -0.0068
 6654TIP3   OH241376   2.457   2.807  11.352  0.5990 -0.2748 -0.0256
 6654TIP3    H141377   2.396   2.734  11.350 -0.9235  0.9367 -2.2373
 6654TIP3    H241378   2.499   2.805  11.266  1.9947  0.3258  0.6043
 6655TIP3   OH241379   0.318   0.009  15.919  0.2049 -0.3563 -0.7382
 6655TIP3    H141380   0.355   0.015  16.007 -0.6749  1.7386 -0.4378
 6655TIP3    H241381   0.385   0.046  15.862  1.5434 -3.3527 -1.3083
 6656TIP3   OH241382   5.644   0.557   2.036 -0.1367 -0.4070 -0.5200
 6656TIP3    H141383   5.566   0.608   2.011 -0.0337 -1.0183 -2.2542
 6656TIP3    H241384   5.712   0.586   1.975  2.3345  3.0365  3.3920
 6657TIP3   OH241385   0.980   1.476  16.057 -0.5060 -0.0363 -0.0185
 6657TIP3    H141386   0.951   1.423  15.983  1.8363 -1.0613 -0.3084
 6657TIP3    H241387   1.064   1.512  16.029 -0.6809  1.4948  1.2836
 6658TIP3   OH241388   1.162   4.493   3.637  0.0142 -0.2450  0.0786
 6658TIP3    H141389   1.201   4.416   3.596 -0.6506 -0.6232  0.1416
 6658TIP3    H241390   1.232   4.530   3.691  1.1530  0.6858 -1.9152
 6659TIP3   OH241391   1.105   3.909  16.603  0.5938  0.1748 -0.1268
 6659TIP3    H141392   1.190   3.930  16.564  0.5686  0.4669 -0.0209
 6659TIP3    H241393   1.048   3.981  16.577  0.1226 -0.5007 -1.0169
 6660TIP3   OH241394   5.328   2.112  14.247  0.1340  0.2576  0.2472
 6660TIP3    H141395   5.360   2.168  14.176  0.2171  0.2428  0.2717
 6660TIP3    H241396   5.253   2.066  14.210  0.2869  0.1146  0.1088
 6661TIP3   OH241397   3.559   3.853   6.383 -0.1466 -0.3571  0.3441
 6661TIP3    H141398   3.534   3.907   6.458 -0.3531  1.8735 -1.2598
 6661TIP3    H241399   3.654   3.843   6.392 -0.1824 -0.2109  0.9465
 6662TIP3   OH241400   5.469   2.245   4.409 -0.3919  0.6477 -0.2422
 6662TIP3    H141401   5.552   2.204   4.433 -0.7463  0.5896  0.9268
 6662TIP3    H241402   5.402   2.192   4.451 -1.0647  0.4470 -1.5278
 6663TIP3   OH241403   1.039   1.747  16.939 -0.5088  0.4741 -0.4148
 6663TIP3    H141404   1.108   1.680  16.941 -1.2046 -0.2648 -0.7131
 6663TIP3    H241405   1.083   1.825  16.906  0.5628  0.4712  0.9351
 6664TIP3   OH241406   5.305   5.480  11.678  0.6841 -0.3733 -0.2030
 6664TIP3    H141407   5.300   5.538  11.754  1.2969  0.6998 -0.9617
 6664TIP3    H241408   5.398   5.468  11.663  0.6797  1.3985 -2.2043
 6665TIP3   OH241409   1.368   5.779   3.366  0.4550  0.3587 -0.0623
 6665TIP3    H141410   1.460   5.803   3.379  0.4941  0.0192  0.3300
 6665TIP3    H241411   1.339   5.833   3.293  1.6521 -1.2490 -1.8126
 6666TIP3   OH241412   6.128   5.388   5.425 -0.5842 -0.4199  0.1205
 6666TIP3    H141413   6.182   5.458   5.389 -0.2577 -1.0238 -0.6036
 6666TIP3    H241414   6.163   5.308   5.384  0.3007 -1.2441  2.3482
 6667TIP3   OH241415   1.298   3.578  16.790  0.4365  0.2109 -0.2100
 6667TIP3    H141416   1.252   3.620  16.862  0.8227  0.2678  0.0076
 6667TIP3    H241417   1.346   3.506  16.831 -0.8294 -0.9405 -0.6862
 6668TIP3   OH241418   1.864   2.303  12.315 -0.0657 -0.2646  0.8108
 6668TIP3    H141419   1.795   2.367  12.294 -0.9530 -2.0188 -2.3403
 6668TIP3    H241420   1.933   2.321  12.251  0.2925 -1.5202  0.8183
 6669TIP3   OH241421   4.625   0.627  12.370 -0.1930 -0.0366 -0.7049
 6669TIP3    H141422   4.532   0.649  12.375 -0.1110  0.1398  0.1140
 6669TIP3    H241423   4.630   0.555  12.307 -1.1218 -1.4077  0.7249
 6670TIP3   OH241424   2.437   4.095  12.807 -0.4306  0.5585  0.1536
 6670TIP3    H141425   2.364   4.127  12.860 -0.4424  1.4982 -0.3855
 6670TIP3    H241426   2.427   4.000  12.807 -1.0614  0.6118  0.9217
 6671TIP3   OH241427   0.674   6.270   3.992 -0.0162 -0.2683  0.2139
 6671TIP3    H141428   0.674   6.182   4.030  0.9831  0.6228  2.3904
 6671TIP3    H241429   0.743   6.317   4.038 -1.2554  2.0129 -0.1104
 6672TIP3   OH241430   5.160   0.469  16.112  0.0765 -0.3615 -0.6444
 6672TIP3    H141431   5.245   0.511  16.124 -0.6792  0.8590  0.6840
 6672TIP3    H241432   5.156   0.402  16.180  0.3781 -1.1768 -1.3938
 6673TIP3   OH241433   0.684   4.468   1.357  0.4372 -0.3066 -0.4216
 6673TIP3    H141434   0.766   4.508   1.329  0.2797 -0.6841 -1.4360
 6673TIP3    H241435   0.695   4.375   1.337 -0.9117 -0.1160 -2.2577
 6674TIP3   OH241436   5.053   1.958  13.805  0.0403 -0.1254  0.7354
 6674TIP3    H141437   4.979   1.901  13.782  0.2957  0.2238 -1.1245
 6674TIP3    H241438   5.119   1.939  13.738  0.7889  1.1220  1.0888
 6675TIP3   OH241439   1.490   6.248  13.781 -0.7113  0.6486 -0.3658
 6675TIP3    H141440   1.564   6.223  13.726  0.5448  3.2106  0.0222
 6675TIP3    H241441   1.466   6.167  13.827  2.9717 -0.0129  0.7481
 6676TIP3   OH241442   5.125   0.334  14.912  0.1163 -0.0083 -0.2042
 6676TIP3    H141443   5.138   0.282  14.991  1.6110 -0.1535 -0.5147
 6676TIP3    H241444   5.208   0.327  14.865  0.7767  3.4403  0.1935
 6677TIP3   OH241445   3.989   1.808  11.678  0.0259 -0.2263  0.0590
 6677TIP3    H141446   4.037   1.884  11.711  0.8520 -0.8804  0.3837
 6677TIP3    H241447   3.929   1.845  11.613  0.1426  0.7531  0.4854
 6678TIP3   OH241448   6.698   0.792  10.552  0.1351  0.0023  0.0757
 6678TIP3    H141449   6.697   0.746  10.635 -0.4066 -0.3971 -0.1422
 6678TIP3    H241450   6.782   0.770  10.512  0.4226  0.2474  0.5368
 6679TIP3   OH241451   2.178   2.814  12.979 -0.7111 -0.0553 -0.5440
 6679TIP3    H141452   2.096   2.816  12.928 -1.0952 -3.1041 -0.2143
 6679TIP3    H241453   2.158   2.866  13.057 -2.4015 -0.7567 -0.4504
 6680TIP3   OH241454   4.296   5.684   6.264 -0.3727  0.8924 -0.1181
 6680TIP3    H141455   4.271   5.593   6.282 -2.1756  1.3398 -0.1817
 6680TIP3    H241456   4.330   5.717   6.348 -0.4067  0.3932  0.0965
 6681TIP3   OH241457   3.334   1.510   5.263 -0.0008  0.5480 -0.2997
 6681TIP3    H141458   3.383   1.591   5.278  0.1773  0.4657 -0.4390
 6681TIP3    H241459   3.246   1.539   5.237 -0.0147  0.6943 -0.0969
 6682TIP3   OH241460   2.321   6.624   4.859 -0.0371  0.4675  0.0914
 6682TIP3    H141461   2.310   6.633   4.764 -1.0536 -0.5246  0.0923
 6682TIP3    H241462   2.405   6.666   4.877 -0.8590  2.7274 -0.9197
 6683TIP3   OH241463   5.599   2.599  16.610  0.9522 -0.3037 -0.0466
 6683TIP3    H141464   5.618   2.689  16.582  1.4164 -1.1917 -2.8320
 6683TIP3    H241465   5.509   2.603  16.642  1.2643  1.3027  0.7549
 6684TIP3   OH241466   2.330   1.251   1.701  0.4417 -0.0135  0.2586
 6684TIP3    H141467   2.350   1.327   1.756  3.0397 -0.0220 -0.5693
 6684TIP3    H241468   2.382   1.180   1.738 -0.9608 -1.0983  0.2335
 6685TIP3   OH241469   6.021   4.115  12.804  0.0679  0.0602 -0.0979
 6685TIP3    H141470   6.005   4.040  12.747  0.3718 -0.2618  0.2335
 6685TIP3    H241471   5.941   4.122  12.856 -0.4870  0.7775 -1.0207
 6686TIP3   OH241472   3.161   0.638  14.975 -0.6694 -0.4684 -0.0685
 6686TIP3    H141473   3.104   0.691  15.031  1.2267  1.4727  0.1430
 6686TIP3    H241474   3.187   0.696  14.904  0.7777 -1.3845 -0.3406
 6687TIP3   OH241475   3.708   6.183   5.417  0.0958 -0.4348  0.0421
 6687TIP3    H141476   3.759   6.103   5.432  2.6641  0.9758 -0.4587
 6687TIP3    H241477   3.676   6.208   5.504  3.3234  0.4405  1.1408
 6688TIP3   OH241478   2.878   3.189   1.550 -0.5867  0.0879 -0.0699
 6688TIP3    H141479   2.847   3.100   1.567 -0.8554  0.3447  0.8238
 6688TIP3    H241480   2.798   3.238   1.528 -0.6088  0.3980  0.7022
 6689TIP3   OH241481   0.830   5.736   3.112 -0.1265  0.1884 -0.3267
 6689TIP3    H141482   0.804   5.798   3.179  0.8081 -0.0907  0.3061
 6689TIP3    H241483   0.891   5.784   3.056  0.1973 -0.0025 -0.1398
 6690TIP3   OH241484   6.207   4.731  12.527 -0.4307  0.0803  0.2564
 6690TIP3    H141485   6.272   4.786  12.484  1.0316  0.1852  2.4459
 6690TIP3    H241486   6.136   4.791  12.550  1.6924  1.5481  3.7597
 6691TIP3   OH241487   0.064   3.653   0.723 -0.2844  0.2193  0.1536
 6691TIP3    H141488  -0.009   3.596   0.745 -2.5987  2.2653 -1.6459
 6691TIP3    H241489   0.112   3.665   0.805 -2.5403 -0.4541  1.6304
 6692TIP3   OH241490   5.550   6.063   6.004  0.0557 -0.7724  0.4307
 6692TIP3    H141491   5.629   6.041   6.054  0.0230  0.5551  1.1031
 6692TIP3    H241492   5.488   5.993   6.026  0.4271 -0.8253  1.3818
 6693TIP3   OH241493   2.068   5.184   3.643 -0.2094  0.1983 -0.3224
 6693TIP3    H141494   2.041   5.236   3.719  0.7704 -1.8441  1.5701
 6693TIP3    H241495   2.148   5.226   3.611 -0.8196  1.2784 -0.4729
 6694TIP3   OH241496   1.825   4.578   1.672  0.3486 -0.1160 -0.3106
 6694TIP3    H141497   1.879   4.640   1.622 -0.3004  0.6954 -0.0317
 6694TIP3    H241498   1.826   4.498   1.620  0.0801  0.5581 -1.3910
 6695TIP3   OH241499   0.885   1.663  14.412 -0.1439  0.2069 -0.3736
 6695TIP3    H141500   0.797   1.675  14.446 -0.2031 -0.1971 -0.3835
 6695TIP3    H241501   0.873   1.626  14.325  0.0423 -0.0500 -0.2908
 6696TIP3   OH241502   3.311   5.503  11.347  0.2288 -0.2953 -0.5795
 6696TIP3    H141503   3.257   5.568  11.392  1.4441 -0.2671  0.8853
 6696TIP3    H241504   3.316   5.535  11.257 -0.6235  0.6962 -0.2980
 6697TIP3   OH241505   1.913   2.388   0.067 -0.1260 -0.0283  0.6989
 6697TIP3    H141506   1.978   2.457   0.077  0.9679 -0.9366  0.0819
 6697TIP3    H241507   1.947   2.333  -0.003 -1.3507 -0.7802  0.6639
 6698TIP3   OH241508   6.739   2.679  13.127 -0.0105  0.4219 -0.0388
 6698TIP3    H141509   6.811   2.620  13.152  1.2178  0.9762 -2.0082
 6698TIP3    H241510   6.660   2.626  13.138  1.0862 -1.9958 -2.5153
 6699TIP3   OH241511   2.736   0.557  11.361 -0.1392  0.2782  0.4736
 6699TIP3    H141512   2.733   0.476  11.310 -0.4331  0.4585  0.2007
 6699TIP3    H241513   2.661   0.549  11.421  1.1335 -0.6707  2.0239
 6700TIP3   OH241514   2.021   5.000  14.072  0.9783 -0.3809  0.0423
 6700TIP3    H141515   2.117   4.998  14.077  1.0860  1.0371 -0.8569
 6700TIP3    H241516   1.992   5.010  14.163  1.6917 -0.4766  0.2856
 6701TIP3   OH241517   2.827   2.296  14.250  0.3142 -0.6187 -0.6348
 6701TIP3    H141518   2.868   2.227  14.302 -0.2549 -0.6564 -0.2229
 6701TIP3    H241519   2.762   2.335  14.310  0.8837  0.5167 -0.7295
 6702TIP3   OH241520   2.767   2.819   4.068 -0.6388  0.2590  0.2239
 6702TIP3    H141521   2.736   2.909   4.076  1.4498  1.3566 -2.3880
 6702TIP3    H241522   2.705   2.778   4.008 -0.0858  0.8361 -0.7688
 6703TIP3   OH241523   0.590   3.622   0.790 -0.4557  0.3728  0.2009
 6703TIP3    H141524   0.609   3.620   0.884 -0.7024  0.7243  0.2581
 6703TIP3    H241525   0.539   3.542   0.775 -0.0325  0.0852  0.2819
 6704TIP3   OH241526   1.651   6.345  16.316 -0.1380 -0.0095 -0.2045
 6704TIP3    H141527   1.724   6.351  16.255  0.4298  0.7158  0.5303
 6704TIP3    H241528   1.687   6.299  16.393  0.1173  2.0032  0.9456
 6705TIP3   OH241529   3.496   5.481  16.943  0.6836  0.5466  0.3901
 6705TIP3    H141530   3.538   5.398  16.917  0.6739  0.7084 -0.1632
 6705TIP3    H241531   3.530   5.499  17.030  0.1830 -0.3816  0.7917
 6706TIP3   OH241532   0.023   0.630  17.164  0.0627  0.3668 -0.5793
 6706TIP3    H141533  -0.008   0.635  17.074  0.4796 -0.6868 -0.8015
 6706TIP3    H241534   0.093   0.564  17.162 -0.2769 -0.0671  0.6063
 6707TIP3   OH241535   5.187   1.981   1.127  0.0420  0.7100  0.3110
 6707TIP3    H141536   5.183   2.011   1.218  2.0162  2.2763 -0.0469
 6707TIP3    H241537   5.166   1.887   1.132  1.0750  0.5349  2.5276
 6708TIP3   OH241538   4.230   2.201   5.192 -0.1742  0.6442  0.4545
 6708TIP3    H141539   4.157   2.155   5.233  1.4089 -0.4424  2.2608
 6708TIP3    H241540   4.292   2.131   5.168  0.0348  1.4645 -1.6389
 6709TIP3   OH241541   2.619   3.297  13.954  0.0891  0.5424 -0.1292
 6709TIP3    H141542   2.590   3.321  14.042  1.8193  0.4107  0.5248
 6709TIP3    H241543   2.655   3.209  13.964 -0.8927 -0.0153 -1.2677
 6710TIP3   OH241544   5.947   4.547   2.588 -1.0478  0.5118  0.3891
 6710TIP3    H141545   5.909   4.628   2.555 -2.1656  0.7514  2.1158
 6710TIP3    H241546   5.879   4.481   2.573 -0.8888  0.2926  0.6236
 6711TIP3   OH241547   0.582   6.708  11.776  0.0160  0.7126  0.3395
 6711TIP3    H141548   0.550   6.730  11.689 -1.1557  2.2690  1.1309
 6711TIP3    H241549   0.677   6.702  11.766 -0.2561 -3.9788 -2.0623
 6712TIP3   OH241550   4.872   4.510  11.920 -0.0207 -0.0982  0.2246
 6712TIP3    H141551   4.849   4.594  11.882 -0.2516  0.6419  1.8917
 6712TIP3    H241552   4.819   4.446  11.872 -1.9209  1.0204  0.7228
 6713TIP3   OH241553   2.470   2.408  13.031 -0.0575  0.1469 -0.3688
 6713TIP3    H141554   2.522   2.484  13.007 -0.4531  1.1839  1.7782
 6713TIP3    H241555   2.381   2.428  13.000 -0.1501  0.5506  0.1491
 6714TIP3   OH241556   3.219   6.581   3.976 -0.2161  0.0425  0.0785
 6714TIP3    H141557   3.187   6.491   3.976 -0.6228  0.1493 -1.5382
 6714TIP3    H241558   3.155   6.629   4.028 -0.8351 -0.3522 -0.3008
 6715TIP3   OH241559   4.595   3.633   0.022 -0.5831  0.0296 -0.2547
 6715TIP3    H141560   4.662   3.698   0.002 -1.1546  0.4900 -0.7605
 6715TIP3    H241561   4.540   3.632  -0.056 -1.3810 -0.0478  0.2945
 6716TIP3   OH241562   2.690   0.275   3.221  0.0062 -0.2966 -0.0546
 6716TIP3    H141563   2.706   0.185   3.249  3.5824  0.0647 -0.5694
 6716TIP3    H241564   2.763   0.325   3.257 -0.4017  1.9204 -2.0910
 6717TIP3   OH241565   1.919   2.055  11.777 -0.4823 -0.2469  0.0943
 6717TIP3    H141566   1.961   2.009  11.849  0.6068  1.4080  0.5587
 6717TIP3    H241567   1.969   2.029  11.700 -1.4544 -1.7734 -0.0569
 6718TIP3   OH241568   5.883   4.332  16.217 -0.0219 -0.4166 -0.0889
 6718TIP3    H141569   5.864   4.374  16.301  0.1966 -0.7971  0.1538
 6718TIP3    H241570   5.858   4.397  16.151  0.8875  0.3253  0.2878
 6719TIP3   OH241571   0.543   1.598  11.285  0.5650  0.6975 -1.1713
 6719TIP3    H141572   0.520   1.517  11.239  0.2858  1.1588 -1.8639
 6719TIP3    H241573   0.615   1.635  11.233  0.7233  0.8737 -0.8325
 6720TIP3   OH241574   1.769   4.174   2.859  0.3918 -0.4243 -0.2285
 6720TIP3    H141575   1.745   4.260   2.893 -1.3302 -0.5807 -0.9247
 6720TIP3    H241576   1.688   4.122   2.865  1.5700 -2.2633  0.8900
 6721TIP3   OH241577   2.559   5.335  16.929  0.1913  0.0815  0.2766
 6721TIP3    H141578   2.480   5.359  16.880  0.9420 -1.7833 -2.0458
 6721TIP3    H241579   2.526   5.304  17.013 -1.4001  0.9626  0.0192
 6722TIP3   OH241580   3.859   3.144   5.410 -0.4801 -0.4275  0.6800
 6722TIP3    H141581   3.861   3.052   5.385 -0.1136  0.4771 -3.3285
 6722TIP3    H241582   3.773   3.174   5.381  0.3266  0.9721 -0.3649
 6723TIP3   OH241583   3.094   5.125   3.917 -0.0421  0.0613 -0.0271
 6723TIP3    H141584   3.013   5.081   3.891 -0.7733  1.7956 -0.7967
 6723TIP3    H241585   3.132   5.067   3.984 -1.7442 -0.9390  0.1335
 6724TIP3   OH241586   1.334   2.672  14.892  0.1327  0.5836 -0.2733
 6724TIP3    H141587   1.410   2.712  14.852  2.2698 -1.3418  1.5460
 6724TIP3    H241588   1.367   2.591  14.930 -3.0503 -0.8378 -0.1935
 6725TIP3   OH241589   2.010   1.712  15.515  0.2282  0.2095  0.0272
 6725TIP3    H141590   1.959   1.703  15.435 -0.9675 -0.1315  0.8067
 6725TIP3    H241591   2.096   1.676  15.493  0.3483  1.3213 -1.4715
 6726TIP3   OH241592   1.896   3.306   0.823 -0.2010  0.7753 -0.2723
 6726TIP3    H141593   1.829   3.374   0.834 -0.2886  0.5435  0.6802
 6726TIP3    H241594   1.871   3.261   0.742 -2.1944 -0.3842  0.9046
 6727TIP3   OH241595   4.136   1.552   4.448 -0.0885 -0.3357  0.0693
 6727TIP3    H141596   4.087   1.555   4.530  1.1030  3.0149  0.8267
 6727TIP3    H241597   4.226   1.531   4.474 -0.1031 -1.3973 -0.6809
 6728TIP3   OH241598   4.996   4.389   4.742  0.4711  1.1631  0.3048
 6728TIP3    H141599   5.060   4.404   4.812  0.9373 -0.4415  0.2712
 6728TIP3    H241600   5.036   4.430   4.665  1.8156 -0.3442  0.1407
 6729TIP3   OH241601   3.445   5.255   4.105 -0.3542  0.5653  0.7054
 6729TIP3    H141602   3.511   5.196   4.069 -0.9940 -0.0090  0.4440
 6729TIP3    H241603   3.475   5.273   4.194  0.5888  0.9922  0.3185
 6730TIP3   OH241604   1.178   2.170  17.337 -0.0342 -0.0391  0.1720
 6730TIP3    H141605   1.252   2.218  17.375 -0.1329  0.3566 -0.1362
 6730TIP3    H241606   1.175   2.089  17.387  0.7143 -0.1323  0.0793
 6731TIP3   OH241607   1.303   4.056   6.090 -0.8466  0.0937  0.3854
 6731TIP3    H141608   1.378   4.098   6.047  0.1076 -0.4814  1.4342
 6731TIP3    H241609   1.333   3.966   6.108 -1.4758  0.0991  1.5606
 6732TIP3   OH241610   5.427   1.851  11.610 -0.1104  0.3767  0.5055
 6732TIP3    H141611   5.436   1.792  11.685  0.8915  0.3970  0.4208
 6732TIP3    H241612   5.471   1.931  11.638 -0.2461  0.5923  0.1031
 6733TIP3   OH241613   3.454   4.798   6.482 -0.4000  0.4179  0.2735
 6733TIP3    H141614   3.456   4.713   6.438 -0.8363  0.3337  0.4044
 6733TIP3    H241615   3.449   4.861   6.411  0.5585  0.3681  0.1574
 6734TIP3   OH241616   0.442   2.360   6.738 -0.3668  0.3710 -0.2322
 6734TIP3    H141617   0.466   2.287   6.682  1.1422  2.1044 -2.0016
 6734TIP3    H241618   0.349   2.346   6.758 -1.1462 -0.1048 -3.6021
 6735TIP3   OH241619   1.178   0.192  15.066  0.0265  0.9530 -0.0845
 6735TIP3    H141620   1.110   0.212  15.131 -0.7221  2.4152 -1.2454
 6735TIP3    H241621   1.154   0.245  14.989  0.6705 -0.9457 -1.6924
 6736TIP3   OH241622   5.510   4.774  16.028 -0.2849 -0.0336 -0.3062
 6736TIP3    H141623   5.446   4.703  16.038 -0.3218  0.1540  0.9905
 6736TIP3    H241624   5.547   4.784  16.116  0.5639  0.7631 -0.7513
 6737TIP3   OH241625   3.929   2.484  17.099  0.6674  0.3370  0.2938
 6737TIP3    H141626   3.992   2.413  17.097  0.7395  0.4100 -0.1846
 6737TIP3    H241627   3.982   2.564  17.096  0.7497  0.5274  3.3044
 6738TIP3   OH241628   0.995   6.354  13.571 -0.3262  0.4877 -0.3974
 6738TIP3    H141629   1.037   6.436  13.598  0.1888  0.1601 -0.2148
 6738TIP3    H241630   0.904   6.365  13.599  0.4030 -0.3303  2.6412
 6739TIP3   OH241631   4.100   3.138  15.390 -0.0866  0.3481 -0.7076
 6739TIP3    H141632   4.046   3.070  15.349  0.7751 -0.2089 -0.9348
 6739TIP3    H241633   4.153   3.090  15.454  0.8970  0.7284 -1.2369
 6740TIP3   OH241634   2.943   5.029   0.094 -0.3478  0.0099  0.2647
 6740TIP3    H141635   2.946   5.117   0.132 -1.5102 -0.0951  0.6653
 6740TIP3    H241636   2.852   5.002   0.107 -0.0827 -1.1127 -0.1705
 6741TIP3   OH241637   0.949   5.957   5.246  0.2076  0.2416 -0.0929
 6741TIP3    H141638   0.973   6.049   5.258  0.8719 -0.0136  0.6346
 6741TIP3    H241639   0.886   5.957   5.174 -1.1178  1.4589  1.0001
 6742TIP3   OH241640   3.929   6.413   5.126  0.1980 -0.2170  0.3428
 6742TIP3    H141641   3.912   6.496   5.081  0.8875  0.4513  1.2871
 6742TIP3    H241642   3.999   6.372   5.074  0.6141  0.2995  0.4884
 6743TIP3   OH241643   3.118   5.075  10.644 -0.3247 -0.2417  0.0190
 6743TIP3    H141644   3.128   5.169  10.658 -2.2308  0.0768 -0.4165
 6743TIP3    H241645   3.187   5.036  10.697  0.1004  1.3755  0.7447
 6744TIP3   OH241646   1.612   6.538  14.836 -0.0522  0.8251 -0.1620
 6744TIP3    H141647   1.517   6.549  14.834 -0.3965 -1.3823  0.7365
 6744TIP3    H241648   1.630   6.470  14.771  1.1282  2.2890 -1.4171
 6745TIP3   OH241649   6.631   0.372  16.175  0.0414  0.0221  0.4628
 6745TIP3    H141650   6.661   0.438  16.238 -1.0844  0.6286  0.3903
 6745TIP3    H241651   6.537   0.368  16.187  0.2644 -3.3480  2.1422
 6746TIP3   OH241652   3.256   4.690   5.527  0.1049 -0.1930  0.5467
 6746TIP3    H141653   3.204   4.693   5.446 -1.0592  0.5322  1.2942
 6746TIP3    H241654   3.274   4.782   5.547  0.5051 -0.3741  1.0406
 6747TIP3   OH241655   5.383   4.673   4.446  0.5865 -0.0683  0.0570
 6747TIP3    H141656   5.358   4.587   4.412  1.1869  0.0325 -0.6502
 6747TIP3    H241657   5.341   4.736   4.387  3.9957  0.1257 -2.4100
 6748TIP3   OH241658   5.488   1.845   6.401 -0.1327 -0.0452 -0.3437
 6748TIP3    H141659   5.409   1.871   6.448  1.7242 -1.3351  3.9921
 6748TIP3    H241660   5.487   1.749   6.403  1.4945 -0.0942 -0.1778
 6749TIP3   OH241661   4.109   6.121  14.509  0.4686 -0.1637  0.3927
 6749TIP3    H141662   4.021   6.084  14.519  0.2951  0.4737  1.3189
 6749TIP3    H241663   4.147   6.117  14.597  1.2576 -0.1516  0.0630
 6750TIP3   OH241664   5.389   4.995  12.953 -0.1933 -0.4585  0.3826
 6750TIP3    H141665   5.364   5.086  12.936  1.2167  0.1422  1.3649
 6750TIP3    H241666   5.306   4.949  12.963 -0.9335  0.6715 -0.3240
 6751TIP3   OH241667   0.857   1.434   2.361  0.2344  0.2930  0.1223
 6751TIP3    H141668   0.951   1.436   2.379  0.0104  1.3052  1.3424
 6751TIP3    H241669   0.826   1.521   2.386 -0.9490  0.1582 -0.7775
 6752TIP3   OH241670   1.370   5.271  11.820 -0.4626 -0.9853  0.3312
 6752TIP3    H141671   1.312   5.346  11.818 -0.8052 -1.2332  0.7129
 6752TIP3    H241672   1.367   5.241  11.911 -0.0177 -1.2141  0.2731
 6753TIP3   OH241673   2.338   4.166   0.662 -0.3801 -0.1705  0.4513
 6753TIP3    H141674   2.288   4.148   0.741  0.0899  0.0841  0.8157
 6753TIP3    H241675   2.428   4.178   0.693  0.0271 -1.2533 -0.2603
 6754TIP3   OH241676   5.617   2.482   0.931  0.3664 -0.3927  0.1345
 6754TIP3    H141677   5.657   2.547   0.989 -0.0044 -0.0510  0.0124
 6754TIP3    H241678   5.630   2.399   0.976  1.5356 -0.3398 -0.0757
 6755TIP3   OH241679   6.099   0.685  10.547  0.1076 -0.3449  0.7470
 6755TIP3    H141680   6.087   0.709  10.639 -2.1284  1.6138  0.0324
 6755TIP3    H241681   6.116   0.591  10.549  1.9774 -0.0855  3.2393
 6756TIP3   OH241682   3.767   2.280   5.419 -0.0535 -0.1208  0.6788
 6756TIP3    H141683   3.806   2.368   5.420  1.1369 -0.6260  0.3722
 6756TIP3    H241684   3.788   2.244   5.506 -1.3270  0.2095  1.1481
 6757TIP3   OH241685   3.781   6.450  16.249  0.1940  0.2351 -0.4063
 6757TIP3    H141686   3.704   6.467  16.303  0.9536  1.5730  0.2964
 6757TIP3    H241687   3.852   6.437  16.312  0.5161 -1.2485 -1.0359
 6758TIP3   OH241688   2.038   5.438   3.029  0.4160  0.3448  0.0639
 6758TIP3    H141689   2.097   5.372   3.062 -0.6388 -0.0776  1.1643
 6758TIP3    H241690   2.095   5.506   2.992  1.7262  1.1512  3.2692
 6759TIP3   OH241691   4.936   3.703   5.819 -0.2429 -0.4046  0.2613
 6759TIP3    H141692   4.921   3.674   5.909  0.9181 -0.3097  0.5013
 6759TIP3    H241693   5.031   3.693   5.806 -0.2422  0.5775 -0.6037
 6760TIP3   OH241694   1.018   5.611  17.288 -0.1292 -0.5072  0.6230
 6760TIP3    H141695   1.022   5.561  17.207 -0.2731  0.3981  0.0409
 6760TIP3    H241696   1.024   5.702  17.260 -3.0225  0.0209  1.3217
 6761TIP3   OH241697   3.387   2.097   3.219 -0.1261 -0.1305  0.0117
 6761TIP3    H141698   3.424   2.126   3.302  1.4187  1.6708 -1.1979
 6761TIP3    H241699   3.417   2.006   3.209  0.7478  0.0578  0.8464
 6762TIP3   OH241700   5.280   0.955   3.054 -0.0316 -0.5194  0.1338
 6762TIP3    H141701   5.197   0.948   3.100 -0.4769 -2.6706 -0.8503
 6762TIP3    H241702   5.347   0.944   3.122 -0.6118 -0.8866  0.6519
 6763TIP3   OH241703   0.453   4.621  16.099 -0.3409 -0.1079 -0.0206
 6763TIP3    H141704   0.439   4.678  16.174 -0.2979 -0.1176 -0.0062
 6763TIP3    H241705   0.410   4.539  16.123 -0.6804  0.0227 -0.1739
 6764TIP3   OH241706   6.135   0.226  12.068  0.3391 -0.3424 -0.6276
 6764TIP3    H141707   6.142   0.191  12.157  0.0950 -0.1173 -0.5187
 6764TIP3    H241708   6.226   0.247  12.044  0.3891 -0.2585 -0.3723
 6765TIP3   OH241709   6.594   0.197  10.953  0.2265  0.3975  0.1553
 6765TIP3    H141710   6.511   0.244  10.942 -0.0556 -0.1284  0.0293
 6765TIP3    H241711   6.620   0.173  10.864 -0.1832 -0.6249  0.2951
 6766TIP3   OH241712   1.643   6.457   0.191 -0.1389  0.2093 -0.0817
 6766TIP3    H141713   1.672   6.540   0.152  0.5134 -0.5365 -1.2117
 6766TIP3    H241714   1.670   6.390   0.129 -0.1760 -0.9169  1.0804
 6767TIP3   OH241715   2.167   2.871  14.228 -0.5778 -0.0799 -0.6681
 6767TIP3    H141716   2.262   2.868  14.213 -0.7684 -0.0172 -1.9980
 6767TIP3    H241717   2.148   2.964  14.243 -0.4727 -0.0645 -0.6288
 6768TIP3   OH241718   1.123   0.648   0.170 -0.7870  0.2144 -0.3827
 6768TIP3    H141719   1.212   0.680   0.180 -1.2570  1.4198  0.0861
 6768TIP3    H241720   1.124   0.560   0.209  1.0822 -1.4690 -3.7062
 6769TIP3   OH241721   5.040   3.010  11.829  0.2054 -0.6037  0.0155
 6769TIP3    H141722   4.966   2.976  11.878 -0.6881 -1.9548 -2.1242
 6769TIP3    H241723   5.099   2.935  11.819  2.0392  0.4742  1.8005
 6770TIP3   OH241724   5.951   0.273   3.277  0.0910 -0.5235 -0.1721
 6770TIP3    H141725   5.882   0.215   3.308 -0.3640 -0.2559 -0.6643
 6770TIP3    H241726   5.911   0.360   3.276  0.5774 -0.2933 -0.0261
 6771TIP3   OH241727   5.518   3.050   4.461 -0.9326  0.1381  1.2064
 6771TIP3    H141728   5.447   3.057   4.397 -0.5813  0.1012  0.8122
 6771TIP3    H241729   5.512   2.961   4.495 -0.8458  0.0181  0.9066
 6772TIP3   OH241730   3.844   3.094   3.428 -0.2469  0.1899  0.2841
 6772TIP3    H141731   3.903   3.162   3.397  0.2581 -0.3617  0.0308
 6772TIP3    H241732   3.765   3.106   3.375  0.1471  0.0487 -0.3467
 6773TIP3   OH241733   0.605   5.391   3.715  0.7914  0.6221 -0.0906
 6773TIP3    H141734   0.612   5.297   3.732 -0.9962  0.5754  0.6182
 6773TIP3    H241735   0.686   5.413   3.668  1.1747 -1.2880 -0.4181
 6774TIP3   OH241736   3.720   5.808  15.039  0.3087  0.1096 -0.3353
 6774TIP3    H141737   3.814   5.817  15.024  0.4891  1.8445  1.4609
 6774TIP3    H241738   3.712   5.783  15.131 -1.0205  0.6367 -0.2860
 6775TIP3   OH241739   2.999   0.411   3.831 -0.0750  0.1981 -0.3826
 6775TIP3    H141740   2.964   0.325   3.855 -1.5678  1.1468  1.1279
 6775TIP3    H241741   2.961   0.430   3.745 -2.1867  0.5559  0.5745
 6776TIP3   OH241742   3.526   1.717   5.345  0.3222  0.2287 -0.2449
 6776TIP3    H141743   3.559   1.707   5.435  2.3386 -0.6416 -1.0260
 6776TIP3    H241744   3.572   1.793   5.311 -2.0942  1.9783  0.0767
 6777TIP3   OH241745   5.370   5.931   1.801 -0.4350  0.5264 -0.3323
 6777TIP3    H141746   5.382   5.974   1.886  1.6968 -1.2207  0.3617
 6777TIP3    H241747   5.413   5.847   1.811 -1.3409 -0.3170 -2.7554
 6778TIP3   OH241748   2.914   6.728   6.796 -0.0798 -0.1364  0.3139
 6778TIP3    H141749   2.889   6.769   6.713  0.9454  0.8289  0.4437
 6778TIP3    H241750   2.879   6.786   6.863 -0.7242 -0.8022  0.5598
 6779TIP3   OH241751   3.057   3.346  11.785 -0.1500  0.1691 -0.1021
 6779TIP3    H141752   3.006   3.287  11.730 -0.3807  0.7883 -0.5612
 6779TIP3    H241753   3.136   3.365  11.734 -0.2924  0.6230 -0.1602
 6780TIP3   OH241754   5.488   1.449   3.169  0.1656  0.5935 -0.3103
 6780TIP3    H141755   5.529   1.367   3.141 -1.1344 -0.8031  1.5219
 6780TIP3    H241756   5.399   1.444   3.134 -0.2224  0.7146  0.6154
 6781TIP3   OH241757   3.187   3.585   1.895  0.0986  0.0053  0.3686
 6781TIP3    H141758   3.196   3.520   1.965  0.2939  0.1935  0.5197
 6781TIP3    H241759   3.104   3.564   1.852  1.3173 -1.9601 -1.2236
 6782TIP3   OH241760   3.504   3.310  15.100 -0.0880 -0.1711 -0.6149
 6782TIP3    H141761   3.480   3.402  15.089 -2.3520 -0.7461 -1.0563
 6782TIP3    H241762   3.509   3.275  15.011  0.9276 -0.4471 -0.4595
 6783TIP3   OH241763   3.857   4.430  14.301 -0.3972 -0.0916 -0.5901
 6783TIP3    H141764   3.921   4.407  14.368 -1.0992  1.0904  0.5213
 6783TIP3    H241765   3.902   4.413  14.218  1.7881  1.7745  0.1173
 6784TIP3   OH241766   2.274   5.819  12.716  0.5267  0.4203  0.0954
 6784TIP3    H141767   2.269   5.832  12.810 -0.0603  0.9452 -0.0070
 6784TIP3    H241768   2.306   5.729  12.706 -1.4677 -0.4286  0.8012
 6785TIP3   OH241769   4.277   2.574   5.645 -0.1799 -0.3564 -0.1271
 6785TIP3    H141770   4.366   2.540   5.652  1.1693  2.8673  0.3262
 6785TIP3    H241771   4.261   2.616   5.730 -2.4928 -1.5158  0.0866
 6786TIP3   OH241772   4.621   4.361   5.377 -0.1517  0.2848 -0.2246
 6786TIP3    H141773   4.526   4.349   5.377 -0.3141  0.9890 -2.8260
 6786TIP3    H241774   4.657   4.272   5.375 -0.7608  0.0376 -0.2868
 6787TIP3   OH241775   5.317   2.500   2.763 -0.1210  0.1191  0.2434
 6787TIP3    H141776   5.408   2.470   2.761 -0.6904 -1.6950 -0.6348
 6787TIP3    H241777   5.274   2.441   2.824 -1.4992 -1.7550 -2.3253
 6788TIP3   OH241778   1.618   1.914   5.832  0.4863  0.5490  0.1013
 6788TIP3    H141779   1.628   1.886   5.741  0.8904  1.9198 -0.2919
 6788TIP3    H241780   1.524   1.920   5.845  0.2681 -2.5764  0.7359
 6789TIP3   OH241781   0.353   2.062   0.677 -0.9987 -0.1308  0.3411
 6789TIP3    H141782   0.380   2.020   0.758  0.5018  1.0220  0.4742
 6789TIP3    H241783   0.282   2.121   0.703  1.4420  2.4852  1.4386
 6790TIP3   OH241784   3.483   5.189   3.095  0.5595 -0.8291  0.1420
 6790TIP3    H141785   3.556   5.152   3.045 -0.8281 -2.2585 -0.9414
 6790TIP3    H241786   3.446   5.256   3.038  0.3879 -0.8332  0.2492
 6791TIP3   OH241787   1.007   5.181   5.642  0.3040  0.4672  0.1560
 6791TIP3    H141788   1.056   5.134   5.574  2.4348  0.0963  1.8385
 6791TIP3    H241789   0.960   5.249   5.594  0.4319 -0.7723 -1.8541
 6792TIP3   OH241790   6.574   4.418  15.726 -0.6967 -0.3445  0.7264
 6792TIP3    H141791   6.495   4.370  15.704  0.7108 -1.7695 -1.6948
 6792TIP3    H241792   6.568   4.499  15.675 -0.8888 -0.1200  1.0974
 6793TIP3   OH241793   3.386   5.793   6.866 -0.0812 -0.0390  0.2385
 6793TIP3    H141794   3.378   5.709   6.911 -0.2338 -0.1584 -0.0123
 6793TIP3    H241795   3.459   5.782   6.805 -1.2745 -0.6021 -1.1352
 6794TIP3   OH241796   6.507   2.161  14.459  0.4358  0.1341  0.3589
 6794TIP3    H141797   6.479   2.248  14.487  0.8643 -0.2001  1.9924
 6794TIP3    H241798   6.593   2.150  14.499  0.3193 -1.0921  0.3188
 6795TIP3   OH241799   5.392   1.385   1.075 -0.1018 -0.1138  0.0470
 6795TIP3    H141800   5.360   1.295   1.066 -2.2383  0.4995  0.7967
 6795TIP3    H241801   5.339   1.422   1.146  2.8831  0.8391  2.0082
 6796TIP3   OH241802   5.298   4.703   6.175  0.1180  0.2255  0.3334
 6796TIP3    H141803   5.237   4.765   6.215  0.0340  1.4597 -1.5425
 6796TIP3    H241804   5.375   4.704   6.233 -0.5292  0.8301  1.2106
 6797TIP3   OH241805   2.263   2.887  16.847 -0.5689  0.2156 -0.6005
 6797TIP3    H141806   2.279   2.945  16.922  1.1688 -0.8052 -0.1310
 6797TIP3    H241807   2.236   2.946  16.777  3.2451  2.0093 -0.8057
 6798TIP3   OH241808   1.605   1.424  13.594  0.1616 -0.7959  0.0774
 6798TIP3    H141809   1.542   1.485  13.632 -0.1162 -0.6105 -0.6704
 6798TIP3    H241810   1.685   1.476  13.584 -0.7344  0.2362 -2.8143
 6799TIP3   OH241811   1.631   6.244  11.205  0.4328  0.5752  0.7158
 6799TIP3    H141812   1.623   6.166  11.260  0.6926 -0.1936 -0.2916
 6799TIP3    H241813   1.588   6.313  11.255  0.9122 -0.0136  2.0013
 6800TIP3   OH241814   2.136   4.425  13.681  0.1939  0.2001 -0.2809
 6800TIP3    H141815   2.117   4.485  13.608  2.9183  0.4540 -0.8782
 6800TIP3    H241816   2.086   4.461  13.754  0.4728  2.2987 -1.0250
 6801TIP3   OH241817   6.193   4.903   1.298  0.7550 -0.6553 -0.5788
 6801TIP3    H141818   6.247   4.982   1.297  1.2922 -1.0053  0.2174
 6801TIP3    H241819   6.237   4.843   1.238  1.0575 -0.8112 -0.2023
 6802TIP3   OH241820   2.308   3.851   0.661  0.1763  0.2337 -0.2772
 6802TIP3    H141821   2.302   3.903   0.742  1.8958  2.7491 -1.6359
 6802TIP3    H241822   2.386   3.797   0.673  1.0822  1.4134 -0.6084
 6803TIP3   OH241823   1.700   0.104  16.916  0.4867  0.1569  0.0915
 6803TIP3    H141824   1.627   0.129  16.860  0.6931  0.9882  0.1756
 6803TIP3    H241825   1.712   0.179  16.975  2.0048  0.4694 -0.5553
 6804TIP3   OH241826   5.842   6.662   2.737 -0.3285 -0.0372 -0.2209
 6804TIP3    H141827   5.760   6.701   2.768 -0.3522  1.2006 -1.7109
 6804TIP3    H241828   5.906   6.686   2.804 -0.9450 -0.0076  0.3736
 6805TIP3   OH241829   2.684   1.323  11.265 -0.0794  0.2296 -0.2042
 6805TIP3    H141830   2.620   1.320  11.195 -0.3061  1.0695 -0.0407
 6805TIP3    H241831   2.764   1.354  11.223  0.2085 -0.7344 -0.3898
 6806TIP3   OH241832   4.597   2.501   2.162  0.7637  0.0522  0.5042
 6806TIP3    H141833   4.554   2.456   2.234  0.6998 -1.6523 -0.5284
 6806TIP3    H241834   4.532   2.564   2.131  0.6407  0.5073  1.6412
 6807TIP3   OH241835   6.036   1.735   1.407  0.0448  0.1809 -0.6058
 6807TIP3    H141836   6.126   1.701   1.402 -0.2190 -0.5147 -0.6785
 6807TIP3    H241837   5.980   1.658   1.393 -0.5761  0.4629  0.2735
 6808TIP3   OH241838   4.337   1.706  11.692 -0.2881 -0.1989 -0.2177
 6808TIP3    H141839   4.422   1.685  11.730 -1.4522 -2.3806  1.4754
 6808TIP3    H241840   4.331   1.649  11.615 -0.5896 -0.8782  0.2877
 6809TIP3   OH241841   2.137   1.375   5.729  0.6710  0.0620 -0.2186
 6809TIP3    H141842   2.184   1.405   5.807 -0.8613  0.4452  0.5845
 6809TIP3    H241843   2.067   1.439   5.718 -0.4724 -1.2287 -0.6174
 6810TIP3   OH241844   4.347   2.123  12.904  0.3867  0.3717  0.3511
 6810TIP3    H141845   4.281   2.111  12.836  0.1352  0.5719  0.5607
 6810TIP3    H241846   4.430   2.127  12.856  0.4104 -1.3060  0.1927
 6811TIP3   OH241847   5.461   6.399   4.985 -0.1528  0.4018  0.2773
 6811TIP3    H141848   5.417   6.446   4.914 -0.4133 -1.0247 -0.5418
 6811TIP3    H241849   5.471   6.310   4.952  0.3046 -0.1372  1.7914
 6812TIP3   OH241850   1.450   1.890   5.166  0.0351  0.3244  0.3157
 6812TIP3    H141851   1.454   1.923   5.256 -0.5627  0.9546  0.1211
 6812TIP3    H241852   1.364   1.917   5.134 -0.0233 -0.4753 -0.2291
 6813TIP3   OH241853   0.134   5.900  13.427  0.2973  0.1673 -0.2066
 6813TIP3    H141854   0.114   5.839  13.497  1.5923 -0.4653 -0.3650
 6813TIP3    H241855   0.196   5.962  13.465 -0.9662  1.4065 -0.0560
 6814TIP3   OH241856   6.574   0.827  13.564 -0.1279 -0.3627 -0.5936
 6814TIP3    H141857   6.546   0.917  13.546  0.3702  0.0184  0.4748
 6814TIP3    H241858   6.492   0.776  13.562 -0.6239  0.3732  0.2945
 6815TIP3   OH241859   6.582   3.336   3.714 -0.3608 -0.0808 -0.5430
 6815TIP3    H141860   6.667   3.293   3.723 -0.0952  0.6847  0.9860
 6815TIP3    H241861   6.533   3.279   3.655  0.1994 -2.1306  0.8621
 6816TIP3   OH241862   5.098   3.608   2.378  1.0819  0.0251  0.3440
 6816TIP3    H141863   5.094   3.532   2.320 -0.3374  0.0735  0.3608
 6816TIP3    H241864   5.191   3.630   2.381  1.4682 -1.4664  0.0289
 6817TIP3   OH241865   0.219   5.155  17.158  0.2991 -0.1965  0.1001
 6817TIP3    H141866   0.214   5.066  17.194 -1.6285  0.3479  1.4000
 6817TIP3    H241867   0.147   5.159  17.095  0.6476  0.3018 -0.2644
 6818TIP3   OH241868   5.022   6.384  16.262 -0.1151 -0.0707 -0.0725
 6818TIP3    H141869   5.074   6.343  16.332  0.8726 -1.7691 -1.6846
 6818TIP3    H241870   5.087   6.404  16.194 -0.9149  2.3631 -0.1885
 6819TIP3   OH241871   3.624   3.084   3.261  0.1585  0.7562 -0.7475
 6819TIP3    H141872   3.594   2.994   3.266 -0.7746  1.0767 -0.2925
 6819TIP3    H241873   3.586   3.118   3.180  0.7068  0.6808 -1.0439
 6820TIP3   OH241874   5.745   3.815  12.278 -0.0370 -0.0942  0.2713
 6820TIP3    H141875   5.797   3.896  12.272  0.1641 -0.3117 -1.6228
 6820TIP3    H241876   5.656   3.845  12.294  0.1010  0.4845 -0.0071
 6821TIP3   OH241877   4.135   2.840  15.192  0.4954 -0.4205 -0.1513
 6821TIP3    H141878   4.086   2.789  15.128  0.0919  0.7780 -0.8170
 6821TIP3    H241879   4.129   2.788  15.273 -0.8544 -0.8831 -0.5137
 6822TIP3   OH241880   3.991   6.026   6.532 -0.3071 -0.3963  0.0594
 6822TIP3    H141881   4.045   6.105   6.532 -0.2095 -0.4598 -0.2138
 6822TIP3    H241882   3.913   6.050   6.582 -0.8203  0.2540 -1.0048
 6823TIP3   OH241883   1.618   3.671   3.120 -0.2397  0.3590  0.2225
 6823TIP3    H141884   1.597   3.579   3.135  3.0343 -0.8342 -1.4751
 6823TIP3    H241885   1.628   3.708   3.208  0.2573 -1.4243  0.9626
 6824TIP3   OH241886   1.770   0.621   3.913 -0.3448 -0.4796 -0.2785
 6824TIP3    H141887   1.813   0.614   3.998  0.9950  0.8167 -0.8096
 6824TIP3    H241888   1.761   0.530   3.883 -2.8364 -1.1658  2.1309
 6825TIP3   OH241889   4.903   2.548  17.276  0.1623  0.1014  0.0920
 6825TIP3    H141890   4.989   2.524  17.243  0.7306 -0.6905  2.0461
 6825TIP3    H241891   4.906   2.528  17.370 -3.0243 -2.5677 -0.2148
 6826TIP3   OH241892   1.060   2.340   4.203 -0.7662 -0.2812 -0.0565
 6826TIP3    H141893   0.986   2.401   4.192  0.9321  1.8657 -0.2219
 6826TIP3    H241894   1.098   2.333   4.116 -1.2719 -2.1199 -0.1646
 6827TIP3   OH241895   3.078   5.491  12.332 -0.0880  0.1051 -0.8570
 6827TIP3    H141896   3.027   5.455  12.404  0.9527 -1.2102 -0.7523
 6827TIP3    H241897   3.141   5.550  12.373 -0.6385  0.7126 -0.8689
 6828TIP3   OH241898   3.024   4.613  11.318  0.1186 -0.4990  0.0542
 6828TIP3    H141899   3.116   4.605  11.343  0.2203  0.7508  0.1658
 6828TIP3    H241900   2.987   4.527  11.335  0.7326 -0.4011  2.1970
 6829TIP3   OH241901   6.548   3.482  14.895  0.7207  0.3679  0.0349
 6829TIP3    H141902   6.475   3.541  14.915  1.0810  1.1881 -0.9515
 6829TIP3    H241903   6.596   3.474  14.977 -0.2149  0.1793  0.5786
 6830TIP3   OH241904   3.795   2.303  13.774  0.6418 -0.4189 -0.6450
 6830TIP3    H141905   3.864   2.297  13.840  0.4370 -1.2825 -0.4939
 6830TIP3    H241906   3.735   2.233  13.796 -0.0590  0.0474 -1.0447
 6831TIP3   OH241907   0.461   4.140  16.033 -0.7754 -0.1204 -0.0644
 6831TIP3    H141908   0.541   4.091  16.050 -0.7231  0.7002  2.4336
 6831TIP3    H241909   0.448   4.134  15.938  2.3133 -0.1471 -0.5603
 6832TIP3   OH241910   1.657   5.740   3.159  0.4600 -0.0141 -0.4116
 6832TIP3    H141911   1.649   5.679   3.232 -0.6055 -0.2435 -0.6971
 6832TIP3    H241912   1.707   5.814   3.195  0.3736 -0.3418  0.4069
 6833TIP3   OH241913   0.612   5.591  14.303  0.3458 -0.2412 -0.3723
 6833TIP3    H141914   0.660   5.537  14.241  1.0056 -0.3907  0.2514
 6833TIP3    H241915   0.526   5.549  14.311  0.5534 -0.7031 -0.5471
 6834TIP3   OH241916   4.938   1.323  12.910  0.2599 -0.2080  0.6493
 6834TIP3    H141917   4.850   1.288  12.897 -1.5067  2.9094  2.9039
 6834TIP3    H241918   4.977   1.323  12.822 -0.7624 -4.3230  0.0082
 6835TIP3   OH241919   2.504   1.272  12.138  0.2820 -0.3330  0.2399
 6835TIP3    H141920   2.483   1.189  12.095  2.4026 -1.0613  0.4718
 6835TIP3    H241921   2.551   1.246  12.218  2.4592  1.0650 -0.5029
 6836TIP3   OH241922   4.479   1.205   2.759 -0.5638  0.6698  0.3092
 6836TIP3    H141923   4.409   1.166   2.706 -0.2294 -0.5713  0.7450
 6836TIP3    H241924   4.519   1.269   2.701 -2.2028  1.5807  0.1263
 6837TIP3   OH241925   6.390   5.151  13.896 -0.2516 -0.0698 -0.6283
 6837TIP3    H141926   6.410   5.243  13.913  1.2580  0.0213 -2.5170
 6837TIP3    H241927   6.423   5.105  13.974 -1.3700  0.9876  0.5040
 6838TIP3   OH241928   5.155   0.859   5.226  0.0809  0.0508  0.4174
 6838TIP3    H141929   5.061   0.857   5.241  0.0686  0.7385  0.4542
 6838TIP3    H241930   5.187   0.779   5.267 -0.6083 -0.7340 -0.5224
 6839TIP3   OH241931   0.147   5.575   5.906 -0.0715  0.3088 -0.0870
 6839TIP3    H141932   0.213   5.569   5.975  0.2745  0.0640 -0.4398
 6839TIP3    H241933   0.071   5.613   5.950  0.0430 -0.1296  0.5038
 6840TIP3   OH241934   1.917   5.208  16.374 -0.2670 -0.3462 -0.1735
 6840TIP3    H141935   1.948   5.191  16.285  0.4236 -0.5253  0.0927
 6840TIP3    H241936   1.860   5.133  16.394 -0.0434 -0.5473 -0.2879
 6841TIP3   OH241937   2.545   5.892  10.585  0.0060  0.5159 -0.5928
 6841TIP3    H141938   2.470   5.841  10.553 -1.2382  2.1683 -0.3979
 6841TIP3    H241939   2.580   5.935  10.507  0.8836 -0.3566 -0.7072
 6842TIP3   OH241940   2.496   5.492  16.027  0.4523 -0.6272 -0.2121
 6842TIP3    H141941   2.435   5.467  15.958  0.7908 -0.7444 -0.4707
 6842TIP3    H241942   2.445   5.485  16.108 -0.5784  1.5191 -0.6060
 6843TIP3   OH241943   0.082   5.815   3.542 -0.1203  0.2517 -0.2914
 6843TIP3    H141944   0.172   5.830   3.515 -0.5276  0.4915 -1.5738
 6843TIP3    H241945   0.064   5.724   3.521 -0.1618  0.1896  0.0081
 6844TIP3   OH241946   0.087   6.356  15.555 -0.4250 -0.2807 -0.0773
 6844TIP3    H141947   0.104   6.262  15.564  1.5685 -0.2085 -2.0492
 6844TIP3    H241948   0.011   6.373  15.611  0.9501 -2.4652  2.6671
 6845TIP3   OH241949   1.618   3.859   0.773  0.0139 -0.4014 -0.0895
 6845TIP3    H141950   1.582   3.947   0.766 -1.2960 -0.7075  1.8406
 6845TIP3    H241951   1.554   3.804   0.728 -1.3672 -0.7871  2.1950
 6846TIP3   OH241952   6.680   1.809   4.783 -0.3150  0.6122  0.0406
 6846TIP3    H141953   6.753   1.753   4.756 -1.1112 -0.6026  0.3321
 6846TIP3    H241954   6.690   1.889   4.730  0.2005 -0.2602 -1.2250
 6847TIP3   OH241955   1.996   2.526  14.615 -0.4066 -0.0395 -0.6392
 6847TIP3    H141956   2.027   2.602  14.566  1.4236 -0.5347 -0.3204
 6847TIP3    H241957   2.050   2.454  14.584 -1.1716 -0.9342  0.0674
 6848TIP3   OH241958   5.340   0.750  12.454 -0.3118 -0.0611  0.1240
 6848TIP3    H141959   5.415   0.809  12.448  0.6866 -1.4596 -2.1275
 6848TIP3    H241960   5.346   0.713  12.542  0.9012  0.7689  0.4212
 6849TIP3   OH241961   6.750   0.064   4.680 -0.7256  0.1859  0.3651
 6849TIP3    H141962   6.764   0.120   4.604 -1.4461 -0.4353 -0.2379
 6849TIP3    H241963   6.724  -0.020   4.643 -0.3815 -0.3409  1.2789
 6850TIP3   OH241964   2.475   5.554  15.608 -0.0273  0.0420 -0.1800
 6850TIP3    H141965   2.492   5.535  15.516 -0.3033 -1.2668  0.0179
 6850TIP3    H241966   2.467   5.468  15.649  1.1131  0.5954  1.2681
 6851TIP3   OH241967   5.408   5.820  15.831  0.1254 -0.7277  0.3832
 6851TIP3    H141968   5.393   5.842  15.923 -1.0297 -3.4626  0.9439
 6851TIP3    H241969   5.331   5.855  15.786  0.5606  0.3794  0.4686
 6852TIP3   OH241970   3.441   1.808  11.088 -0.1846 -0.2088 -0.2887
 6852TIP3    H141971   3.467   1.831  10.999 -0.5169 -0.5679 -0.4798
 6852TIP3    H241972   3.404   1.721  11.080 -0.8285  0.0278  0.0961
 6853TIP3   OH241973   4.626   0.053   4.629  0.0946 -0.1533 -0.3152
 6853TIP3    H141974   4.699  -0.007   4.644 -1.5001 -2.1564  0.0896
 6853TIP3    H241975   4.555   0.016   4.682 -1.0612  2.0201 -0.2482
 6854TIP3   OH241976   1.204   2.846  12.082  0.1445  0.3817  0.5070
 6854TIP3    H141977   1.115   2.824  12.109  0.3159  1.1331  1.7592
 6854TIP3    H241978   1.223   2.928  12.127  1.2078  0.6085 -0.3341
 6855TIP3   OH241979   4.420   3.157   3.511 -0.0482  0.1193 -0.2942
 6855TIP3    H141980   4.419   3.236   3.565 -0.8006  0.3465 -0.6281
 6855TIP3    H241981   4.345   3.167   3.453 -0.3336 -0.9950 -0.1300
 6856TIP3   OH241982   6.179   3.968   5.607  0.2705 -0.2580 -0.2653
 6856TIP3    H141983   6.252   3.914   5.638  0.4603 -0.1044 -0.4420
 6856TIP3    H241984   6.104   3.908   5.608  0.8898 -1.1863 -2.5185
 6857TIP3   OH241985   0.471   3.238   3.750  0.1592  0.4104  1.0280
 6857TIP3    H141986   0.511   3.278   3.673 -0.6151 -0.9140 -0.1056
 6857TIP3    H241987   0.543   3.230   3.813  0.9639  0.8886  0.1971
 6858TIP3   OH241988   2.993   6.153   3.390  0.0608 -0.3695 -0.7137
 6858TIP3    H141989   2.990   6.068   3.434 -0.4409 -0.3881 -0.7739
 6858TIP3    H241990   2.908   6.159   3.346  0.6744 -0.4988 -1.9592
 6859TIP3   OH241991   4.504   2.068  11.949  0.1786 -0.1007 -0.4446
 6859TIP3    H141992   4.474   2.124  12.020  0.2409  1.1871 -1.4066
 6859TIP3    H241993   4.486   1.979  11.980  1.6058  0.3240  1.8172
 6860TIP3   OH241994   4.750   4.535  17.127 -0.1196  0.2882  0.3363
 6860TIP3    H141995   4.821   4.483  17.088  0.1084 -0.0767  1.2159
 6860TIP3    H241996   4.778   4.551  17.217 -0.1899  1.9589  0.0936
 6861TIP3   OH241997   6.229   0.307  16.801  0.4645 -0.2427  0.2370
 6861TIP3    H141998   6.139   0.318  16.833  0.3198  0.5298 -0.4152
 6861TIP3    H241999   6.248   0.214  16.814 -0.4498 -0.4251  0.3221
 6862TIP3   OH242000   1.227   1.935   0.161 -0.5396 -0.2633  0.4311
 6862TIP3    H142001   1.288   1.920   0.234 -0.2832 -0.5078  0.1670
 6862TIP3    H242002   1.149   1.972   0.203  0.0682  0.7626  0.6810
 6863TIP3   OH242003   1.875   1.878   5.444  0.6031 -0.0132 -0.2272
 6863TIP3    H142004   1.848   1.786   5.450  0.8796 -0.1015 -0.3159
 6863TIP3    H242005   1.800   1.922   5.403  0.6353 -0.2770 -0.5725
 6864TIP3   OH242006   0.801   4.397  13.386 -0.0881 -0.5946 -0.2594
 6864TIP3    H142007   0.811   4.384  13.480 -2.2018 -0.7470 -0.0011
 6864TIP3    H242008   0.806   4.309  13.349  2.2629 -0.4100 -0.5235
 6865TIP3   OH242009   4.938   2.676   0.938 -0.5354  0.3707 -0.1889
 6865TIP3    H142010   4.946   2.707   1.028  1.1119  0.3174 -0.2766
 6865TIP3    H242011   4.916   2.583   0.947  0.9883  0.0140  0.2317
 6866TIP3   OH242012   6.666   6.538   1.269 -0.2998  0.0000 -0.6244
 6866TIP3    H142013   6.733   6.557   1.336  0.7393  0.7740 -1.8300
 6866TIP3    H242014   6.623   6.622   1.254 -1.4330 -0.4472 -0.0295
 6867TIP3   OH242015   3.485   6.460  12.251 -0.4203 -0.0573 -0.4456
 6867TIP3    H142016   3.463   6.532  12.192 -2.5992  0.6523  1.1053
 6867TIP3    H242017   3.580   6.466  12.262 -0.2449  1.1133 -2.1292
 6868TIP3   OH242018   5.036   4.036   3.739 -0.2358  0.2404 -0.5398
 6868TIP3    H142019   5.090   4.009   3.814 -0.5436  1.1098  0.0092
 6868TIP3    H242020   5.089   4.014   3.662  0.2624 -0.2862 -0.0527
 6869TIP3   OH242021   6.190   6.359  15.359  0.2675 -0.0484 -0.6696
 6869TIP3    H142022   6.257   6.427  15.353  0.6869 -0.4147 -0.1583
 6869TIP3    H242023   6.239   6.278  15.370 -0.2082 -0.5253 -1.9152
 6870TIP3   OH242024   4.242   5.604   3.359  0.2569 -0.3246  0.1627
 6870TIP3    H142025   4.321   5.562   3.325 -0.0209  0.1119 -1.0783
 6870TIP3    H242026   4.271   5.690   3.389  0.6364 -0.9821  1.7493
 6871TIP3   OH242027   1.996   2.431   4.849  0.4018  0.5997 -0.1683
 6871TIP3    H142028   1.949   2.413   4.931 -0.2750 -0.7189 -0.8155
 6871TIP3    H242029   2.020   2.345   4.815 -1.3563  0.9198 -2.4899
 6872TIP3   OH242030   5.482   2.234   0.061 -0.0959  0.5862  0.0831
 6872TIP3    H142031   5.393   2.266   0.078 -1.1678 -0.8380 -2.2292
 6872TIP3    H242032   5.480   2.142   0.090  0.8594  0.7297  0.6430
 6873TIP3   OH242033   4.880   0.217  13.338 -0.1030  1.0330  0.8841
 6873TIP3    H142034   4.838   0.149  13.390 -0.5260  0.2924 -0.3898
 6873TIP3    H242035   4.958   0.175  13.301  0.6466  1.7899  1.5344
 6874TIP3   OH242036   6.157   4.980  13.374  0.3071 -0.1225 -0.0823
 6874TIP3    H142037   6.179   5.036  13.449 -1.1482 -0.5935  0.7296
 6874TIP3    H242038   6.235   4.926  13.361  0.5944 -0.0160  1.0884
 6875TIP3   OH242039   1.867   0.771  12.842  0.3013 -0.3231  0.2600
 6875TIP3    H142040   1.896   0.862  12.833 -3.2267  0.8986 -0.5268
 6875TIP3    H242041   1.842   0.745  12.753 -1.0140 -1.1652  0.8463
 6876TIP3   OH242042   3.100   6.372  16.484 -0.1463  0.3183  0.4688
 6876TIP3    H142043   3.040   6.429  16.531 -0.5415  0.0201  0.3224
 6876TIP3    H242044   3.180   6.373  16.537 -0.4897  0.2147  0.9919
 6877TIP3   OH242045   0.899   2.131   4.776  0.5283  0.0878 -0.6354
 6877TIP3    H142046   0.804   2.141   4.788  0.7720  2.7944 -0.3719
 6877TIP3    H242047   0.937   2.170   4.854  1.9181 -1.6280 -0.3835
 6878TIP3   OH242048   1.636   3.990  13.669 -0.4575  0.4164  0.6622
 6878TIP3    H142049   1.600   4.072  13.704 -2.0588  0.5008 -1.0082
 6878TIP3    H242050   1.559   3.940  13.642  0.5458  0.3060 -2.4860
 6879TIP3   OH242051   1.934   6.317   6.064  0.4937 -0.5312  0.1212
 6879TIP3    H142052   1.970   6.249   6.121  0.5892 -1.6961 -1.3025
 6879TIP3    H242053   1.860   6.352   6.113  1.9360  0.1363  1.9837
 6880TIP3   OH242054   4.960   3.853   3.146 -0.1637 -0.4727  0.0960
 6880TIP3    H142055   4.957   3.880   3.238 -2.4832  0.9659 -0.3035
 6880TIP3    H242056   4.883   3.796   3.136 -0.0643 -0.4280 -0.9938
 6881TIP3   OH242057   3.421   1.326   4.345  0.4170  0.5479 -0.3476
 6881TIP3    H142058   3.463   1.412   4.338  0.5320  0.5556  0.3160
 6881TIP3    H242059   3.474   1.268   4.291  1.7929  0.3788  1.1094
 6882TIP3   OH242060   4.346   2.000  14.346  0.2206 -0.3721  0.3561
 6882TIP3    H142061   4.432   2.016  14.384  0.0252  0.2642  0.5528
 6882TIP3    H242062   4.347   2.048  14.263  0.0613 -0.3629  0.3582
 6883TIP3   OH242063   4.992   2.323  12.142 -0.0991  0.7336  0.4636
 6883TIP3    H142064   5.083   2.344  12.165 -0.2217  1.5191  0.2454
 6883TIP3    H242065   4.948   2.313  12.226  0.2944 -0.1420  0.5741
 6884TIP3   OH242066   1.628   4.073  15.125  0.0599 -0.0879 -0.5871
 6884TIP3    H142067   1.679   4.149  15.098  2.5515 -2.2691 -2.4813
 6884TIP3    H242068   1.562   4.062  15.057 -0.1201  0.1901 -0.4582
 6885TIP3   OH242069   4.389   5.850  13.337 -0.3959 -0.1373  0.0320
 6885TIP3    H142070   4.369   5.758  13.322 -0.0013 -0.2925  0.4362
 6885TIP3    H242071   4.306   5.895  13.325 -0.6062 -0.5548 -0.0901
 6886TIP3   OH242072   0.346   4.421   5.724 -0.3859  0.6563 -0.3345
 6886TIP3    H142073   0.355   4.503   5.675 -0.4317 -0.4417 -2.2665
 6886TIP3    H242074   0.276   4.374   5.678  0.3448 -0.9048  0.1114
 6887TIP3   OH242075   1.372   0.890   2.295 -0.0304  0.5270 -0.2838
 6887TIP3    H142076   1.454   0.884   2.247  0.9456 -0.5884  1.4304
 6887TIP3    H242077   1.319   0.817   2.262 -0.7360  1.7518 -2.0056
 6888TIP3   OH242078   1.674   1.636   3.218 -0.3117 -0.3427  0.0835
 6888TIP3    H142079   1.685   1.546   3.251  0.0974 -0.2443  0.2233
 6888TIP3    H242080   1.745   1.648   3.156 -0.1550  0.0053  0.3278
 6889TIP3   OH242081   5.442   1.001  17.198  0.0677  0.0299  0.4731
 6889TIP3    H142082   5.522   0.949  17.201  0.2135  0.2749  0.7937
 6889TIP3    H242083   5.447   1.048  17.115 -0.9584 -1.8925 -0.7733
 6890TIP3   OH242084   5.626   2.797  15.350  0.4156 -0.5926 -0.1427
 6890TIP3    H142085   5.681   2.760  15.281 -1.3995 -1.6158 -1.1215
 6890TIP3    H242086   5.538   2.765  15.330 -0.5956  1.1550  1.2268
 6891TIP3   OH242087   2.335   4.249  10.946 -0.4381  0.7909  0.0947
 6891TIP3    H142088   2.251   4.204  10.954 -0.7302  0.8478 -2.0158
 6891TIP3    H242089   2.323   4.307  10.871  0.8543  2.3233  1.0100
 6892TIP3   OH242090   5.649   2.026  12.441  0.4908  0.0982 -0.0718
 6892TIP3    H142091   5.631   1.945  12.392  0.8175  0.5360 -0.9346
 6892TIP3    H242092   5.726   2.006  12.493  1.8912  0.4954 -1.8983
 6893TIP3   OH242093   3.030   4.931   5.649  0.2621  0.3522 -0.5025
 6893TIP3    H142094   3.007   5.023   5.634  1.3470  0.4415 -1.7616
 6893TIP3    H242095   3.110   4.934   5.701  0.3084  0.1297 -0.5590
 6894TIP3   OH242096   2.446   5.335  12.800  0.2728 -0.0141  0.5419
 6894TIP3    H142097   2.467   5.301  12.713 -4.0935 -1.8358 -0.0436
 6894TIP3    H242098   2.465   5.262  12.859  1.1492  0.4478  0.8425
 6895TIP3   OH242099   5.245   1.738   1.815 -0.3621  0.0081  0.0789
 6895TIP3    H142100   5.240   1.761   1.908  0.5762 -0.7804  0.3333
 6895TIP3    H242101   5.280   1.649   1.814 -1.2249 -0.3373 -1.0039
 6896TIP3   OH242102   6.124   5.750  15.663 -0.6157 -0.2138  0.0581
 6896TIP3    H142103   6.188   5.682  15.640 -1.1539 -0.3739 -1.0625
 6896TIP3    H242104   6.058   5.704  15.715  0.9985  0.3061  2.7603
 6897TIP3   OH242105   4.453   6.644   4.753  0.3566  0.2015 -0.5993
 6897TIP3    H142106   4.424   6.560   4.718  0.2244  0.4462 -1.0897
 6897TIP3    H242107   4.404   6.655   4.834 -2.1061  1.2752 -2.0929
 6898TIP3   OH242108   0.811   1.722  12.819  0.6109 -0.2282 -0.1668
 6898TIP3    H142109   0.766   1.669  12.885 -1.7540 -0.4127 -1.7788
 6898TIP3    H242110   0.750   1.794  12.800  0.4737 -0.9711 -3.1011
 6899TIP3   OH242111   3.358   1.726  14.775  0.0547  0.0708  0.1516
 6899TIP3    H142112   3.286   1.716  14.837  1.1571 -0.8384  1.3398
 6899TIP3    H242113   3.329   1.679  14.697 -1.3299  1.1861 -0.0567
 6900TIP3   OH242114   0.142   5.058  11.245  0.0165 -0.1309  0.5093
 6900TIP3    H142115   0.234   5.051  11.219 -0.3398 -0.1387 -0.8384
 6900TIP3    H242116   0.098   4.988  11.197 -1.1848  1.8034 -1.4154
 6901TIP3   OH242117   6.471   4.753  12.267  0.3066 -0.0859 -0.3415
 6901TIP3    H142118   6.550   4.722  12.223  0.3995  0.6501 -0.7102
 6901TIP3    H242119   6.451   4.685  12.331  0.0358 -1.3126 -1.6770
 6902TIP3   OH242120   0.279   5.550  12.913  0.2013  0.5696  0.3286
 6902TIP3    H142121   0.232   5.526  12.993  0.5849  1.0857  0.7187
 6902TIP3    H242122   0.217   5.531  12.842 -0.7725  1.6156  0.8563
 6903TIP3   OH242123   0.475   0.867   0.627  0.4016 -0.1515  0.2167
 6903TIP3    H142124   0.470   0.866   0.532  1.5495 -0.6523  0.1496
 6903TIP3    H242125   0.558   0.824   0.648 -0.3275 -0.9939  1.4885
 6904TIP3   OH242126   5.245   1.426  17.151 -0.3972  0.8497  0.1497
 6904TIP3    H142127   5.338   1.418  17.130 -0.5190  0.1860 -0.1524
 6904TIP3    H242128   5.233   1.372  17.229 -0.8653 -0.5635 -0.8473
 6905TIP3   OH242129   0.242   1.931   4.557  0.0768  0.0880 -0.1701
 6905TIP3    H142130   0.214   1.996   4.493 -0.2385  0.8792  0.7499
 6905TIP3    H242131   0.334   1.914   4.536  0.1596  0.8274 -0.4245
 6906TIP3   OH242132   4.848   4.805   0.341  0.3086  0.1062 -0.5159
 6906TIP3    H142133   4.894   4.723   0.359 -1.8781 -0.7367  1.8625
 6906TIP3    H242134   4.826   4.840   0.428 -1.5711  1.5555 -1.4884
 6907TIP3   OH242135   0.388   6.217  12.951 -0.3585 -0.2831 -0.2542
 6907TIP3    H142136   0.338   6.201  13.031 -1.2716  0.2241 -0.7075
 6907TIP3    H242137   0.473   6.248  12.983 -0.1891 -1.4702  0.5326
 6908TIP3   OH242138   2.963   3.232   3.636  0.1135 -0.3290 -0.1385
 6908TIP3    H142139   3.028   3.250   3.568  0.5588 -2.3671 -0.3163
 6908TIP3    H242140   2.934   3.319   3.665  1.3323  0.6038 -1.5537
 6909TIP3   OH242141   2.666   3.415   3.850  0.0233  0.5564  0.1106
 6909TIP3    H142142   2.692   3.323   3.860  0.5872  0.5584 -1.0911
 6909TIP3    H242143   2.669   3.451   3.938 -2.1273 -1.0430  0.9314
 6910TIP3   OH242144   4.618   5.970  13.177  0.1576  0.3015  0.1039
 6910TIP3    H142145   4.562   5.947  13.251 -2.5561 -2.2225 -2.4821
 6910TIP3    H242146   4.621   5.891  13.123  2.0179  1.9886 -2.5250
 6911TIP3   OH242147   1.009   3.422   1.361 -0.3517  0.2507  0.2938
 6911TIP3    H142148   1.057   3.344   1.334  0.9227  0.8814  0.6740
 6911TIP3    H242149   0.926   3.388   1.395  0.3637 -0.9701  0.8770
 6912TIP3   OH242150   0.315   4.975  13.248  0.3522  0.5074 -0.4185
 6912TIP3    H142151   0.364   5.049  13.283 -0.5651  1.6578 -1.4590
 6912TIP3    H242152   0.373   4.935  13.184 -0.1424  2.1491 -1.9948
 6913TIP3   OH242153   4.512   3.394  12.716  0.1788  0.8673 -0.2149
 6913TIP3    H142154   4.426   3.386  12.677  0.6565  0.4001 -1.1962
 6913TIP3    H242155   4.517   3.486  12.744  0.0420  1.3815 -1.7933
 6914TIP3   OH242156   4.187   4.515   4.252  0.8362  0.4026 -0.0251
 6914TIP3    H142157   4.221   4.461   4.181 -1.1661  0.7487 -1.3284
 6914TIP3    H242158   4.237   4.597   4.246  2.0721 -0.2972  0.2944
 6915TIP3   OH242159   5.555   5.529  16.057  0.1629 -0.3027  0.5524
 6915TIP3    H142160   5.599   5.611  16.080  0.6258 -0.8957  1.8469
 6915TIP3    H242161   5.461   5.548  16.069  0.1905  0.3376 -0.1765
 6916TIP3   OH242162   3.676   0.408   0.772  0.3320  0.1148  0.3198
 6916TIP3    H142163   3.751   0.366   0.729  0.3946  0.8447 -0.2940
 6916TIP3    H242164   3.687   0.385   0.865  0.1583 -1.5398 -0.0258
 6917TIP3   OH242165   3.027   5.349  11.509 -0.6116  0.0006  0.8189
 6917TIP3    H142166   2.996   5.366  11.420  0.0338 -2.9953 -0.1123
 6917TIP3    H242167   3.109   5.302  11.497 -0.0672  0.2805  3.0456
 6918TIP3   OH242168   0.087   6.042   1.730 -0.2242 -0.3156  0.0335
 6918TIP3    H142169   0.108   5.996   1.648 -3.3809  1.6731 -2.1006
 6918TIP3    H242170   0.139   6.122   1.726 -1.3149  0.3746 -0.7166
 6919TIP3   OH242171   0.227   1.847   2.169  0.4642  0.3883 -0.0225
 6919TIP3    H142172   0.213   1.904   2.245  1.2853 -0.6312  0.9258
 6919TIP3    H242173   0.182   1.766   2.191  1.0734 -0.0678 -0.4400
 6920TIP3   OH242174   5.842   6.676  14.457  0.0526  0.7097 -0.5847
 6920TIP3    H142175   5.859   6.719  14.541 -0.0075 -0.0080 -0.2069
 6920TIP3    H242176   5.904   6.717  14.397  1.1708  0.1346  0.1492
 6921TIP3   OH242177   2.343   2.504  13.621 -0.1380  0.0140  0.5754
 6921TIP3    H142178   2.268   2.534  13.671  0.0997 -0.6461  1.3578
 6921TIP3    H242179   2.311   2.430  13.571  0.2686 -1.1302  1.9282
 6922TIP3   OH242180   2.347   6.532   0.327  0.5536 -0.0671  0.4047
 6922TIP3    H142181   2.262   6.535   0.371  1.7151 -0.0067  2.7758
 6922TIP3    H242182   2.354   6.616   0.281 -0.4287  0.1431  0.6311
 6923TIP3   OH242183   4.210   0.184  16.205 -0.4475 -0.0447 -0.1378
 6923TIP3    H142184   4.270   0.255  16.183 -1.2087  0.3592 -1.0034
 6923TIP3    H242185   4.236   0.112  16.147  0.4381 -0.5590  0.8633
 6924TIP3   OH242186   0.877   4.673   3.042  0.5202  0.6642 -0.4817
 6924TIP3    H142187   0.804   4.645   3.097 -1.0505 -0.2692 -2.8234
 6924TIP3    H242188   0.952   4.623   3.073  0.0883  1.3069  1.7187
 6925TIP3   OH242189   3.955   2.015  16.326 -0.7612  0.4996  0.0369
 6925TIP3    H142190   3.985   2.018  16.416  2.8762 -1.1292 -0.9428
 6925TIP3    H242191   3.878   1.958  16.328 -0.2349 -0.2170  1.9901
 6926TIP3   OH242192   0.742   1.729  16.565 -0.1502 -0.9504  0.1751
 6926TIP3    H142193   0.685   1.804  16.580 -0.5569 -0.9250 -1.3669
 6926TIP3    H242194   0.804   1.759  16.499  0.4769 -1.5771  0.4661
 6927TIP3   OH242195   3.058   0.908  17.238  0.2700  0.1792  0.3058
 6927TIP3    H142196   3.021   0.986  17.279 -1.5834 -0.8372  0.7075
 6927TIP3    H242197   3.122   0.942  17.176 -0.4731  2.0156  0.4606
 6928TIP3   OH242198   0.719   2.155  13.206  0.5221  0.0239  0.2525
 6928TIP3    H142199   0.784   2.213  13.166 -0.9349  1.1556 -0.5762
 6928TIP3    H242200   0.689   2.100  13.134 -1.6178  1.6035 -0.1442
 6929TIP3   OH242201   1.570   6.352   3.999 -0.3726  0.5470  0.1813
 6929TIP3    H142202   1.526   6.301   4.068  1.0364 -0.8097  0.1249
 6929TIP3    H242203   1.659   6.319   3.998  0.6000  2.9458  0.0075
 6930TIP3   OH242204   2.958   2.979   0.283  0.5237 -0.3843  0.2793
 6930TIP3    H142205   2.918   3.039   0.221 -0.7995 -1.9171 -0.4200
 6930TIP3    H242206   3.045   3.015   0.299 -0.9876  3.0277  1.7505
 6931TIP3   OH242207   4.722   4.557   6.575  0.0063 -0.0523 -0.2142
 6931TIP3    H142208   4.643   4.509   6.552 -0.2679  0.5403 -0.5174
 6931TIP3    H242209   4.775   4.493   6.623 -1.0712 -0.1883  0.8436
 6932TIP3   OH242210   5.208   3.138   3.099  0.2452  0.4555 -0.2105
 6932TIP3    H142211   5.211   3.224   3.140 -1.8203  0.5285 -0.1203
 6932TIP3    H242212   5.141   3.146   3.031 -1.4028 -1.5602  1.0674
 6933TIP3   OH242213   4.066   4.615  13.949 -0.1086 -0.6099  0.4543
 6933TIP3    H142214   4.140   4.669  13.973 -1.3366  0.2542  2.6257
 6933TIP3    H242215   4.103   4.546  13.894  1.9823  0.7074  0.1029
 6934TIP3   OH242216   4.955   1.088   0.968 -0.0588 -0.0412  0.1038
 6934TIP3    H142217   4.947   0.992   0.963 -0.2996  0.0235 -1.1544
 6934TIP3    H242218   4.932   1.118   0.880  1.4337  1.0792  0.0488
 6935TIP3   OH242219   0.358   4.338  17.054  0.4746 -0.0004  0.0513
 6935TIP3    H142220   0.360   4.246  17.080  0.0855  0.0937  0.4329
 6935TIP3    H242221   0.431   4.379  17.100 -0.8578  0.3944  1.9445
 6936TIP3   OH242222   4.161   5.877  15.392 -0.0543  0.2150  0.1193
 6936TIP3    H142223   4.110   5.800  15.420 -3.0498  1.4734 -1.3929
 6936TIP3    H242224   4.251   5.856  15.416 -0.7427 -3.6391  0.0305
 6937TIP3   OH242225   1.732   0.547   2.138 -0.4206  0.1644  0.3437
 6937TIP3    H142226   1.777   0.539   2.053  0.7576 -1.6190  1.0706
 6937TIP3    H242227   1.795   0.511   2.201 -1.1050  1.8243  2.0593
 6938TIP3   OH242228   5.599   6.225  12.096  0.0114 -0.4185  0.1436
 6938TIP3    H142229   5.509   6.210  12.128 -1.1032  3.0753 -0.8677
 6938TIP3    H242230   5.589   6.244  12.003  1.6726  0.6982  0.1404
 6939TIP3   OH242231   6.602   2.303  14.824  0.2891  0.1454 -0.2464
 6939TIP3    H142232   6.670   2.321  14.889  1.4373 -2.1730 -0.7054
 6939TIP3    H242233   6.521   2.297  14.875  1.1205 -1.3039  0.9551
 6940TIP3   OH242234   0.028   1.760  15.861 -0.3208 -0.1857 -0.2207
 6940TIP3    H142235  -0.013   1.680  15.830  0.6109 -0.0610 -1.9488
 6940TIP3    H242236   0.121   1.749  15.840  0.2743  0.2380  1.9996
 6941TIP3   OH242237   6.411   6.545   3.606 -0.0684 -0.2786  0.3004
 6941TIP3    H142238   6.493   6.593   3.619 -0.2077 -0.0328  0.2528
 6941TIP3    H242239   6.342   6.605   3.635 -0.3136 -0.0955 -0.6511
 6942TIP3   OH242240   2.821   2.383   1.808  0.4712  0.6397  0.0973
 6942TIP3    H142241   2.787   2.472   1.799 -1.2767 -0.1422 -1.6769
 6942TIP3    H242242   2.761   2.329   1.757  2.9846 -1.2148 -1.0805
 6943TIP3   OH242243   3.816   0.412  15.729  0.3433  0.4952  0.0591
 6943TIP3    H142244   3.868   0.344  15.686 -0.5370 -0.4455  0.4305
 6943TIP3    H242245   3.729   0.373  15.737 -0.8567  2.5537 -1.8701
 6944TIP3   OH242246   0.273   0.957   3.309  0.1417 -0.2847 -0.3189
 6944TIP3    H142247   0.263   0.952   3.214 -2.1360 -0.9100 -0.1031
 6944TIP3    H242248   0.367   0.948   3.323  0.6668  0.9169 -2.5497
 6945TIP3   OH242249   3.820   3.619   3.430 -0.2314  0.1096 -0.3236
 6945TIP3    H142250   3.730   3.586   3.421 -0.7729  1.3411  0.2649
 6945TIP3    H242251   3.826   3.690   3.366 -0.0448  0.7345  0.3744
 6946TIP3   OH242252   2.849   6.527  11.643  0.2139  0.0548 -0.3331
 6946TIP3    H142253   2.819   6.509  11.732  2.1704 -1.3898  0.0940
 6946TIP3    H242254   2.868   6.621  11.643  0.1231  0.0842  0.7467
 6947TIP3   OH242255   3.530   0.146  12.047 -0.0786  0.7294  0.6958
 6947TIP3    H142256   3.602   0.158  12.109  0.6201 -0.0361  0.0632
 6947TIP3    H242257   3.509   0.053  12.053 -0.1460  0.6885 -0.0516
 6948TIP3   OH242258   4.496   5.294  10.752 -0.4550 -0.5781  0.3997
 6948TIP3    H142259   4.466   5.324  10.666  0.5414 -1.6561 -0.3464
 6948TIP3    H242260   4.582   5.335  10.764 -0.8582  0.0748  1.1810
 6949TIP3   OH242261   5.674   0.375  17.217 -0.1417  0.2740 -0.8324
 6949TIP3    H142262   5.689   0.320  17.140 -0.2933  1.0117 -1.4048
 6949TIP3    H242263   5.681   0.465  17.183  0.5943  0.6137  0.1706
 6950TIP3   OH242264   5.611   0.275  10.685 -0.2944  0.3863 -0.0233
 6950TIP3    H142265   5.682   0.328  10.648  0.8711 -0.0792  1.4141
 6950TIP3    H242266   5.555   0.338  10.731 -0.8517  0.7594 -1.1861
 6951TIP3   OH242267   2.589   4.932  17.196 -0.3007 -0.3215  0.0143
 6951TIP3    H142268   2.567   4.840  17.210  0.0689 -0.3635  0.3508
 6951TIP3    H242269   2.616   4.937  17.104  0.3257 -0.6896  0.1654
 6952TIP3   OH242270   5.962   2.992  10.911  0.2471  0.0104 -0.3318
 6952TIP3    H142271   5.937   3.074  10.953  1.0840 -0.3264  0.8867
 6952TIP3    H242272   5.935   3.002  10.820  0.5420  1.7252 -0.2610
 6953TIP3   OH242273   2.596   1.433  13.814  0.5552 -0.2541 -0.6148
 6953TIP3    H142274   2.626   1.457  13.726  0.8862 -0.9291 -0.6943
 6953TIP3    H242275   2.541   1.356  13.800  0.5866 -0.3462 -0.2329
 6954TIP3   OH242276   3.038   1.028   6.708 -0.1822  0.5553  1.0555
 6954TIP3    H142277   3.109   1.080   6.746  1.4281 -1.4305  0.9436
 6954TIP3    H242278   2.986   1.091   6.658  1.7585  2.0251  0.7755
 6955TIP3   OH242279   4.526   6.064   3.810 -0.9437  0.2699  0.2716
 6955TIP3    H142280   4.585   6.001   3.851 -0.2607  0.1555 -0.8547
 6955TIP3    H242281   4.479   6.103   3.883 -0.6146 -0.7737  1.0746
 6956TIP3   OH242282   1.949   3.923   3.778 -0.2373  0.1505 -0.4028
 6956TIP3    H142283   1.997   3.953   3.855  1.6785 -0.5691 -1.2551
 6956TIP3    H242284   1.897   3.849   3.810  0.1613  0.1608  0.2916
 6957TIP3   OH242285   5.949   3.099  11.979  0.0808  0.0578 -0.3517
 6957TIP3    H142286   5.915   3.105  12.069  1.2152 -0.0134  0.0918
 6957TIP3    H242287   5.999   3.017  11.978  1.2613  0.7743 -0.6341
 6958TIP3   OH242288   1.014   0.986   5.266  0.3018  0.1918  0.0796
 6958TIP3    H142289   0.940   0.986   5.205  0.0869  1.8870  0.3014
 6958TIP3    H242290   1.089   1.012   5.212  0.4209  0.0853  0.1950
 6959TIP3   OH242291   5.782   2.709   0.266  0.3399 -0.7962  0.2645
 6959TIP3    H142292   5.720   2.731   0.335  0.0340 -0.2702 -0.1684
 6959TIP3    H242293   5.743   2.632   0.224  0.5572 -1.1528  0.7103
 6960TIP3   OH242294   5.647   3.080  15.990 -0.3995  0.0795 -0.5118
 6960TIP3    H142295   5.704   3.147  16.028  0.2827  0.2260 -1.7495
 6960TIP3    H242296   5.696   2.999  16.001 -0.9877 -0.1544  0.4964
 6961TIP3   OH242297   6.070   3.151   6.167 -0.9025 -0.1865  0.0805
 6961TIP3    H142298   6.139   3.162   6.233 -1.3860  1.7600  0.3209
 6961TIP3    H242299   6.117   3.152   6.084 -0.4599 -0.9032  0.3069
 6962TIP3   OH242300   2.925   5.558   1.292 -0.3152 -0.3769 -0.1342
 6962TIP3    H142301   2.941   5.468   1.262 -1.6780 -0.7797  0.2642
 6962TIP3    H242302   2.833   5.574   1.270 -0.1202  0.8794 -0.0827
 6963TIP3   OH242303   5.305   6.276  15.404  0.4272  0.0507  0.1010
 6963TIP3    H142304   5.235   6.341  15.400  1.5814  1.3016 -1.2880
 6963TIP3    H242305   5.261   6.192  15.394 -0.8788  0.8039 -0.8386
 6964TIP3   OH242306   3.712   6.679   2.822 -0.0450 -0.1462  0.6795
 6964TIP3    H142307   3.652   6.655   2.893 -0.5810 -1.5443 -0.1938
 6964TIP3    H242308   3.774   6.605   2.818 -0.9961 -0.9042 -1.3173
 6965TIP3   OH242309   6.109   3.293   2.428  0.5488 -1.0462  0.1313
 6965TIP3    H142310   6.156   3.252   2.355  0.1684 -0.8888 -0.2054
 6965TIP3    H242311   6.071   3.372   2.390  2.1213  0.1841  1.0075
 6966TIP3   OH242312   0.173   5.072   5.851 -0.0152 -0.4421  0.3725
 6966TIP3    H142313   0.087   5.064   5.809  1.0183 -0.0412 -1.9267
 6966TIP3    H242314   0.235   5.079   5.779  1.9809 -0.6653  1.9760
 6967TIP3   OH242315   4.085   3.202   2.171 -0.2965 -0.0239  0.4695
 6967TIP3    H142316   4.025   3.241   2.235 -1.1655  0.8887 -0.8488
 6967TIP3    H242317   4.141   3.275   2.144 -1.4361  0.1949 -1.4537
 6968TIP3   OH242318   3.833   4.302  17.265  0.4810  0.3783 -0.0211
 6968TIP3    H142319   3.869   4.290  17.177 -0.6568  3.1721 -0.9808
 6968TIP3    H242320   3.900   4.352  17.312  0.0641  1.0280 -0.1109
 6969TIP3   OH242321   2.346   6.233   3.281 -0.6592  0.0894  0.4741
 6969TIP3    H142322   2.258   6.270   3.274 -1.6570 -1.9114  1.5476
 6969TIP3    H242323   2.334   6.140   3.262  1.6192  0.0960 -1.4919
 6970TIP3   OH242324   2.860   1.580   2.153 -0.4753 -0.0846  0.0403
 6970TIP3    H142325   2.787   1.555   2.210  0.5620  0.5088  1.6865
 6970TIP3    H242326   2.891   1.497   2.116 -0.8986 -0.5275  0.6606
 6971TIP3   OH242327   5.813   4.032  13.831 -0.3303 -0.9493 -0.4680
 6971TIP3    H142328   5.886   3.972  13.846  0.1818 -0.3396 -0.4444
 6971TIP3    H242329   5.791   4.066  13.917 -0.2731 -0.7149 -0.5449
 6972TIP3   OH242330   5.671   4.299   2.673 -0.2621  0.3781 -0.1233
 6972TIP3    H142331   5.744   4.325   2.729  1.2605  0.5765 -2.1016
 6972TIP3    H242332   5.668   4.203   2.682 -0.4603  0.4518  0.7460
 6973TIP3   OH242333   5.876   3.497   0.000  0.0125  0.4284  0.3599
 6973TIP3    H142334   5.914   3.424   0.049 -2.1365 -0.2846  1.0875
 6973TIP3    H242335   5.830   3.456  -0.073 -1.3912  0.9963  0.8854
 6974TIP3   OH242336   6.220   0.565  14.217 -0.1733  0.0963 -0.0946
 6974TIP3    H142337   6.269   0.608  14.288  1.2353  0.7484 -1.4113
 6974TIP3    H242338   6.193   0.481  14.255  1.0731  0.1571  1.0312
 6975TIP3   OH242339   6.381   1.415   0.895  0.0335 -0.0311  0.3999
 6975TIP3    H142340   6.371   1.506   0.867 -1.3387 -0.7169 -1.5878
 6975TIP3    H242341   6.447   1.379   0.835 -0.9299 -0.8272 -0.2211
 6976TIP3   OH242342   2.136   2.863  17.290  0.4099  0.1719 -0.3441
 6976TIP3    H142343   2.105   2.916  17.364  0.4075  0.9127 -0.8672
 6976TIP3    H242344   2.056   2.824  17.254  0.2747  0.7093 -0.6380
 6977TIP3   OH242345   2.804   4.109   0.923  0.4364 -0.0422 -0.9065
 6977TIP3    H142346   2.887   4.156   0.915  0.0645  0.6920 -0.6212
 6977TIP3    H242347   2.816   4.051   0.998  0.4668  0.5872 -0.4092
 6978TIP3   OH242348   1.335   1.121  15.732 -0.1077  0.4459 -1.1816
 6978TIP3    H142349   1.301   1.145  15.646 -0.8551 -0.2327 -1.0954
 6978TIP3    H242350   1.411   1.178  15.746 -0.7907  1.5046 -1.6999
 6979TIP3   OH242351   5.871   6.281   4.966 -0.2441  0.1283 -0.4421
 6979TIP3    H142352   5.810   6.314   4.900  2.5652  0.3849 -3.1389
 6979TIP3    H242353   5.950   6.334   4.954  0.9771 -0.9835  2.0161
 6980TIP3   OH242354   3.308   6.095  14.412  0.2504 -0.0795 -0.4109
 6980TIP3    H142355   3.288   6.038  14.486  0.0353  0.2953 -0.1801
 6980TIP3    H242356   3.327   6.035  14.340  0.1385 -0.4427 -0.1397
 6981TIP3   OH242357   3.061   1.289   3.874  0.3616 -1.0353 -0.5132
 6981TIP3    H142358   3.016   1.357   3.823 -1.9503 -2.3628 -0.3859
 6981TIP3    H242359   3.089   1.334   3.953 -0.0087  0.0559 -0.9710
 6982TIP3   OH242360   2.150   5.957  16.612 -0.7756 -0.1398  0.2804
 6982TIP3    H142361   2.101   5.879  16.585 -0.9250  0.4424 -1.2144
 6982TIP3    H242362   2.091   6.030  16.595 -0.3047  0.3786  0.8304
 6983TIP3   OH242363   1.760   2.232  16.461  0.0939  0.4271 -0.3171
 6983TIP3    H142364   1.725   2.154  16.502 -0.6903  0.9502  0.0348
 6983TIP3    H242365   1.732   2.226  16.369  0.2389  0.1790 -0.3437
 6984TIP3   OH242366   0.438   1.477  15.967 -0.6711 -0.6860 -0.2534
 6984TIP3    H142367   0.438   1.538  16.040 -2.4142 -0.5804 -0.3107
 6984TIP3    H242368   0.511   1.418  15.986 -1.1396 -0.7361  1.6366
 6985TIP3   OH242369   2.266   4.953   5.468 -0.0894  0.3782  0.5381
 6985TIP3    H142370   2.235   5.043   5.457 -1.3232 -0.0564  0.3131
 6985TIP3    H242371   2.262   4.938   5.563 -0.7734  0.2564  0.4911
 6986TIP3   OH242372   5.789   6.186   4.705  0.1632  0.7029  0.2751
 6986TIP3    H142373   5.853   6.170   4.775  0.5812  1.3475  0.0487
 6986TIP3    H242374   5.842   6.201   4.627 -0.1492  3.0350  0.4279
 6987TIP3   OH242375   6.144   3.322  14.032  0.2767 -0.3772  0.1821
 6987TIP3    H142376   6.220   3.349  13.981 -0.3555  1.1223 -0.0166
 6987TIP3    H242377   6.084   3.286  13.967 -0.0722  0.5031 -0.0029
 6988TIP3   OH242378   4.338   0.409  10.773  0.1617  0.0744 -0.5713
 6988TIP3    H142379   4.392   0.432  10.697 -0.5239  2.0163 -0.5374
 6988TIP3    H242380   4.382   0.334  10.812  2.6843  1.3558 -0.7162
 6989TIP3   OH242381   3.148   2.183   6.674  0.4306  0.4689  0.3329
 6989TIP3    H142382   3.085   2.156   6.741  1.0505 -1.1954  0.2984
 6989TIP3    H242383   3.158   2.106   6.619  1.5691  1.1189 -0.3996
 6990TIP3   OH242384   3.175   2.023  11.225 -1.3493 -0.0999  0.0930
 6990TIP3    H142385   3.211   2.066  11.147 -1.3785 -0.7028 -0.2572
 6990TIP3    H242386   3.080   2.024  11.211 -1.3715  0.0273  0.2485
 6991TIP3   OH242387   0.484   3.983  12.820 -0.6468  0.1285 -0.1745
 6991TIP3    H142388   0.500   3.889  12.830 -0.6477  0.1237 -0.2201
 6991TIP3    H242389   0.390   3.989  12.801 -1.0406  0.2478  1.5618
 6992TIP3   OH242390   6.120   6.558   2.794 -0.0445 -0.0349  0.3866
 6992TIP3    H142391   6.085   6.602   2.717  3.1381 -1.2957 -2.0170
 6992TIP3    H242392   6.215   6.570   2.788  0.6430 -3.3561  2.0202
 6993TIP3   OH242393   4.907   3.021   0.858 -0.0338  0.1168  0.2229
 6993TIP3    H142394   4.953   2.958   0.803 -0.5616  0.9434 -1.2376
 6993TIP3    H242395   4.928   3.106   0.819 -2.5594  0.5501 -0.3617
 6994TIP3   OH242396   1.075   4.670  12.653 -0.0577  0.6413 -0.1193
 6994TIP3    H142397   1.047   4.683  12.743  1.1870 -1.1572  0.5845
 6994TIP3    H242398   1.139   4.599  12.657 -0.0892  0.3833 -2.4480
 6995TIP3   OH242399   4.459   1.429   4.690 -0.2194 -0.0690  0.2048
 6995TIP3    H142400   4.505   1.345   4.695 -0.2571 -0.1764 -0.9643
 6995TIP3    H242401   4.400   1.428   4.765 -0.3943 -1.2001  0.0768
 6996TIP3   OH242402   1.414   3.071  13.732  0.3655 -0.2842 -0.1791
 6996TIP3    H142403   1.392   3.104  13.645  0.8612 -0.3237 -0.3242
 6996TIP3    H242404   1.360   3.122  13.792 -0.4140 -0.6560 -0.5489
 6997TIP3   OH242405   2.747   3.959  15.662  0.0702  0.2874  0.3387
 6997TIP3    H142406   2.771   3.902  15.735  0.1280  0.6462  0.6039
 6997TIP3    H242407   2.774   4.046  15.691 -2.0139  0.8018  0.8741
 6998TIP3   OH242408   5.179   1.789   3.430 -0.7576 -0.1569 -0.5811
 6998TIP3    H142409   5.191   1.831   3.515 -1.2692 -1.1036 -0.0265
 6998TIP3    H242410   5.089   1.757   3.431 -0.6870 -0.4053 -1.3832
 6999TIP3   OH242411   3.927   3.451   4.555 -0.4958  0.0712 -0.7583
 6999TIP3    H142412   4.014   3.415   4.538  0.4288  1.7543  0.1348
 6999TIP3    H242413   3.939   3.545   4.553 -2.0429  0.3551  0.5928
 7000TIP3   OH242414   2.798   2.582   5.028 -0.1405  0.0738 -0.4505
 7000TIP3    H142415   2.775   2.665   5.070 -4.1479 -1.5700  1.2125
 7000TIP3    H242416   2.794   2.600   4.934  0.5322  2.0477 -0.1291
 7001TIP3   OH242417   4.222   4.685   4.886 -0.5699  0.4482  0.3163
 7001TIP3    H142418   4.236   4.612   4.825 -1.9419  1.1196 -0.8659
 7001TIP3    H242419   4.310   4.709   4.915 -0.1294 -2.5072  1.8239
 7002TIP3   OH242420   0.992   5.519   2.008  0.2679  0.7518  0.5492
 7002TIP3    H142421   0.917   5.574   1.984  0.4497  0.1370 -1.5969
 7002TIP3    H242422   1.063   5.580   2.023  0.0887  1.1844 -0.3423
 7003TIP3   OH242423   4.393   1.810  11.258 -0.1449 -0.0675 -0.3886
 7003TIP3    H142424   4.318   1.759  11.289  0.7721 -0.6918  0.8830
 7003TIP3    H242425   4.362   1.901  11.257 -1.8818 -0.5764 -2.9182
 7004TIP3   OH242426   2.594   4.860   5.161 -0.2829 -0.0434 -0.1008
 7004TIP3    H142427   2.673   4.806   5.162  1.5374  2.4218  2.0495
 7004TIP3    H242428   2.527   4.803   5.123  2.0240 -2.9362 -0.1979
 7005TIP3   OH242429   2.312   1.707  14.679 -0.5682  0.0189  0.0210
 7005TIP3    H142430   2.235   1.756  14.652  1.3760  1.9861 -2.5465
 7005TIP3    H242431   2.316   1.633  14.618  0.1576  0.6283 -0.7097
 7006TIP3   OH242432   6.614   4.325   2.855  0.1291  0.6403  0.3809
 7006TIP3    H142433   6.624   4.233   2.880  0.5490  0.4830 -0.3368
 7006TIP3    H242434   6.521   4.343   2.869 -0.0358 -0.0092  0.1538
 7007TIP3   OH242435   3.020   4.077   2.986  0.2173  0.0107 -0.4568
 7007TIP3    H142436   3.079   4.105   2.916  1.3647  4.5536  1.9363
 7007TIP3    H242437   2.933   4.102   2.956  0.7518  2.3943 -0.2146
 7008TIP3   OH242438   0.322   0.351  14.932 -0.4702  0.3384  0.1167
 7008TIP3    H142439   0.368   0.302  15.001  0.3935  0.8881 -0.0515
 7008TIP3    H242440   0.314   0.289  14.860  0.0650  0.2427  0.1331
 7009TIP3   OH242441   0.250   3.889  13.394 -0.0988 -0.1253 -0.3608
 7009TIP3    H142442   0.343   3.870  13.400 -0.2465 -0.4540  1.9415
 7009TIP3    H242443   0.220   3.889  13.485 -1.8526  2.5054 -0.8291
 7010TIP3   OH242444   4.553   1.903  12.619 -0.3088  0.1775 -0.3153
 7010TIP3    H142445   4.587   1.846  12.688  1.5635  0.6424 -0.8164
 7010TIP3    H242446   4.586   1.990  12.640 -1.9228  0.8555 -0.3816
 7011TIP3   OH242447   3.025   1.875  16.356  0.1577 -0.2882 -0.7334
 7011TIP3    H142448   2.982   1.934  16.418  0.0703 -0.2719 -0.8086
 7011TIP3    H242449   3.106   1.848  16.400  0.2017 -0.1057 -0.7031
 7012TIP3   OH242450   4.549   1.621   4.882  0.0305 -0.5422  0.3586
 7012TIP3    H142451   4.596   1.538   4.888  1.0110  0.0933  1.9471
 7012TIP3    H242452   4.517   1.623   4.792  1.9752 -1.5890 -0.4219
 7013TIP3   OH242453   5.685   1.001   1.268  0.1238  0.0008 -0.1305
 7013TIP3    H142454   5.778   0.986   1.280 -0.3135 -3.1958  0.2030
 7013TIP3    H242455   5.650   0.916   1.243 -3.0064  0.5683  1.7769
 7014TIP3   OH242456   5.596   0.451  16.770  0.3467  0.2083 -0.0951
 7014TIP3    H142457   5.621   0.396  16.696  1.8237  0.6054  0.0819
 7014TIP3    H242458   5.502   0.438  16.778  0.6202 -2.2566 -0.0727
 7015TIP3   OH242459   4.049   5.506  16.335 -0.8724 -0.5017  0.2934
 7015TIP3    H142460   4.078   5.556  16.412  0.1604 -0.5585 -0.0386
 7015TIP3    H242461   4.049   5.415  16.364  1.0672 -0.7054 -0.1748
 7016TIP3   OH242462   3.562   4.916  16.732  0.1643  0.4923 -0.9032
 7016TIP3    H142463   3.498   4.948  16.795  0.9375  2.7820 -1.1804
 7016TIP3    H242464   3.512   4.908  16.650 -0.7721 -2.2192 -0.1692
 7017TIP3   OH242465   1.590   3.436  14.150  0.5532 -0.3110  0.0749
 7017TIP3    H142466   1.567   3.390  14.231 -0.7902  2.1049  1.1964
 7017TIP3    H242467   1.539   3.393  14.082  0.4339 -1.3601  0.8143
 7018TIP3   OH242468   3.106   1.894   6.054 -0.4291  0.2804  0.1564
 7018TIP3    H142469   3.154   1.944   6.120  2.0549 -0.8567 -0.6468
 7018TIP3    H242470   3.171   1.878   5.985 -1.7230 -2.1460 -0.6050
 7019TIP3   OH242471   6.565   1.645  14.502 -0.6258 -0.5886  0.0996
 7019TIP3    H142472   6.539   1.728  14.462 -0.8165 -1.2353 -1.1918
 7019TIP3    H242473   6.516   1.578  14.452  0.2386 -1.5349  0.4800
 7020TIP3   OH242474   5.834   6.083   3.828 -0.0074  0.3691  0.0616
 7020TIP3    H142475   5.909   6.122   3.783  0.9680 -2.0855 -0.5615
 7020TIP3    H242476   5.767   6.152   3.825  0.9685  1.3279 -2.6303
 7021TIP3   OH242477   2.844   0.746  11.829  0.1722 -0.4126  0.6563
 7021TIP3    H142478   2.866   0.771  11.919 -0.7580  2.7005  0.1396
 7021TIP3    H242479   2.920   0.772  11.778  0.0362 -0.6248  0.3483
 7022TIP3   OH242480   1.307   4.768  14.357  0.1368 -0.4027  0.1661
 7022TIP3    H142481   1.289   4.679  14.388 -0.2097 -0.1043  0.8131
 7022TIP3    H242482   1.398   4.764  14.326  0.3922 -0.7755  0.9432
 7023TIP3   OH242483   0.627   3.616  11.519 -0.0251 -0.2038  0.8370
 7023TIP3    H142484   0.577   3.637  11.441  0.0122  0.8458  1.0801
 7023TIP3    H242485   0.571   3.556  11.569 -0.5674  0.0827  0.5806
 7024TIP3   OH242486   2.813   3.522  16.964 -0.1935  0.1781 -0.0821
 7024TIP3    H142487   2.897   3.563  16.988 -1.1207  1.8247  0.4730
 7024TIP3    H242488   2.765   3.517  17.046 -0.7942 -0.4094 -0.4676
 7025TIP3   OH242489   4.886   4.776   6.611  0.4911 -0.4363 -0.1203
 7025TIP3    H142490   4.831   4.699   6.629 -0.3782 -0.2238 -1.6367
 7025TIP3    H242491   4.975   4.742   6.611  0.3496 -0.9413  1.6756
 7026TIP3   OH242492   2.231   6.618   1.973 -0.0833 -0.0783 -0.1652
 7026TIP3    H142493   2.277   6.556   2.029 -0.4999  0.1389  0.4350
 7026TIP3    H242494   2.196   6.683   2.034 -1.0667 -0.1685 -0.6172
 7027TIP3   OH242495   4.594   4.324  11.151  0.2248  0.2996 -0.1862
 7027TIP3    H142496   4.540   4.320  11.230 -1.3755 -2.1475 -1.2820
 7027TIP3    H242497   4.560   4.399  11.103 -1.0131 -0.1289 -0.0144
 7028TIP3   OH242498   1.572   1.345   5.934  0.0491  0.0667 -0.8184
 7028TIP3    H142499   1.528   1.260   5.935  0.0695 -0.0074  2.5215
 7028TIP3    H242500   1.641   1.338   5.999  0.3511  2.5045 -0.7790
 7029TIP3   OH242501   2.837   3.892  16.281 -0.0130 -0.2273  0.0067
 7029TIP3    H142502   2.746   3.878  16.307  0.5194 -0.5811  1.7959
 7029TIP3    H242503   2.888   3.838  16.341  1.4187  0.3593 -0.6387
 7030TIP3   OH242504   2.581   3.870  11.020  0.3207  0.1063 -0.2688
 7030TIP3    H142505   2.661   3.861  10.968  0.1409  0.1160 -0.5494
 7030TIP3    H242506   2.582   3.796  11.080  0.2391 -0.2341 -0.6823
 7031TIP3   OH242507   2.975   4.250  14.910 -0.4034  0.2285 -0.6804
 7031TIP3    H142508   2.936   4.179  14.858  0.1222 -0.0128 -0.7479
 7031TIP3    H242509   2.900   4.300  14.942 -0.8125 -0.7816 -0.0242
 7032TIP3   OH242510   4.467   3.416   1.834 -0.6255  0.4667 -0.5206
 7032TIP3    H142511   4.395   3.453   1.783 -0.4184  0.9136 -0.4945
 7032TIP3    H242512   4.438   3.328   1.856 -1.3727  0.8059 -0.1116
 7033TIP3   OH242513   3.014   1.201  12.527  0.0459  0.7689  0.4248
 7033TIP3    H142514   3.025   1.266  12.597 -0.5816  2.5735 -1.0467
 7033TIP3    H242515   3.073   1.232  12.458 -1.0282  0.3468 -0.6961
 7034TIP3   OH242516   3.070   6.679   4.198 -0.0593  0.2888 -0.1939
 7034TIP3    H142517   3.106   6.710   4.281  2.0074  0.0224 -0.9311
 7034TIP3    H242518   3.038   6.758   4.155  1.1111  0.7953 -0.1687
 7035TIP3   OH242519   4.817   2.829  12.949  0.3136 -0.1838 -0.1330
 7035TIP3    H142520   4.792   2.820  12.857 -0.2973 -0.8642  0.0937
 7035TIP3    H242521   4.768   2.905  12.980 -0.7065 -0.8979  0.0368
 7036TIP3   OH242522   6.075   1.318   0.983  0.2240 -0.2551  0.3665
 7036TIP3    H142523   6.084   1.320   0.888  1.0508 -1.8278  0.3683
 7036TIP3    H242524   6.031   1.400   1.006  1.4979  0.9140 -1.2074
 7037TIP3   OH242525   1.068   3.434   3.713  0.1343 -0.4922  0.3289
 7037TIP3    H142526   1.081   3.353   3.761  3.2942  0.6450  1.6591
 7037TIP3    H242527   1.091   3.412   3.623  0.2220 -1.2427  0.5266
 7038TIP3   OH242528   4.495   5.773   3.611 -0.1075  0.0762  0.1739
 7038TIP3    H142529   4.507   5.733   3.525  0.6550  1.1381 -0.2356
 7038TIP3    H242530   4.439   5.849   3.594  2.0445  1.7539  0.1324
 7039TIP3   OH242531   4.609   2.965  12.782 -0.1189  0.1305 -0.1955
 7039TIP3    H142532   4.545   2.894  12.780 -1.5934  1.4158 -0.3113
 7039TIP3    H242533   4.610   2.993  12.874  2.0240 -1.3583  0.3008
 7040TIP3   OH242534   3.285   1.015   1.508  0.3348 -0.8100  0.2682
 7040TIP3    H142535   3.369   1.058   1.496 -0.5480  1.2945  1.2414
 7040TIP3    H242536   3.248   1.009   1.420  0.6452  0.0949  0.0697
 7041TIP3   OH242537   5.930   3.836   5.876  0.1724  0.0703  0.3433
 7041TIP3    H142538   6.019   3.800   5.881  0.1739 -0.0189 -0.2279
 7041TIP3    H242539   5.939   3.926   5.906  0.3114 -0.1652  1.0351
 7042TIP3   OH242540   6.495   5.115   2.729  0.2649  0.1082  0.4331
 7042TIP3    H142541   6.499   5.022   2.708 -0.7151  0.5563 -2.1310
 7042TIP3    H242542   6.577   5.133   2.774  0.9588 -1.7726  0.0143
 7043TIP3   OH242543   3.109   3.709   0.138 -0.3989  0.4462  0.0655
 7043TIP3    H142544   3.169   3.680   0.069 -0.0952  0.8385  0.1606
 7043TIP3    H242545   3.164   3.718   0.215 -0.2043  2.4726 -0.2409
 7044TIP3   OH242546   6.511   0.237  12.248  0.1924 -0.2894 -0.1286
 7044TIP3    H142547   6.451   0.287  12.193  1.5574  0.1250 -1.3265
 7044TIP3    H242548   6.528   0.293  12.323  2.3700  1.5878 -1.8533
 7045TIP3   OH242549   4.511   4.653   3.860 -0.3651 -0.1137  0.0620
 7045TIP3    H142550   4.478   4.709   3.790  0.6293  1.5631  0.8761
 7045TIP3    H242551   4.488   4.564   3.832 -1.3601  0.6195 -1.6204
 7046TIP3   OH242552   1.437   4.601   5.811 -0.5145  0.6679 -0.1053
 7046TIP3    H142553   1.517   4.623   5.858 -0.7026  0.9007  0.1128
 7046TIP3    H242554   1.378   4.674   5.831 -1.3036 -0.2294  0.9943
 7047TIP3   OH242555   2.163   5.212   5.876 -0.1337 -0.1799  0.1322
 7047TIP3    H142556   2.073   5.208   5.844  0.1270 -0.4764 -0.5733
 7047TIP3    H242557   2.154   5.244   5.966 -0.9766 -0.5680  0.2035
 7048TIP3   OH242558   0.709   6.526  15.316  0.0464  0.0674 -0.4450
 7048TIP3    H142559   0.783   6.478  15.281  0.0441 -0.1661 -0.1340
 7048TIP3    H242560   0.743   6.570  15.394 -0.8331 -2.4476  1.4606
 7049TIP3   OH242561   1.055   5.473  13.009 -0.0685  0.3931  0.2820
 7049TIP3    H142562   0.999   5.396  13.001  1.3828 -0.6003 -0.8376
 7049TIP3    H242563   1.025   5.532  12.939  3.2826 -2.2449 -3.9378
 7050TIP3   OH242564   2.233   1.932   5.864  0.0457 -0.3060  0.0965
 7050TIP3    H142565   2.191   1.944   5.949  2.0770  2.5839  0.8283
 7050TIP3    H242566   2.200   2.003   5.809 -0.0349 -1.1887 -1.0474
 7051TIP3   OH242567   2.148   4.950  15.797  0.0048 -0.6911  0.0020
 7051TIP3    H142568   2.230   4.907  15.817  0.5404  0.4131  0.2338
 7051TIP3    H242569   2.092   4.933  15.873  0.8889  0.6543  1.0101
 7052TIP3   OH242570   1.425   6.543  11.049 -0.2448 -0.5880  0.8471
 7052TIP3    H142571   1.504   6.513  11.095  0.1515  0.3794  0.8387
 7052TIP3    H242572   1.447   6.632  11.021 -0.7105 -0.9264 -0.6905
 7053TIP3   OH242573   1.204   2.307   3.956  0.2308 -0.0078 -0.4286
 7053TIP3    H142574   1.147   2.283   3.883  1.4597 -0.2623 -1.3447
 7053TIP3    H242575   1.216   2.226   4.004 -1.0512  0.2821  0.4317
 7054TIP3   OH242576   0.630   0.890   4.147 -0.0734 -0.2256  0.6528
 7054TIP3    H142577   0.668   0.859   4.064  1.4113 -2.1082  1.9411
 7054TIP3    H242578   0.666   0.978   4.158 -0.6899  0.2606 -0.9077
 7055TIP3   OH242579   6.094   3.076  14.383 -0.5959  0.3134 -0.1934
 7055TIP3    H142580   6.094   3.152  14.441 -0.4539  1.5230 -1.7272
 7055TIP3    H242581   6.178   3.033  14.401 -0.2983  0.9889  0.0757
 7056TIP3   OH242582   1.945   1.284   4.097 -0.1705 -0.0174 -0.5837
 7056TIP3    H142583   1.884   1.357   4.100  0.4803  0.4995  0.9533
 7056TIP3    H242584   2.019   1.317   4.046 -1.2692 -0.7741 -2.7835
 7057TIP3   OH242585   0.920   1.072   6.762  1.2342  0.4184  0.2460
 7057TIP3    H142586   1.008   1.046   6.732  0.9053 -1.3112  0.6586
 7057TIP3    H242587   0.875   1.099   6.682  1.4838 -0.7314 -0.3100
 7058TIP3   OH242588   5.054   0.658   3.706  0.0008  0.0803  0.3388
 7058TIP3    H142589   5.114   0.626   3.773  2.6691  2.1663 -0.8370
 7058TIP3    H242590   5.077   0.751   3.696  0.7217 -0.3550 -4.2536
 7059TIP3   OH242591   5.233   2.381  13.309 -0.2255 -0.4140  0.4178
 7059TIP3    H142592   5.143   2.375  13.277 -0.2382  0.7632  0.1973
 7059TIP3    H242593   5.256   2.474  13.301  1.5630 -0.9111 -1.1048
 7060TIP3   OH242594   5.937   4.616   4.197 -0.1407  0.2082  0.0237
 7060TIP3    H142595   5.863   4.570   4.157  0.2454 -0.8098  0.4390
 7060TIP3    H242596   5.963   4.680   4.131  0.4501 -1.4057 -1.3871
 7061TIP3   OH242597   3.926   5.188  16.326  0.5596 -0.3112 -0.2484
 7061TIP3    H142598   3.899   5.196  16.235  1.0287 -0.6230 -0.4195
 7061TIP3    H242599   3.859   5.235  16.375  0.5267  0.2150 -0.7883
 7062TIP3   OH242600   1.101   3.678   0.545  0.4628 -0.0347 -0.0824
 7062TIP3    H142601   1.027   3.647   0.598  0.0119  1.4286  0.1809
 7062TIP3    H242602   1.127   3.601   0.495 -0.8838 -0.7365  0.2269
 7063TIP3   OH242603   0.156   4.638  13.242 -0.0024  1.1413  0.1263
 7063TIP3    H142604   0.188   4.691  13.316 -1.5755  0.4754  1.3445
 7063TIP3    H242605   0.182   4.549  13.264 -0.5718  0.9268 -0.0755
 7064TIP3   OH242606   3.665   1.087  16.968  0.0646  0.1648  0.1314
 7064TIP3    H142607   3.747   1.069  16.921  0.1764 -0.9580  0.7126
 7064TIP3    H242608   3.607   1.124  16.902 -0.2549 -2.6264 -1.2981
 7065TIP3   OH242609   2.596   4.552  13.323  0.0726  0.1983 -0.3435
 7065TIP3    H142610   2.650   4.562  13.244 -0.1745 -0.0306 -0.5424
 7065TIP3    H242611   2.631   4.473  13.365  0.7179  0.7544  0.1908
 7066TIP3   OH242612   4.926   3.022   2.637 -0.3567 -0.4342 -0.1732
 7066TIP3    H142613   4.914   3.115   2.659  0.2491 -0.0951 -1.1858
 7066TIP3    H242614   4.850   2.978   2.676 -2.0028  0.8436 -1.7735
 7067TIP3   OH242615   2.494   5.036  12.722  0.1758  0.2940  0.6139
 7067TIP3    H142616   2.461   4.950  12.695 -0.5093  0.6946  0.1583
 7067TIP3    H242617   2.488   5.090  12.643 -2.0214  1.5439  1.5526
 7068TIP3   OH242618   3.833   4.714  13.766  0.1441 -0.1220  0.0790
 7068TIP3    H142619   3.832   4.648  13.697 -2.3847  1.3134 -1.4227
 7068TIP3    H242620   3.919   4.756  13.758 -0.1771  0.2249 -2.5262
 7069TIP3   OH242621   0.828   5.257  11.912 -0.4466  0.0923  0.0219
 7069TIP3    H142622   0.760   5.293  11.969 -1.7599  1.4141 -2.2503
 7069TIP3    H242623   0.786   5.245  11.827  1.8679 -0.0910 -1.1986
 7070TIP3   OH242624   6.281   0.799   2.776 -0.4971  0.1259  0.2203
 7070TIP3    H142625   6.310   0.887   2.753  1.5072 -0.2992  0.9230
 7070TIP3    H242626   6.274   0.753   2.692 -1.4564  0.9105 -0.1391
 7071TIP3   OH242627   1.577   0.848  16.948  0.5754  0.6058  0.2902
 7071TIP3    H142628   1.618   0.878  17.029  0.3857 -1.0217  1.0258
 7071TIP3    H242629   1.563   0.754  16.962 -2.3275  0.8606 -0.3596
 7072TIP3   OH242630   4.027   3.830   0.747  0.4638 -0.4104  0.0273
 7072TIP3    H142631   4.038   3.870   0.833 -0.1687 -0.6862  0.2405
 7072TIP3    H242632   3.944   3.783   0.753 -0.0875  0.3889 -1.0520
 7073TIP3   OH242633   2.987   0.705   4.678 -0.0795 -0.0886 -0.4474
 7073TIP3    H142634   2.983   0.629   4.737 -0.4599 -2.7221 -3.6005
 7073TIP3    H242635   2.895   0.728   4.663  0.0370  1.2590  0.6746
 7074TIP3   OH242636   3.494   3.439  11.308 -0.6657 -0.0270  0.0282
 7074TIP3    H142637   3.499   3.513  11.368  1.3847  0.0084 -0.0927
 7074TIP3    H242638   3.512   3.362  11.362 -1.9555 -0.3628  0.0032
 7075TIP3   OH242639   5.917   5.379   2.910  1.0569 -0.0427 -0.1506
 7075TIP3    H142640   5.913   5.427   2.992  0.1995  0.7213 -0.6202
 7075TIP3    H242641   5.858   5.304   2.922  0.1034  0.6528 -0.4265
 7076TIP3   OH242642   1.223   1.569   0.190 -0.6976 -0.1652  0.5880
 7076TIP3    H142643   1.188   1.506   0.127  1.1061 -0.2346 -0.4033
 7076TIP3    H242644   1.161   1.642   0.187 -1.4320 -0.7918 -0.1784
 7077TIP3   OH242645   1.943   6.604  12.383 -0.1550 -0.0778  0.4737
 7077TIP3    H142646   1.883   6.649  12.442 -0.7777 -1.2410  0.7678
 7077TIP3    H242647   1.936   6.651  12.300  0.5386  1.4136  1.2299
 7078TIP3   OH242648   4.851   0.468  13.091 -0.7301 -0.5712 -0.4358
 7078TIP3    H142649   4.868   0.400  13.026  1.1051 -1.4646  0.9127
 7078TIP3    H242650   4.804   0.423  13.161  1.2089 -0.7070  0.8360
 7079TIP3   OH242651   2.260   6.218  12.679  0.6672 -0.1704  0.0856
 7079TIP3    H142652   2.310   6.161  12.620 -0.7288  1.1529 -2.5069
 7079TIP3    H242653   2.296   6.305  12.665  0.6511  0.1096  1.6300
 7080TIP3   OH242654   5.590   0.093   4.062  0.3649 -0.3410 -0.0932
 7080TIP3    H142655   5.615   0.067   3.974 -2.5351 -1.3423 -0.7320
 7080TIP3    H242656   5.607   0.187   4.066 -0.9001  0.0417 -2.3100
 7081TIP3   OH242657   0.771   5.620  12.882 -0.0807 -0.5127 -0.4820
 7081TIP3    H142658   0.751   5.706  12.921  2.9368  0.6975 -1.3499
 7081TIP3    H242659   0.759   5.558  12.953  1.3127  1.1250  1.2989
 7082TIP3   OH242660   5.344   4.379  15.434  0.2158 -0.2242 -0.0683
 7082TIP3    H142661   5.368   4.471  15.441 -0.1675 -0.1136 -0.1924
 7082TIP3    H242662   5.428   4.333  15.433  0.4668  0.2108 -1.2635
 7083TIP3   OH242663   1.002   5.405   0.476  0.5322 -0.3801  0.2892
 7083TIP3    H142664   1.008   5.321   0.430  0.4654 -0.1591 -0.1282
 7083TIP3    H242665   1.092   5.427   0.497  0.7216  0.2758 -1.1265
 7084TIP3   OH242666   4.708   3.589   2.571 -0.4856 -0.1098 -0.0328
 7084TIP3    H142667   4.800   3.579   2.596 -0.4315  0.7788  0.1441
 7084TIP3    H242668   4.696   3.524   2.501  0.5022  0.3179 -0.6321
 7085TIP3   OH242669   5.978   0.114  14.978  0.1831 -0.0069 -0.2569
 7085TIP3    H142670   5.929   0.063  14.914  0.7097  0.8360 -1.3770
 7085TIP3    H242671   5.911   0.157  15.032 -0.3009 -2.8110  1.5869
 7086TIP3   OH242672   3.013   6.368  15.025  0.4881  0.4505 -0.4038
 7086TIP3    H142673   2.928   6.407  15.046  0.2724 -0.9992  1.7234
 7086TIP3    H242674   2.994   6.275  15.010  1.8178 -0.1971  1.5169
 7087TIP3   OH242675   5.136   4.286  16.190 -0.1291 -0.6984 -0.1471
 7087TIP3    H142676   5.131   4.335  16.272  0.3575  0.3508 -0.7153
 7087TIP3    H242677   5.057   4.233  16.188 -0.3205 -0.4637  0.8244
 7088TIP3   OH242678   0.848   5.181  17.311 -0.4505  0.3159 -0.4767
 7088TIP3    H142679   0.778   5.181  17.245 -0.4243  1.6507 -0.5433
 7088TIP3    H242680   0.828   5.256  17.367  0.6911  0.4748 -0.2450
 7089TIP3   OH242681   5.479   0.767   4.230  0.3564 -0.1707  0.2122
 7089TIP3    H142682   5.569   0.746   4.204  0.2240  0.7600 -1.0939
 7089TIP3    H242683   5.461   0.850   4.187 -1.2555 -0.5143  0.1842
 7090TIP3   OH242684   6.452   0.254   5.597 -0.8473  0.4437  0.0047
 7090TIP3    H142685   6.499   0.310   5.660 -0.6477 -0.8909  1.0762
 7090TIP3    H242686   6.370   0.232   5.642 -0.2835 -1.3169  0.2557
 7091TIP3   OH242687   3.892   2.094   4.272 -0.4838  0.2102 -0.6043
 7091TIP3    H142688   3.819   2.140   4.314  0.5905  0.8425  0.6546
 7091TIP3    H242689   3.917   2.026   4.335  0.1733  0.1745 -0.8991
 7092TIP3   OH242690   4.116   3.671  15.975  0.6814  0.2954 -0.3595
 7092TIP3    H142691   4.043   3.719  16.014 -1.5000 -3.7577  1.0509
 7092TIP3    H242692   4.097   3.672  15.881 -2.0427 -1.6553  0.0528
 7093TIP3   OH242693   4.775   2.295   1.729 -0.1270  0.3531 -0.0193
 7093TIP3    H142694   4.826   2.308   1.649  0.8166 -1.6711  0.1870
 7093TIP3    H242695   4.822   2.225   1.776 -1.6139  0.3001  1.4720
 7094TIP3   OH242696   3.206   2.837  12.421 -0.2034  0.0973  0.4856
 7094TIP3    H142697   3.289   2.866  12.458 -0.2515 -1.0312  1.5623
 7094TIP3    H242698   3.166   2.916  12.385  1.0223  0.7743  0.5834
 7095TIP3   OH242699   1.683   3.218  15.945 -1.2456 -0.3242  0.5076
 7095TIP3    H142700   1.718   3.307  15.949  0.4340 -0.9873  1.7078
 7095TIP3    H242701   1.712   3.184  15.860  0.7641 -0.6973  1.2775
 7096TIP3   OH242702   0.629   2.953   2.508  0.2769  0.7425 -0.3278
 7096TIP3    H142703   0.572   3.027   2.526  0.3399  0.3029  2.0218
 7096TIP3    H242704   0.572   2.877   2.511  0.3863  0.5746 -1.7473
 7097TIP3   OH242705   2.072   3.172  16.036  0.2137 -0.0284 -0.1525
 7097TIP3    H142706   1.992   3.170  15.984 -0.2176 -3.9252  0.3682
 7097TIP3    H242707   2.141   3.193  15.972 -1.0170  2.8634 -0.6910
 7098TIP3   OH242708   1.829   4.485  13.102  0.4769 -0.7350 -0.4193
 7098TIP3    H142709   1.779   4.539  13.041  0.2140 -1.4512 -0.8487
 7098TIP3    H242710   1.918   4.485  13.067  0.4141 -0.8122 -0.5790
 7099TIP3   OH242711   4.536   3.389   0.876  0.2373  0.1639  0.2281
 7099TIP3    H142712   4.516   3.297   0.895 -3.4641  0.6365 -0.5572
 7099TIP3    H242713   4.466   3.416   0.816  1.2342  3.4985  0.3890
 7100TIP3   OH242714   2.268   1.143  12.389  0.6572 -0.3823  0.2493
 7100TIP3    H142715   2.257   1.203  12.463 -0.5940 -2.6713  2.0903
 7100TIP3    H242716   2.362   1.147  12.369  1.0332  0.3882  1.9479
 7101TIP3   OH242717   2.765   1.343  13.574  0.0462  0.5951 -0.3601
 7101TIP3    H142718   2.843   1.351  13.629 -1.5932  2.4223  1.9666
 7101TIP3    H242719   2.762   1.425  13.525 -0.7468  0.8475  0.0953
 7102TIP3   OH242720   0.857   2.819  16.162  0.2126 -0.0258 -0.6776
 7102TIP3    H142721   0.932   2.759  16.163  1.3539  1.3421 -0.5649
 7102TIP3    H242722   0.832   2.828  16.254  0.0738 -0.2859 -0.6901
 7103TIP3   OH242723   0.198   3.928   0.202 -0.3307 -0.3044  0.1675
 7103TIP3    H142724   0.246   3.855   0.162 -0.9121 -0.9462  0.6039
 7103TIP3    H242725   0.106   3.901   0.198 -0.6566  0.8669 -0.5805
 7104TIP3   OH242726   5.565   2.423   5.833  0.1686 -0.4473  0.5830
 7104TIP3    H142727   5.479   2.431   5.793  0.9710 -1.3063 -1.4225
 7104TIP3    H242728   5.592   2.514   5.848 -1.1908 -0.1722  1.5772
 7105TIP3   OH242729   5.806   3.713  15.639  0.6279 -0.0214 -0.0627
 7105TIP3    H142730   5.748   3.760  15.579  1.8825  0.1799 -1.1672
 7105TIP3    H242731   5.751   3.645  15.677 -0.5010  0.5843 -0.5563
 7106TIP3   OH242732   5.938   5.780   1.580 -0.5949 -0.3816  0.6545
 7106TIP3    H142733   6.020   5.731   1.591 -0.4835 -0.1969  0.6484
 7106TIP3    H242734   5.871   5.723   1.618 -0.6508 -1.0958 -0.4573
 7107TIP3   OH242735   0.787   2.006  16.885 -0.2603 -0.0589 -0.0000
 7107TIP3    H142736   0.793   2.056  16.804  1.1887 -2.1337 -1.2735
 7107TIP3    H242737   0.847   2.051  16.946 -1.5181  1.6302  0.0481
 7108TIP3   OH242738   4.313   5.980   2.658  0.0610 -0.2116 -0.0903
 7108TIP3    H142739   4.295   5.943   2.745 -0.3031  0.2872  0.0555
 7108TIP3    H242740   4.319   6.074   2.674  2.4365 -0.2701 -0.1884
 7109TIP3   OH242741   5.931   1.406  16.809  0.3609 -0.1784  0.3857
 7109TIP3    H142742   5.895   1.495  16.811 -2.6632 -1.2489 -0.3521
 7109TIP3    H242743   5.969   1.393  16.896 -1.2875  1.0791  1.3645
 7110TIP3   OH242744   3.450   6.319   0.784 -0.2702  0.3020  0.0586
 7110TIP3    H142745   3.517   6.385   0.802  3.5204 -3.2764  0.6072
 7110TIP3    H242746   3.453   6.307   0.689 -0.3087  0.3495  0.0518
 7111TIP3   OH242747   1.741   5.934  13.730  0.5351 -0.1977  0.1464
 7111TIP3    H142748   1.809   5.896  13.675 -0.1525 -2.2716  0.6437
 7111TIP3    H242749   1.665   5.878  13.716 -0.7754  1.4114  0.4420
 7112TIP3   OH242750   6.713   0.635   3.761 -0.1302 -0.1362 -0.4178
 7112TIP3    H142751   6.712   0.714   3.707 -0.2651 -1.1734 -2.0057
 7112TIP3    H242752   6.686   0.565   3.701  0.2082 -1.4240  0.8849
 7113TIP3   OH242753   4.630   2.097   3.015  0.0936 -0.3070  0.7824
 7113TIP3    H142754   4.656   2.018   3.061  0.4082 -0.2972  0.6206
 7113TIP3    H242755   4.711   2.145   3.001 -0.0323 -0.1830  0.4595
 7114TIP3   OH242756   1.959   3.613   2.138 -0.5695  1.1280  0.8211
 7114TIP3    H142757   1.864   3.604   2.128 -0.5339  2.0443 -0.7782
 7114TIP3    H242758   1.988   3.529   2.172 -1.4740 -0.8455 -2.7764
 7115TIP3   OH242759   0.936   5.045   4.320  0.9323 -0.3635 -0.4138
 7115TIP3    H142760   0.854   5.048   4.272 -0.9963 -1.4473  2.5208
 7115TIP3    H242761   0.965   4.954   4.312  0.7310 -0.4891  0.2216
 7116TIP3   OH242762   6.562   5.913   1.844 -0.0079  0.3191 -0.3086
 7116TIP3    H142763   6.628   5.950   1.904  0.6168 -1.1849 -0.0131
 7116TIP3    H242764   6.567   5.969   1.766  2.1373 -0.1322 -0.5730
 7117TIP3   OH242765   5.689   4.907  13.711  0.5949  0.3040 -0.6032
 7117TIP3    H142766   5.749   4.884  13.641 -0.3008  1.5012 -1.8287
 7117TIP3    H242767   5.744   4.950  13.777  1.6383 -1.8322  0.0213
 7118TIP3   OH242768   1.737   6.354  12.107 -0.3926 -0.5985  0.2259
 7118TIP3    H142769   1.703   6.344  12.018 -4.3009  4.6033  0.6321
 7118TIP3    H242770   1.806   6.288  12.115 -2.7572 -4.3496 -5.0265
 7119TIP3   OH242771   1.950   1.420   4.427 -0.6931  0.0778  0.0048
 7119TIP3    H142772   2.002   1.341   4.413 -1.0557 -0.0445 -0.6640
 7119TIP3    H242773   2.002   1.472   4.489  0.4551  0.1583 -0.9872
 7120TIP3   OH242774   2.224   0.880  16.994 -0.1125 -0.1442 -0.1452
 7120TIP3    H142775   2.250   0.938  17.066 -2.4388  1.3255 -0.3970
 7120TIP3    H242776   2.174   0.810  17.037  0.2176 -0.3785 -0.1396
 7121TIP3   OH242777   6.394   6.312   1.890 -0.5939 -0.4088  0.4461
 7121TIP3    H142778   6.379   6.371   1.963  0.7364 -2.8967  2.9293
 7121TIP3    H242779   6.367   6.226   1.922  0.4553 -1.6887 -1.8157
 7122TIP3   OH242780   0.672   4.871   5.239 -0.4335 -0.3110 -0.0748
 7122TIP3    H142781   0.672   4.828   5.324 -0.1956 -0.7450 -0.2936
 7122TIP3    H242782   0.590   4.844   5.198  0.4435 -1.8929 -0.8753
 7123TIP3   OH242783   5.782   0.189   0.643  0.1773  0.0854  0.4000
 7123TIP3    H142784   5.782   0.212   0.550 -1.0385  0.4244  0.4746
 7123TIP3    H242785   5.759   0.270   0.688 -1.7731 -0.6514  0.8173
 7124TIP3   OH242786   4.116   3.547  12.312  0.1602 -0.0590  0.4280
 7124TIP3    H142787   4.191   3.603  12.333  0.6448 -1.4002  2.7564
 7124TIP3    H242788   4.041   3.605  12.316  0.9004  0.9953 -0.3054
 7125TIP3   OH242789   2.464   5.836   1.418  0.0282  0.2687  0.1454
 7125TIP3    H142790   2.462   5.878   1.332 -1.6048 -2.9788 -1.6011
 7125TIP3    H242791   2.550   5.794   1.423  0.0227  0.2367 -0.0337
 7126TIP3   OH242792   4.287   2.629  14.244 -0.4580 -0.2324 -0.1406
 7126TIP3    H142793   4.321   2.678  14.319 -0.1032 -0.8942  0.1409
 7126TIP3    H242794   4.345   2.553  14.236 -0.9953 -0.6145 -0.5597
 7127TIP3   OH242795   2.056   4.438  11.788 -0.2964 -0.3546 -0.2043
 7127TIP3    H142796   2.087   4.437  11.878 -0.0488 -0.7770 -0.2920
 7127TIP3    H242797   2.128   4.399  11.737 -0.4377 -0.1330 -0.5805
 7128TIP3   OH242798   5.395   0.203  16.888 -0.1214  0.6242  0.1402
 7128TIP3    H142799   5.392   0.118  16.844  1.0065 -0.0930  1.3797
 7128TIP3    H242800   5.403   0.266  16.816 -0.2204 -0.3673 -0.7694
 7129TIP3   OH242801   3.684   0.355   2.198 -0.4042 -0.2301 -0.0037
 7129TIP3    H142802   3.646   0.327   2.281  0.2235  0.2251  0.4402
 7129TIP3    H242803   3.778   0.358   2.214 -0.2775 -0.1349 -0.7317
 7130TIP3   OH242804   1.091   0.930  16.122 -0.1133 -0.0066  0.2874
 7130TIP3    H142805   1.126   0.869  16.058  1.9565  0.5081  0.8495
 7130TIP3    H242806   1.062   1.006  16.071 -0.5064 -0.4809 -0.2001
 7131TIP3   OH242807   1.801   3.091  12.826  0.0478  0.1937 -0.1150
 7131TIP3    H142808   1.706   3.087  12.814  0.0882 -0.6820 -0.2558
 7131TIP3    H242809   1.815   3.163  12.887 -0.8563 -0.7654  1.2787
 7132TIP3   OH242810   2.464   5.754   2.109  0.1442  0.2896  0.4573
 7132TIP3    H142811   2.391   5.772   2.169 -0.0368 -0.5588  0.4937
 7132TIP3    H242812   2.542   5.758   2.164  0.0367  0.1528  0.6171
 7133TIP3   OH242813   5.871   6.408  16.929 -0.1963  0.0432 -0.4621
 7133TIP3    H142814   5.889   6.449  17.013  2.5436  0.6919 -1.2903
 7133TIP3    H242815   5.830   6.478  16.876  0.5926  0.4591 -0.5284
 7134TIP3   OH242816   4.943   0.768   1.812  0.2453 -0.6005  0.8591
 7134TIP3    H142817   4.959   0.683   1.771  0.5064 -0.2855  0.2926
 7134TIP3    H242818   4.929   0.748   1.905  0.2150 -1.2672  0.7151
 7135TIP3   OH242819   5.165   1.794  10.607  0.2744 -0.0595 -0.2459
 7135TIP3    H142820   5.248   1.748  10.621  0.1927 -1.2262 -2.8995
 7135TIP3    H242821   5.167   1.818  10.514 -1.9631  0.7442 -0.1369
 7136TIP3   OH242822   1.647   4.774   2.845  0.5531 -0.1853 -0.6517
 7136TIP3    H142823   1.658   4.693   2.796  0.3271  0.3787 -1.6716
 7136TIP3    H242824   1.560   4.767   2.885  0.9526 -0.8716  0.1266
 7137TIP3   OH242825   5.929   0.803   0.215  0.0216  0.1408  0.0822
 7137TIP3    H142826   5.924   0.749   0.136  0.3226 -0.4552  0.4652
 7137TIP3    H242827   5.842   0.795   0.254  0.1335 -0.2484  0.2546
 7138TIP3   OH242828   1.215   2.995   0.150  0.2083  0.1261  0.3931
 7138TIP3    H142829   1.181   2.917   0.106 -0.9114  0.2642  0.9757
 7138TIP3    H242830   1.251   3.048   0.080 -1.1485  0.1421 -0.3280
 7139TIP3   OH242831   3.733   0.338  14.793  0.3072 -0.3982 -0.9016
 7139TIP3    H142832   3.800   0.270  14.784 -0.7859 -1.6127  0.0020
 7139TIP3    H242833   3.768   0.411  14.741  1.7704 -1.4159 -1.4319
 7140TIP3   OH242834   2.770   4.971  13.755  0.1710 -0.2479  0.1109
 7140TIP3    H142835   2.733   5.047  13.710  0.4275  0.0218  0.3542
 7140TIP3    H242836   2.754   4.898  13.696 -0.0388  0.0029 -0.1440
 7141TIP3   OH242837   3.503   0.907   3.104  0.2386  0.5773 -0.5525
 7141TIP3    H142838   3.499   0.837   3.169 -0.1750  0.2499 -0.9209
 7141TIP3    H242839   3.412   0.936   3.095  0.6922  2.8175  1.3389
 7142TIP3   OH242840   1.688   4.717   0.664 -0.4397 -0.0323 -0.3317
 7142TIP3    H142841   1.768   4.675   0.633 -0.7414  0.4978 -1.9321
 7142TIP3    H242842   1.622   4.648   0.662 -0.1768 -0.3102  0.3652
 7143TIP3   OH242843   2.167   1.859  11.793  0.3677  0.2260 -0.5769
 7143TIP3    H142844   2.112   1.836  11.718 -1.5217  0.3090  0.7261
 7143TIP3    H242845   2.237   1.794  11.792  0.3034  0.1389 -2.3123
 7144TIP3   OH242846   3.390   6.035  15.396  0.1194  0.0688 -0.1922
 7144TIP3    H142847   3.436   5.974  15.337  0.1370  0.6046 -0.7417
 7144TIP3    H242848   3.433   6.022  15.481  1.7081  0.9600 -0.8033
 7145TIP3   OH242849   4.834   5.338  14.237  0.6730  0.4426 -0.5320
 7145TIP3    H142850   4.901   5.372  14.297 -0.7008  0.5526  1.0165
 7145TIP3    H242851   4.799   5.416  14.194  0.0762  0.6338  0.2710
 7146TIP3   OH242852   1.173   4.073  14.739 -0.0813 -0.0699 -0.1022
 7146TIP3    H142853   1.144   4.082  14.830 -1.0183  1.5513 -0.5158
 7146TIP3    H242854   1.117   4.003  14.703 -0.2095 -0.2123  0.3632
 7147TIP3   OH242855   1.388   0.345   2.237  0.5965 -0.3273  0.2826
 7147TIP3    H142856   1.316   0.282   2.238  1.2093 -1.0515  0.3061
 7147TIP3    H242857   1.398   0.371   2.329  0.9172 -0.8841  0.4105
 7148TIP3   OH242858   3.868   0.893   2.768  0.6298 -0.0860  0.1420
 7148TIP3    H142859   3.923   0.822   2.735  0.4985 -0.4217  0.6459
 7148TIP3    H242860   3.813   0.917   2.693  2.1268  0.9440 -0.6945
 7149TIP3   OH242861   0.378   1.003  14.104 -0.1426  0.4042  0.3389
 7149TIP3    H142862   0.340   1.057  14.035  1.4523 -1.2161 -1.9675
 7149TIP3    H242863   0.311   0.938  14.124  0.5961 -1.4004 -2.4897
 7150TIP3   OH242864   6.258   1.801   2.935  0.7387 -0.2398  0.0450
 7150TIP3    H142865   6.177   1.765   2.897  1.1808 -0.8941 -0.2886
 7150TIP3    H242866   6.227   1.856   3.007 -0.0173 -0.4027 -0.1378
 7151TIP3   OH242867   4.148   3.562  17.185 -0.8697 -0.5876  0.1484
 7151TIP3    H142868   4.194   3.646  17.183 -2.7190  0.4787  0.1010
 7151TIP3    H242869   4.088   3.566  17.110 -3.0149 -0.7071  1.7703
 7152TIP3   OH242870   2.389   2.730   4.733 -0.0392  0.0299  0.0136
 7152TIP3    H142871   2.458   2.703   4.672  1.9832 -3.5335  3.4592
 7152TIP3    H242872   2.319   2.666   4.720 -0.5426  0.5777 -0.0147
 7153TIP3   OH242873   6.103   2.406   5.727 -0.0676 -0.0888 -0.2494
 7153TIP3    H142874   6.125   2.414   5.820  0.1753  2.1786 -0.4524
 7153TIP3    H242875   6.032   2.468   5.713  1.2645  1.1404 -1.9800
 7154TIP3   OH242876   6.296   2.779   5.122  0.1982 -0.0608 -0.0669
 7154TIP3    H142877   6.236   2.852   5.142  0.6745 -0.3514  2.8349
 7154TIP3    H242878   6.382   2.820   5.116  0.3495 -0.2558  0.7012
 7155TIP3   OH242879   2.843   5.516   0.086 -0.2959  0.1049 -0.6446
 7155TIP3    H142880   2.748   5.511   0.092 -0.2606 -0.2999 -0.3667
 7155TIP3    H242881   2.861   5.606   0.059 -0.7878 -0.0460 -1.5041
 7156TIP3   OH242882   2.976   2.794  13.071  0.2172  0.2185 -0.5503
 7156TIP3    H142883   2.891   2.794  13.115  0.0974 -0.5470 -0.7575
 7156TIP3    H242884   2.956   2.771  12.980  0.4693  1.7121 -1.0030
 7157TIP3   OH242885   4.146   3.918   3.211 -0.1376  0.5676  0.5158
 7157TIP3    H142886   4.172   3.907   3.303 -0.9118  0.1990  0.6989
 7157TIP3    H242887   4.216   3.876   3.161 -0.8788 -1.4508  1.0426
 7158TIP3   OH242888   3.776   0.314   5.624 -0.0423  0.2066 -0.2025
 7158TIP3    H142889   3.827   0.385   5.663  2.0331 -1.8987  1.1475
 7158TIP3    H242890   3.752   0.258   5.697  0.3311 -1.6559 -1.4323
 7159TIP3   OH242891   2.068   4.787   3.062  0.3519  0.3986  0.0271
 7159TIP3    H142892   2.022   4.827   3.136 -1.8033 -2.1628  0.2238
 7159TIP3    H242893   2.015   4.808   2.986  1.4530  1.3088 -0.5123
 7160TIP3   OH242894   5.557   0.066   6.209 -0.2803 -0.0318  0.3415
 7160TIP3    H142895   5.518   0.121   6.277  0.1785  1.0110 -0.2178
 7160TIP3    H242896   5.627   0.119   6.172  0.2132 -1.0213 -0.1926
 7161TIP3   OH242897   4.396   0.696   0.284  0.0673 -0.0618 -0.3586
 7161TIP3    H142898   4.337   0.652   0.223  1.6044  0.5463 -2.4089
 7161TIP3    H242899   4.483   0.662   0.263  0.7173  0.5031  1.2194
 7162TIP3   OH242900   6.424   2.078   1.704 -0.1880 -0.1580 -0.7758
 7162TIP3    H142901   6.515   2.068   1.677  0.8283  1.3763  1.6878
 7162TIP3    H242902   6.379   2.107   1.625  1.7610  0.5088 -1.7239
 7163TIP3   OH242903   1.759   6.070   2.577  0.4375  0.2778 -0.5373
 7163TIP3    H142904   1.846   6.050   2.543  0.2506  0.8551 -1.3790
 7163TIP3    H242905   1.733   5.990   2.623  0.5872 -0.6415 -1.9700
 7164TIP3   OH242906   5.644   5.749   5.124  0.2226 -0.3907  0.0149
 7164TIP3    H142907   5.651   5.749   5.219 -0.3673 -2.1475  0.0917
 7164TIP3    H242908   5.690   5.669   5.097 -1.8284 -1.2939 -0.9650
 7165TIP3   OH242909   2.051   2.693   5.602  0.7018  0.5025 -0.2808
 7165TIP3    H142910   2.131   2.644   5.625  1.0486  1.3161  0.3138
 7165TIP3    H242911   2.008   2.707   5.686  0.7787  1.4927 -0.3971
 7166TIP3   OH242912   4.165   5.866   2.886 -0.0709  0.3689 -0.0255
 7166TIP3    H142913   4.078   5.904   2.899 -0.7115 -0.6680 -1.0510
 7166TIP3    H242914   4.152   5.772   2.897  1.1223  0.2722  0.7184
 7167TIP3   OH242915   5.932   2.532  13.029 -0.1550 -0.3306  0.3677
 7167TIP3    H142916   5.873   2.458  13.013 -1.3595  0.5856  0.4198
 7167TIP3    H242917   5.878   2.596  13.075  0.9859  0.4139  0.7076
 7168TIP3   OH242918   2.739   3.706  14.147  0.4579  0.7220 -0.1458
 7168TIP3    H142919   2.766   3.786  14.192 -1.4651  0.8577  0.8983
 7168TIP3    H242920   2.744   3.638  14.213 -0.3060  0.4913 -0.3079
 7169TIP3   OH242921   4.445   3.705  13.539  0.0775  0.1253  0.0610
 7169TIP3    H142922   4.482   3.783  13.580  1.0124 -1.2261  1.9260
 7169TIP3    H242923   4.364   3.689  13.588 -0.0161 -0.1913 -0.1970
 7170TIP3   OH242924   5.276   0.091   2.777 -0.3482 -0.0631 -0.1749
 7170TIP3    H142925   5.334   0.066   2.705 -1.2428 -1.0057 -0.5924
 7170TIP3    H242926   5.250   0.008   2.816  0.0433  0.4314  1.1967
 7171TIP3   OH242927   3.211   4.413  16.711  0.3344  0.4012  0.1427
 7171TIP3    H142928   3.166   4.476  16.767 -1.0614 -0.3441 -0.0915
 7171TIP3    H242929   3.145   4.347  16.691  1.4572 -0.5753 -0.4955
 7172TIP3   OH242930   1.696   3.863  14.349  0.2823  0.7922 -0.2423
 7172TIP3    H142931   1.759   3.814  14.296  0.9392  1.7642 -0.3848
 7172TIP3    H242932   1.613   3.854  14.301  0.8544  1.5975 -1.4204
 7173TIP3   OH242933   1.429   0.272  15.057  0.4963 -0.2516 -0.2561
 7173TIP3    H142934   1.454   0.232  15.140 -0.4171  0.5668  0.4339
 7173TIP3    H242935   1.339   0.243  15.043  0.3611  0.2902 -0.5296
 7174TIP3   OH242936   0.776   1.184   5.136 -0.0294 -0.4883  0.7122
 7174TIP3    H142937   0.690   1.142   5.130 -0.1281 -0.4696  1.8332
 7174TIP3    H242938   0.804   1.194   5.045 -1.2474 -0.4316  0.3212
 7175TIP3   OH242939   2.317   0.668  15.460  0.0444  1.0219  0.3335
 7175TIP3    H142940   2.330   0.623  15.377  0.0226  2.4284 -0.4596
 7175TIP3    H242941   2.381   0.739  15.459  1.0169  0.2345  2.1531
 7176TIP3   OH242942   0.847   1.981   2.815  0.8292  0.0691 -0.3384
 7176TIP3    H142943   0.920   2.034   2.783  0.7694  0.5327  0.3030
 7176TIP3    H242944   0.861   1.896   2.772  2.0474 -0.0203  0.1789
 7177TIP3   OH242945   4.849   6.496  15.897  0.8399 -0.1711 -0.2282
 7177TIP3    H142946   4.926   6.552  15.897 -0.1422  1.2285 -0.7231
 7177TIP3    H242947   4.775   6.556  15.909 -0.2227 -1.3853 -0.4811
 7178TIP3   OH242948   0.663   4.797   2.505  0.3601  0.3899  0.9196
 7178TIP3    H142949   0.716   4.737   2.454 -1.9222 -0.5967 -0.4261
 7178TIP3    H242950   0.643   4.749   2.585  1.0992  0.6103  1.2495
 7179TIP3   OH242951   5.956   3.619   0.692 -0.1535  0.0744  0.4871
 7179TIP3    H142952   6.028   3.644   0.750  0.1549  1.2304 -0.3623
 7179TIP3    H242953   5.998   3.590   0.611 -0.6166  0.2699  0.1693
 7180TIP3   OH242954   6.075   5.001   6.549  0.4830 -0.1148 -0.6676
 7180TIP3    H142955   6.038   4.915   6.572  1.4289 -0.3989 -0.1697
 7180TIP3    H242956   6.152   5.009   6.605  0.1262  1.2895 -0.3371
 7181TIP3   OH242957   3.122   4.592   1.983  0.3676  0.0723 -0.3164
 7181TIP3    H142958   3.170   4.637   1.913  0.7339 -0.1736 -0.2310
 7181TIP3    H242959   3.128   4.499   1.960  0.1514  0.0194 -0.1651
 7182TIP3   OH242960   6.224   2.471  13.080 -0.4241 -0.1211  0.2619
 7182TIP3    H142961   6.184   2.494  12.996  1.2977  0.9067 -0.3424
 7182TIP3    H242962   6.170   2.514  13.146 -1.1542 -0.0063 -0.4010
 7183TIP3   OH242963   0.711   3.514  15.534  0.5485 -0.0134  0.8051
 7183TIP3    H142964   0.636   3.529  15.593  0.9862  1.7965  0.9444
 7183TIP3    H242965   0.743   3.427  15.559 -1.5070 -0.8764  0.7076
 7184TIP3   OH242966   3.241   0.092  17.337  0.0824 -0.5769 -0.0099
 7184TIP3    H142967   3.335   0.104  17.329  0.2698 -1.0011  1.3477
 7184TIP3    H242968   3.229  -0.003  17.334 -0.4870 -0.4829 -1.7942
 7185TIP3   OH242969   1.931   2.142   3.071 -0.4408  0.7633 -0.3641
 7185TIP3    H142970   1.875   2.197   3.016  0.1169  1.6287 -0.0784
 7185TIP3    H242971   1.869   2.094   3.126 -0.9395  1.1703 -0.5538
 7186TIP3   OH242972   3.518   1.788   4.832 -0.3435  0.3530 -0.5271
 7186TIP3    H142973   3.434   1.800   4.876 -0.7030 -0.3343 -1.0047
 7186TIP3    H242974   3.580   1.837   4.886 -0.7876 -0.3534  0.6620
 7187TIP3   OH242975   3.593   1.692  12.159 -0.0549  0.2003 -0.3332
 7187TIP3    H142976   3.606   1.649  12.075 -0.2802 -1.1207  0.2945
 7187TIP3    H242977   3.582   1.785  12.137 -0.3106 -0.1544 -1.7745
 7188TIP3   OH242978   2.852   0.328  15.553 -0.6586  0.2226  0.3661
 7188TIP3    H142979   2.772   0.360  15.512 -2.2372 -1.5271  1.8539
 7188TIP3    H242980   2.890   0.268  15.489 -0.4054  1.2199 -0.4324
 7189TIP3   OH242981   5.312   3.592  13.778 -0.9511  0.6953  0.0406
 7189TIP3    H142982   5.301   3.682  13.807 -2.2652  0.8806 -0.9279
 7189TIP3    H242983   5.276   3.539  13.850  0.5524  0.8648  0.9648
 7190TIP3   OH242984   3.275   3.048   3.826 -0.0868  0.1646 -0.1339
 7190TIP3    H142985   3.265   3.136   3.864 -0.8485  0.7728 -1.6593
 7190TIP3    H242986   3.224   2.991   3.884 -1.8591  1.1880 -0.6120
 7191TIP3   OH242987   1.239   6.207   4.680  0.3515  0.4493  0.1930
 7191TIP3    H142988   1.181   6.152   4.732 -1.1619  0.2058 -1.6693
 7191TIP3    H242989   1.318   6.153   4.668 -0.3818 -0.5971 -0.0735
 7192TIP3   OH242990   2.661   3.676   4.542 -0.0935  0.4846  0.0900
 7192TIP3    H142991   2.730   3.613   4.562 -0.9740 -0.2727  0.8020
 7192TIP3    H242992   2.682   3.707   4.453  0.6838 -0.3515 -0.0331
 7193TIP3   OH242993   0.466   5.970   1.989 -0.8384  0.2911  0.6104
 7193TIP3    H142994   0.500   5.980   2.078 -0.7686 -0.2815  0.6480
 7193TIP3    H242995   0.538   5.930   1.940 -0.3821  1.8150 -0.0370
 7194TIP3   OH242996   5.204   6.601   0.889  0.7358  0.0960  0.1237
 7194TIP3    H142997   5.249   6.607   0.974  2.4893  1.7743 -0.8583
 7194TIP3    H242998   5.235   6.519   0.851  1.5600  0.3616  0.2212
 7195TIP3   OH242999   0.837   2.295   0.040 -0.4341 -0.0344 -0.0072
 7195TIP3    H143000   0.878   2.346  -0.029 -0.8454  0.2621 -0.0325
 7195TIP3    H243001   0.881   2.323   0.120 -2.9687  3.0053  0.5281
 7196TIP3   OH243002   6.003   3.768   4.807 -0.0099  0.0889 -0.7853
 7196TIP3    H143003   5.977   3.825   4.879  0.0838  0.6599 -1.1992
 7196TIP3    H243004   6.081   3.809   4.770  0.0851 -0.3313 -1.0605
 7197TIP3   OH243005   5.650   3.515  12.762 -0.6398 -0.9335 -0.0279
 7197TIP3    H143006   5.555   3.528  12.765 -0.5113 -0.0744  2.1285
 7197TIP3    H243007   5.679   3.565  12.685 -1.7691  0.1239  0.2012
 7198TIP3   OH243008   2.195   5.940   6.897  0.1564  0.2154  0.6226
 7198TIP3    H143009   2.183   5.886   6.819 -2.5303  0.5470  0.7120
 7198TIP3    H243010   2.259   5.892   6.950 -1.9501 -2.9063  0.6455
 7199TIP3   OH243011   3.705   5.332  16.384  0.0205  0.0398 -0.0572
 7199TIP3    H143012   3.638   5.382  16.431  3.4275  1.5467  3.7945
 7199TIP3    H243013   3.740   5.393  16.320 -0.4347  0.1969 -0.1568
 7200TIP3   OH243014   3.124   1.188  11.435 -0.1340 -0.2533 -0.7190
 7200TIP3    H143015   3.187   1.118  11.419 -0.5094 -0.7677  0.0184
 7200TIP3    H243016   3.039   1.148  11.417 -0.2080  1.0676 -4.0559
 7201TIP3   OH243017   2.036   2.165   4.795  0.1306 -0.1261  0.2279
 7201TIP3    H143018   2.087   2.096   4.753 -1.4964  0.0710 -2.2480
 7201TIP3    H243019   1.947   2.151   4.765 -0.5238  2.1463  0.9139
 7202TIP3   OH243020   5.243   0.564   0.297  0.3522  0.9864 -0.0751
 7202TIP3    H143021   5.224   0.658   0.292 -0.5214  0.8610  0.6090
 7202TIP3    H243022   5.162   0.523   0.267  0.7102  0.4483 -0.3009
 7203TIP3   OH243023   1.587   5.642  16.395  0.4604  0.1438 -0.4210
 7203TIP3    H143024   1.648   5.571  16.411 -1.1749 -1.1119  0.4820
 7203TIP3    H243025   1.500   5.602  16.400 -0.5868  2.4120  1.3705
 7204TIP3   OH243026   1.474   5.161  13.689 -0.2621  0.1916 -0.1616
 7204TIP3    H143027   1.393   5.199  13.724 -0.2898 -0.1090  0.1048
 7204TIP3    H243028   1.535   5.163  13.762 -1.0679 -2.7601  0.7723
 7205TIP3   OH243029   6.252   3.345  14.854  0.6654  0.6881 -0.7233
 7205TIP3    H143030   6.164   3.368  14.826  1.6119  4.1163 -1.3445
 7205TIP3    H243031   6.301   3.332  14.773  0.8861 -0.7437 -0.3909
 7206TIP3   OH243032   0.631   4.476   2.933 -0.3978 -0.2423  0.0669
 7206TIP3    H143033   0.625   4.543   3.001  0.0473 -0.4660  0.3313
 7206TIP3    H243034   0.596   4.397   2.973  1.0232 -0.6987  0.4825
 7207TIP3   OH243035   5.636   3.229   0.714  0.3250  0.1985 -0.0578
 7207TIP3    H143036   5.723   3.264   0.736 -0.9130  2.6036  1.4086
 7207TIP3    H243037   5.628   3.151   0.768  2.9255 -2.3417 -2.9447
 7208TIP3   OH243038   2.861   3.252  17.245  0.5522 -0.2675 -0.1755
 7208TIP3    H143039   2.902   3.338  17.232 -1.2715  0.4724 -1.4754
 7208TIP3    H243040   2.860   3.240  17.340  2.3398  0.3527 -0.0392
 7209TIP3   OH243041   2.190   2.512  12.317  0.0167 -0.1621  0.6734
 7209TIP3    H143042   2.172   2.594  12.361 -0.4610 -0.4669  1.0585
 7209TIP3    H243043   2.259   2.533  12.253 -1.5210  1.0085 -0.6926
 7210TIP3   OH243044   5.033   1.553  12.402  0.4177 -0.0070  0.4346
 7210TIP3    H143045   5.086   1.628  12.376 -0.1602  0.1619 -0.2724
 7210TIP3    H243046   5.070   1.480  12.353 -1.2653  0.4776 -1.7025
 7211TIP3   OH243047   2.084   4.423   0.312  0.2725  0.3576  0.4107
 7211TIP3    H143048   2.066   4.463   0.227 -0.0903 -0.3309  0.1569
 7211TIP3    H243049   2.151   4.480   0.352  0.1990  0.8706 -0.1874
 7212TIP3   OH243050   3.916   1.062  17.293  0.5626 -0.5917  0.0338
 7212TIP3    H143051   3.855   1.127  17.258 -0.9166 -1.6121  0.6033
 7212TIP3    H243052   3.986   1.113  17.332 -1.1816  0.7382  1.5922
 7213TIP3   OH243053   3.362   5.176  11.136 -0.4570 -0.4830  0.2517
 7213TIP3    H143054   3.286   5.205  11.085 -1.5116 -3.4958 -0.1284
 7213TIP3    H243055   3.367   5.237  11.209 -3.0446  0.0520  0.0823
 7214TIP3   OH243056   3.495   6.262   5.234  0.0367  0.3157 -0.3905
 7214TIP3    H143057   3.502   6.202   5.308 -0.4330  0.3357 -0.3251
 7214TIP3    H243058   3.464   6.344   5.274  1.1272  0.7479 -0.4068
 7215TIP3   OH243059   3.486   0.241   1.903 -0.4804 -0.1846 -0.3282
 7215TIP3    H143060   3.490   0.194   1.986 -0.3107 -0.6598 -0.5999
 7215TIP3    H243061   3.440   0.322   1.923 -1.8380 -0.9793 -0.0894
 7216TIP3   OH243062   2.885   2.855   1.349  0.7772 -0.5152  0.3814
 7216TIP3    H143063   2.901   2.806   1.430  2.2727 -0.3002  0.2438
 7216TIP3    H243064   2.901   2.792   1.279 -0.4441 -0.6812  0.2320
 7217TIP3   OH243065   1.036   2.276   4.977  0.1140 -0.3234  0.2884
 7217TIP3    H143066   1.088   2.357   4.971 -0.7637  0.1652 -0.9165
 7217TIP3    H243067   1.000   2.278   5.066 -2.2342  2.1113 -0.6123
 7218TIP3   OH243068   5.392   4.270  14.548  0.3744 -1.1909  0.1416
 7218TIP3    H143069   5.427   4.286  14.636 -0.7815 -1.9789  0.7739
 7218TIP3    H243070   5.316   4.329  14.542  1.7235  0.5200 -1.2211
 7219TIP3   OH243071   0.690   0.436   4.207 -0.1255  0.4906 -1.2338
 7219TIP3    H143072   0.603   0.458   4.240  0.0597 -0.1638 -0.2627
 7219TIP3    H243073   0.707   0.501   4.139 -1.7088  0.1143 -2.0173
 7220TIP3   OH243074   4.273   6.097   4.682 -0.5613 -0.1384  0.4110
 7220TIP3    H143075   4.305   6.072   4.769  1.3908 -0.9110 -0.4746
 7220TIP3    H243076   4.351   6.130   4.637 -1.2554 -0.9523 -1.4655
 7221TIP3   OH243077   3.427   0.446  15.584  0.6977 -0.4335  0.0215
 7221TIP3    H143078   3.356   0.388  15.558  1.0156 -1.5900  1.5688
 7221TIP3    H243079   3.476   0.462  15.503 -1.2174  0.3326 -1.0710
 7222TIP3   OH243080   1.253   4.223  15.484 -0.2792  0.0818 -0.3085
 7222TIP3    H143081   1.340   4.210  15.522 -0.8157  2.7502  2.1957
 7222TIP3    H243082   1.262   4.303  15.432 -1.2828  0.6061  0.2892
 7223TIP3   OH243083   4.152   2.454   1.562 -0.8236 -0.4068 -0.2951
 7223TIP3    H143084   4.164   2.431   1.470 -3.6406 -0.2811 -0.7738
 7223TIP3    H243085   4.195   2.383   1.610  3.3785  1.0291 -1.5245
 7224TIP3   OH243086   5.676   1.334   1.025  0.5367 -0.0783  0.6018
 7224TIP3    H143087   5.682   1.294   1.112 -2.4913 -1.9076  0.1109
 7224TIP3    H243088   5.593   1.382   1.027 -0.1981 -1.1470 -1.6172
 7225TIP3   OH243089   4.636   4.733   4.684 -0.0846 -0.1004 -0.0978
 7225TIP3    H143090   4.604   4.703   4.769 -1.8793  4.4077  1.1448
 7225TIP3    H243091   4.722   4.772   4.704 -1.0445  2.0799  0.0569
 7226TIP3   OH243092   2.708   3.148  16.274  0.2846  0.3754 -0.2676
 7226TIP3    H143093   2.640   3.185  16.217  0.0793 -0.3190 -0.4888
 7226TIP3    H243094   2.786   3.199  16.255  0.6443 -0.8176 -2.3470
 7227TIP3   OH243095   0.760   2.924   3.353 -0.0552 -0.0299 -0.2651
 7227TIP3    H143096   0.829   2.881   3.301  0.8568  0.9485  0.1022
 7227TIP3    H243097   0.793   2.922   3.443 -0.4275  0.6113 -0.1093
 7228TIP3   OH243098   6.436   2.412   4.049  0.2988  0.1425 -0.3552
 7228TIP3    H143099   6.463   2.387   3.961 -2.5800 -0.0639 -1.2962
 7228TIP3    H243100   6.429   2.507   4.046 -1.0543  0.0500 -0.8103
 7229TIP3   OH243101   6.749   5.878   4.929 -0.3387 -0.8115 -0.2445
 7229TIP3    H143102   6.732   5.951   4.989 -0.3921  0.1791 -1.4428
 7229TIP3    H243103   6.826   5.905   4.879  0.0924 -1.9114 -0.2067
 7230TIP3   OH243104   2.203   2.285  11.805  0.4040 -0.2496  0.0002
 7230TIP3    H143105   2.221   2.284  11.710  1.5913  0.3191  0.1894
 7230TIP3    H243106   2.195   2.378  11.826 -2.6891 -0.4270  0.0218
 7231TIP3   OH243107   0.180   1.537   0.264  0.1901 -0.7147 -0.0238
 7231TIP3    H143108   0.116   1.468   0.247 -0.5443 -0.2608  0.8356
 7231TIP3    H243109   0.139   1.617   0.231  0.3038 -0.4211  0.5389
 7232TIP3   OH243110   4.764   4.051  12.036  0.7977 -0.4072  0.2248
 7232TIP3    H143111   4.839   4.086  12.084  0.4089 -0.6367  1.0259
 7232TIP3    H243112   4.712   4.128  12.014  0.7454 -0.3382  0.5846
 7233TIP3   OH243113   6.146   2.138  10.352 -0.0412  0.2021  0.1412
 7233TIP3    H143114   6.170   2.055  10.312 -2.8891 -0.7665  0.1655
 7233TIP3    H243115   6.061   2.159  10.313  0.7417  3.3449 -0.1345
 7234TIP3   OH243116   1.706   5.481  15.186  0.0449  0.3263 -0.3775
 7234TIP3    H143117   1.800   5.493  15.204 -0.1628 -0.6505  1.7392
 7234TIP3    H243118   1.666   5.479  15.273 -1.7210 -0.9768 -1.1640
 7235TIP3   OH243119   4.922   1.266  16.802 -0.3053 -0.0938  0.7156
 7235TIP3    H143120   4.842   1.249  16.752 -0.6675  1.1058  0.8416
 7235TIP3    H243121   4.906   1.351  16.844  1.0231  0.1423  0.7835
 7236TIP3   OH243122   2.097   5.718  15.040 -0.4887 -0.5975 -0.2181
 7236TIP3    H143123   2.026   5.764  14.996 -0.8017 -0.6018  0.2772
 7236TIP3    H243124   2.172   5.729  14.981 -0.6300  0.2914 -0.2558
 7237TIP3   OH243125   3.167   6.120  16.039 -0.0961 -0.0584  0.8555
 7237TIP3    H143126   3.163   6.157  16.127  1.7883  4.1604 -0.5877
 7237TIP3    H243127   3.079   6.135  16.003 -0.5347 -0.7521  1.6140
 7238TIP3   OH243128   2.417   4.276  14.631 -0.5550  0.2103 -0.8087
 7238TIP3    H143129   2.392   4.337  14.562 -0.0551  2.5224  0.9194
 7238TIP3    H243130   2.488   4.320  14.677 -0.7941 -1.2869  1.1176
 7239TIP3   OH243131   0.353   6.383  15.537 -0.6275  0.0134  0.3737
 7239TIP3    H143132   0.380   6.354  15.624 -1.1325  2.3124  1.3552
 7239TIP3    H243133   0.260   6.403  15.545 -0.5250  0.9382 -0.4821
 7240TIP3   OH243134   4.002   6.408  15.688 -0.1218  0.3641  0.3255
 7240TIP3    H143135   3.989   6.503  15.694 -0.4583  0.2529  4.3457
 7240TIP3    H243136   3.913   6.373  15.679 -0.0215  0.3719 -0.8474
 7241TIP3   OH243137   1.756   2.244  17.133  0.0999  0.3042 -0.5769
 7241TIP3    H143138   1.718   2.329  17.113 -0.8166 -0.2084 -1.1201
 7241TIP3    H243139   1.849   2.255  17.117 -0.2827  0.5824 -2.9933
 7242TIP3   OH243140   1.124   3.107  12.680  0.0579  0.3401 -0.0646
 7242TIP3    H143141   1.031   3.114  12.704  0.0520  1.7435 -0.3711
 7242TIP3    H243142   1.135   3.017  12.650 -1.5627  0.5470 -1.4206
 7243TIP3   OH243143   4.309   3.607   2.371 -0.1714  0.0890 -0.7877
 7243TIP3    H143144   4.365   3.625   2.446  0.0687 -0.6656 -0.7752
 7243TIP3    H243145   4.322   3.681   2.312  2.1306 -0.8213 -1.5504
 7244TIP3   OH243146   3.331   3.935   3.025  0.0576 -0.3199 -0.0215
 7244TIP3    H143147   3.404   3.995   3.015  0.3604 -0.8514 -1.1754
 7244TIP3    H243148   3.324   3.921   3.120  0.4569  0.9202  0.2049
 7245TIP3   OH243149   2.441   3.596   2.802  0.2775 -0.4058  0.3099
 7245TIP3    H143150   2.395   3.665   2.850  0.1269  0.1413 -0.5797
 7245TIP3    H243151   2.403   3.515   2.835 -1.2155  0.0286 -0.2493
 7246TIP3   OH243152   0.518   3.138  11.381  0.0775 -0.0212 -0.0424
 7246TIP3    H143153   0.526   3.225  11.343 -0.6358  0.8714  1.7045
 7246TIP3    H243154   0.607   3.102  11.378  0.2552  0.4788 -1.3850
 7247TIP3   OH243155   3.700   5.821   5.067  0.4309 -0.0436 -0.0743
 7247TIP3    H143156   3.738   5.887   5.010  1.1113 -0.2978  0.0795
 7247TIP3    H243157   3.623   5.789   5.019 -0.9233  2.0320  0.5724
 7248TIP3   OH243158   4.409   1.351   3.657  0.2771 -0.4626  0.1695
 7248TIP3    H143159   4.347   1.279   3.653 -0.5904  0.2528  0.3111
 7248TIP3    H243160   4.413   1.385   3.568  1.3306 -1.1971 -0.0789
 7249TIP3   OH243161   0.760   3.862   4.219  0.0537 -0.0533  0.0180
 7249TIP3    H143162   0.777   3.858   4.313  1.3999  0.0675 -0.1975
 7249TIP3    H243163   0.674   3.903   4.212 -0.1427 -0.2224  1.1978
 7250TIP3   OH243164   5.750   0.231   3.618  0.5154 -0.2405 -0.4418
 7250TIP3    H143165   5.708   0.207   3.535 -1.5165 -1.9825  1.0005
 7250TIP3    H243166   5.696   0.303   3.652  1.1310  0.2245 -0.4224
 7251TIP3   OH243167   6.060   6.631   2.069  0.3108  0.1387 -0.0799
 7251TIP3    H143168   6.076   6.555   2.125  1.4511  0.4430  0.0353
 7251TIP3    H243169   5.965   6.635   2.060  0.2705 -1.8623 -0.8842
 7252TIP3   OH243170   2.737   3.356   2.598 -0.4046  0.0816  0.2665
 7252TIP3    H143171   2.686   3.279   2.621  1.4956 -0.2735  3.9988
 7252TIP3    H243172   2.695   3.428   2.645  1.3564  0.0932  1.9444
 7253TIP3   OH243173   1.480   6.672   4.419  0.5245  0.2655  0.3687
 7253TIP3    H143174   1.402   6.632   4.454  0.7124 -1.4111 -1.0156
 7253TIP3    H243175   1.551   6.611   4.439  0.6300 -0.8453 -2.8382
 7254TIP3   OH243176   3.437   0.846   1.878 -0.0588  0.6339 -0.6151
 7254TIP3    H143177   3.505   0.913   1.873  0.8484 -0.0472  1.4888
 7254TIP3    H243178   3.374   0.881   1.943  0.3035 -0.4044  0.3193
 7255TIP3   OH243179   5.194   4.063  12.066 -0.0697  0.0219 -0.1190
 7255TIP3    H143180   5.257   4.135  12.061 -0.1609  0.1161  0.1026
 7255TIP3    H243181   5.159   4.056  11.977  0.7314 -0.4608 -0.4135
 7256TIP3   OH243182   0.105   5.500  12.686  0.6762 -0.1188 -0.6265
 7256TIP3    H143183   0.175   5.476  12.626  1.3035  1.1156 -0.4296
 7256TIP3    H243184   0.067   5.579  12.648 -0.5766 -0.7267 -0.6886
 7257TIP3   OH243185   1.006   0.270   3.145  0.3704 -1.0241 -0.6137
 7257TIP3    H143186   0.964   0.262   3.231 -0.7784  0.1914 -1.0336
 7257TIP3    H243187   1.055   0.352   3.150 -1.6505  0.3379 -1.8633
 7258TIP3   OH243188   0.864   3.341  16.749 -0.5570  0.2506  0.1519
 7258TIP3    H143189   0.838   3.267  16.804 -1.5635 -0.0848 -0.7409
 7258TIP3    H243190   0.836   3.418  16.800 -0.0279  0.0140  0.8216
 7259TIP3   OH243191   6.710   4.071   2.707 -0.1711 -0.9684 -0.8927
 7259TIP3    H143192   6.652   4.004   2.671 -0.5655  0.1502 -2.4317
 7259TIP3    H243193   6.718   4.049   2.800 -0.9601 -2.6412 -1.1934
 7260TIP3   OH243194   3.645   3.647  11.456 -0.4359  0.5077  0.5711
 7260TIP3    H143195   3.707   3.707  11.414 -0.0655  0.2003  0.6687
 7260TIP3    H243196   3.700   3.577  11.490 -1.0878 -1.4359 -2.0563
 7261TIP3   OH243197   6.586   0.748  13.997 -0.4047 -0.3264  0.5375
 7261TIP3    H143198   6.556   0.658  13.985  1.0293 -0.5650 -2.1382
 7261TIP3    H243199   6.509   0.802  13.979 -0.9167 -0.9998  0.6957
 7262TIP3   OH243200   0.430   1.469   5.809 -0.2173  0.0136  0.2331
 7262TIP3    H143201   0.434   1.422   5.725 -0.9502  0.0019  0.1975
 7262TIP3    H243202   0.457   1.404   5.874  0.3993  0.0346  0.0036
 7263TIP3   OH243203   2.259   0.333  12.374  0.8990 -0.3447 -0.2142
 7263TIP3    H143204   2.231   0.286  12.453  3.1637 -1.9838 -0.2774
 7263TIP3    H243205   2.281   0.421  12.405 -1.0572 -0.0296  0.3899
 7264TIP3   OH243206   3.442   4.877   3.187  0.0539  0.8145 -0.0172
 7264TIP3    H143207   3.437   4.913   3.276 -0.6336  0.6651  0.0082
 7264TIP3    H243208   3.360   4.902   3.146  1.5952  3.6083 -1.6875
 7265TIP3   OH243209   6.577   3.346   0.494  0.6242 -0.2603 -0.0310
 7265TIP3    H143210   6.594   3.277   0.558  0.1937  0.6585  1.1092
 7265TIP3    H243211   6.661   3.390   0.484  0.8046 -0.6932 -0.4629
 7266TIP3   OH243212   4.746   5.425  16.808  0.3351  0.2345 -0.1496
 7266TIP3    H143213   4.701   5.373  16.740 -1.3227  2.0523 -0.5495
 7266TIP3    H243214   4.684   5.427  16.881  0.8487  0.7318  0.2764
 7267TIP3   OH243215   4.028   2.599  15.369  0.3271  0.2564 -0.3955
 7267TIP3    H143216   3.952   2.653  15.390 -0.3269 -0.2862 -1.2962
 7267TIP3    H243217   4.088   2.613  15.442 -1.3000 -0.5728  1.1678
 7268TIP3   OH243218   4.188   0.583   3.593 -0.0542 -0.1814 -0.3347
 7268TIP3    H143219   4.184   0.518   3.524 -0.5755  1.3693 -1.8375
 7268TIP3    H243220   4.267   0.634   3.575  1.7716 -1.8131  2.2594
 7269TIP3   OH243221   2.564   1.590  15.673 -0.0344  0.3609 -0.1032
 7269TIP3    H143222   2.612   1.507  15.684 -0.5711  0.1487  0.7268
 7269TIP3    H243223   2.557   1.625  15.761 -0.7059  0.7909 -0.3232
 7270TIP3   OH243224   5.373   4.714  17.199 -0.4353 -0.1981 -0.4547
 7270TIP3    H143225   5.446   4.652  17.198 -0.6661 -0.5230  0.8181
 7270TIP3    H243226   5.387   4.767  17.278 -0.1830  1.4750 -1.5737
 7271TIP3   OH243227   4.435   0.792  10.827 -0.1000 -0.0361  0.2096
 7271TIP3    H143228   4.465   0.817  10.914 -2.1002 -2.0747  1.5778
 7271TIP3    H243229   4.416   0.875  10.783  0.9392  1.0266  1.6652
 7272TIP3   OH243230   0.555   0.622  15.529 -0.5723  0.3626  0.3873
 7272TIP3    H143231   0.584   0.552  15.587 -1.1764 -0.5724 -0.3918
 7272TIP3    H243232   0.521   0.689  15.587 -1.6848 -0.7889  1.1388
 7273TIP3   OH243233   2.718   3.246  14.349 -0.3235  0.5398  0.1656
 7273TIP3    H143234   2.634   3.247  14.303  1.2735  0.3759 -3.0518
 7273TIP3    H243235   2.744   3.153  14.350  1.4383  0.9027 -2.3534
 7274TIP3   OH243236   5.137   4.178  16.482 -0.1546  0.3521  0.2376
 7274TIP3    H143237   5.147   4.160  16.576  0.9968 -0.2424  0.0169
 7274TIP3    H243238   5.095   4.100  16.447 -0.6770  0.6150  0.2562
 7275TIP3   OH243239   1.091   2.948  11.633  0.0445 -0.2325 -0.3305
 7275TIP3    H143240   1.184   2.930  11.641  0.0792  0.6531  1.8415
 7275TIP3    H243241   1.048   2.866  11.659  0.2310  0.1830  1.3573
 7276TIP3   OH243242   3.554   2.163   4.676 -0.2755  0.2063 -0.1155
 7276TIP3    H143243   3.543   2.069   4.661 -0.3121  0.2068 -0.0886
 7276TIP3    H243244   3.614   2.169   4.751 -2.0429  0.1948  1.3576
 7277TIP3   OH243245   3.680   5.632   2.501 -0.4639 -0.2221 -0.0414
 7277TIP3    H143246   3.608   5.592   2.451  0.6840 -1.5373 -0.7211
 7277TIP3    H243247   3.670   5.597   2.589 -0.9435 -0.0162 -0.0128
 7278TIP3   OH243248   5.137   4.617   2.459  0.1436  0.5752 -0.0870
 7278TIP3    H143249   5.218   4.666   2.471  0.6694 -0.5498  1.1623
 7278TIP3    H243250   5.166   4.527   2.441 -0.8161  0.2702 -0.1461
 7279TIP3   OH243251   5.998   5.734   5.483  0.4939 -0.4820 -0.7096
 7279TIP3    H143252   6.091   5.730   5.503  0.2503  0.0178  0.5991
 7279TIP3    H243253   5.965   5.808   5.534 -0.6597 -0.7692 -1.0036
 7280TIP3   OH243254   5.305   0.435  16.428 -0.1647 -0.3619 -0.5155
 7280TIP3    H143255   5.299   0.342  16.410  0.8212  0.1999 -4.8436
 7280TIP3    H243256   5.393   0.460  16.400 -0.4657  1.9045  0.3251
 7281TIP3   OH243257   2.100   3.878   0.054 -0.7418  0.3846 -0.3762
 7281TIP3    H143258   2.145   3.831   0.124  0.3049  0.2948 -1.0754
 7281TIP3    H243259   2.069   3.959   0.095 -1.0315 -0.1130  0.4171
 7282TIP3   OH243260   0.866   6.722  16.351  0.5796  0.1762 -0.2701
 7282TIP3    H143261   0.811   6.657  16.394 -0.4606  0.0071 -1.8045
 7282TIP3    H243262   0.809   6.798  16.339  0.9758  0.3715 -0.9645
 7283TIP3   OH243263   2.948   4.705  13.742 -0.2228  0.0850 -0.1823
 7283TIP3    H143264   3.027   4.753  13.718 -1.0014  0.8927 -1.2060
 7283TIP3    H243265   2.973   4.655  13.820  1.8156 -1.0342 -1.4551
 7284TIP3   OH243266   5.920   2.974  13.180 -0.5158 -0.6317 -0.3584
 7284TIP3    H143267   5.883   2.906  13.236 -1.2278 -0.3705 -0.4989
 7284TIP3    H243268   5.954   2.926  13.104 -0.1150 -0.9243  0.0021
 7285TIP3   OH243269   2.589   1.778   2.506  0.1003  0.2204  0.4399
 7285TIP3    H143270   2.666   1.824   2.540 -0.0109  0.5854  0.2043
 7285TIP3    H243271   2.560   1.831   2.432 -0.8629  0.5397  1.0161
 7286TIP3   OH243272   4.320   2.152  16.225 -0.0253 -0.3963 -0.4634
 7286TIP3    H143273   4.332   2.240  16.190 -0.7702 -0.3030 -0.4864
 7286TIP3    H243274   4.409   2.118  16.233  0.2235 -0.0060 -1.3898
 7287TIP3   OH243275   2.845   5.907   3.897  0.3468  0.5089  0.1836
 7287TIP3    H143276   2.915   5.964   3.865  0.6187  1.5265  2.4003
 7287TIP3    H243277   2.882   5.867   3.976 -1.7301  1.5382  1.7584
 7288TIP3   OH243278   4.750   2.611   2.449  0.0708 -0.1124 -0.1212
 7288TIP3    H143279   4.843   2.627   2.435 -0.5166  2.7896 -1.2914
 7288TIP3    H243280   4.729   2.539   2.389  1.4183 -0.3338 -0.3562
 7289TIP3   OH243281   0.618   5.980   0.888  0.6070 -0.2702  0.0566
 7289TIP3    H143282   0.670   6.021   0.820  2.5950 -3.2463 -0.3877
 7289TIP3    H243283   0.531   5.970   0.849  0.7131  1.2648 -0.6523
 7290TIP3   OH243284   2.762   5.582  16.103  0.6260  0.1660  0.0644
 7290TIP3    H143285   2.684   5.541  16.065  0.8573 -1.5753  1.3361
 7290TIP3    H243286   2.728   5.654  16.156  0.1952  1.6668 -2.1117
 7291TIP3   OH243287   5.393   1.303   2.849 -0.7188 -0.1646 -0.0796
 7291TIP3    H143288   5.453   1.265   2.913 -1.8805  1.8691  2.4011
 7291TIP3    H243289   5.306   1.276   2.880 -1.5071  3.1992  1.0890
 7292TIP3   OH243290   1.117   6.505  12.135 -0.1826  0.2593  0.3058
 7292TIP3    H143291   1.152   6.423  12.171 -1.4733  0.6627  2.6912
 7292TIP3    H243292   1.193   6.549  12.096  0.6051 -1.8599 -0.7134
 7293TIP3   OH243293   2.400   2.922   3.960  0.2763 -0.3028 -0.0189
 7293TIP3    H143294   2.321   2.905   3.909  0.2132 -0.7719  0.2259
 7293TIP3    H243295   2.383   2.883   4.045 -0.0107  1.3567  0.7101
 7294TIP3   OH243296   1.079   0.793  13.610  0.6407  0.6655 -0.1491
 7294TIP3    H143297   1.044   0.876  13.577 -0.0237  0.5308  0.1965
 7294TIP3    H243298   1.148   0.819  13.671  1.8725  0.9144 -1.5984
 7295TIP3   OH243299   5.310   1.681  13.813 -0.0312 -0.4174  0.0487
 7295TIP3    H143300   5.389   1.711  13.768 -0.5925  2.0881  0.5912
 7295TIP3    H243301   5.255   1.645  13.743  0.6530 -0.0919 -0.6792
 7296TIP3   OH243302   5.183   3.180  15.006  0.8600 -0.4965  0.2078
 7296TIP3    H143303   5.266   3.192  15.051  1.1763 -1.0182 -0.2157
 7296TIP3    H243304   5.205   3.189  14.913  0.7233 -2.0026  0.0023
 7297TIP3   OH243305   0.487   2.187  14.182  0.1446  0.6003  0.0761
 7297TIP3    H143306   0.494   2.185  14.278 -1.1306 -2.4316  0.2218
 7297TIP3    H243307   0.439   2.267  14.163 -1.2161  0.3518  2.1622
 7298TIP3   OH243308   4.223   4.049  11.392 -0.1832  0.1990 -0.1631
 7298TIP3    H143309   4.148   3.993  11.413  0.6635 -0.5127  1.0911
 7298TIP3    H243310   4.299   3.993  11.407  0.7456  1.8898  1.9435
 7299TIP3   OH243311   1.570   6.592  14.250 -0.0969 -0.6270  0.5447
 7299TIP3    H143312   1.597   6.652  14.181  1.2166 -0.7784  0.8899
 7299TIP3    H243313   1.545   6.649  14.323  1.1005 -0.4487  0.8537
 7300TIP3   OH243314   6.109   4.084  14.117  0.2575 -0.1812 -0.1375
 7300TIP3    H143315   6.148   4.141  14.183  0.5234 -2.7641  2.1192
 7300TIP3    H243316   6.017   4.109  14.115  0.7228  1.5843 -0.6695
 7301TIP3   OH243317   6.164   6.436  15.720 -0.1116 -0.0572 -0.1072
 7301TIP3    H143318   6.115   6.364  15.760 -0.1065  0.1161  0.2221
 7301TIP3    H243319   6.097   6.489  15.675 -0.4233  0.8176  1.3037
 7302TIP3   OH243320   3.771   1.490  14.142 -0.2907  0.5768 -0.5746
 7302TIP3    H143321   3.725   1.572  14.161 -0.4763  0.1499  0.9860
 7302TIP3    H243322   3.709   1.422  14.169  0.4906 -0.0396 -0.3146
 7303TIP3   OH243323   1.268   3.761   4.585  0.2596 -0.7137  0.0952
 7303TIP3    H143324   1.261   3.854   4.564  0.7185 -1.3551 -3.5626
 7303TIP3    H243325   1.325   3.726   4.517  1.4166 -3.4529  2.2950
 7304TIP3   OH243326   4.574   1.700  11.498 -0.1376  0.1490  0.6630
 7304TIP3    H143327   4.604   1.645  11.570  0.1225  1.5452  1.6651
 7304TIP3    H243328   4.580   1.789  11.532 -0.4442  0.8153 -0.9429
 7305TIP3   OH243329   3.681   4.436  14.678 -0.5352 -0.1602 -0.4253
 7305TIP3    H143330   3.694   4.479  14.594  0.3640 -0.3951 -0.4177
 7305TIP3    H243331   3.623   4.494  14.727  0.7732  1.1443 -0.3528
 7306TIP3   OH243332   4.400   4.509   2.595 -0.1547 -0.8270 -0.1021
 7306TIP3    H143333   4.397   4.511   2.691 -1.2827 -1.4782 -0.1087
 7306TIP3    H243334   4.474   4.451   2.575  0.1458 -0.6125  0.3694
 7307TIP3   OH243335   5.828   2.976  12.847  0.0787 -0.2331  0.7092
 7307TIP3    H143336   5.857   2.976  12.756  0.4646 -0.4023  0.8315
 7307TIP3    H243337   5.907   2.957  12.898 -0.3161 -1.0752  1.0245
 7308TIP3   OH243338   6.344   2.691  13.936 -0.5127 -0.2530 -0.1400
 7308TIP3    H143339   6.411   2.726  13.878  1.3651  1.2060  2.6835
 7308TIP3    H243340   6.280   2.761  13.944 -1.1788 -0.7476 -0.9930
 7309TIP3   OH243341   0.479   1.447  11.853  0.1039  0.0855 -0.3229
 7309TIP3    H143342   0.442   1.442  11.764  1.1771  0.0929 -0.7863
 7309TIP3    H243343   0.552   1.508  11.844  0.3432 -0.0745  0.5317
 7310TIP3   OH243344   0.319   1.460   3.426 -0.1945 -0.0635  0.1711
 7310TIP3    H143345   0.313   1.490   3.517 -0.1541 -0.8752  0.4476
 7310TIP3    H243346   0.408   1.483   3.399 -0.6830  1.5454 -0.1710
 7311TIP3   OH243347   6.595   5.370  16.665 -0.4447  0.3590 -0.2205
 7311TIP3    H143348   6.534   5.310  16.706  1.7607 -1.3145  0.8336
 7311TIP3    H243349   6.590   5.351  16.571 -0.0446 -1.2822  0.0662
 7312TIP3   OH243350   2.181   5.761  16.245 -0.4862 -0.3912  0.3663
 7312TIP3    H143351   2.108   5.757  16.182 -0.1371 -4.4347  0.0013
 7312TIP3    H243352   2.139   5.749  16.330 -0.6292  2.1402  0.7360
 7313TIP3   OH243353   6.221   0.710  16.779 -0.1281  0.0457 -0.3655
 7313TIP3    H143354   6.282   0.736  16.710  0.4186 -2.0535 -0.7374
 7313TIP3    H243355   6.273   0.655  16.838 -1.7280 -2.4189 -1.0782
 7314TIP3   OH243356   2.862   6.645  13.423 -0.2389  0.4682  0.3048
 7314TIP3    H143357   2.957   6.661  13.427 -0.2982  1.1131 -0.7440
 7314TIP3    H243358   2.823   6.732  13.412 -0.7759 -0.0045 -1.9945
 7315TIP3   OH243359   0.104   4.604   3.919  0.0775  0.1577 -0.0999
 7315TIP3    H143360   0.169   4.570   3.981  0.9916 -0.2791 -1.2608
 7315TIP3    H243361   0.020   4.570   3.952  0.5232  0.0577  0.9709
 7316TIP3   OH243362   0.947   6.201   1.041 -0.3377 -0.4629  0.1296
 7316TIP3    H143363   0.998   6.123   1.021  1.5485  0.6506  0.2633
 7316TIP3    H243364   0.960   6.258   0.964  1.1634  1.0280  1.4058
 7317TIP3   OH243365   5.018   3.444   1.356  0.0899 -0.1483  0.0248
 7317TIP3    H143366   5.097   3.392   1.366 -0.5640 -1.6376 -1.8846
 7317TIP3    H243367   5.038   3.526   1.401  2.3823 -0.8029  0.3546
 7318TIP3   OH243368   1.277   1.216   3.920 -0.1820  0.3596  0.1613
 7318TIP3    H143369   1.289   1.143   3.860  0.2467  1.1262 -0.7285
 7318TIP3    H243370   1.364   1.233   3.955 -0.4157 -0.0268  0.9495
 7319TIP3   OH243371   2.829   0.627  16.584  0.0794 -0.0119  0.3561
 7319TIP3    H143372   2.917   0.656  16.609 -0.3380  0.3901  1.4385
 7319TIP3    H243373   2.806   0.682  16.508  0.3021  0.7379  0.8147
 7320TIP3   OH243374   6.074   4.928  15.844 -0.1959  0.1258  0.0591
 7320TIP3    H143375   6.124   4.881  15.911  1.1193  0.3556 -0.7174
 7320TIP3    H243376   6.048   4.861  15.781 -1.6440 -0.1300  0.8776
 7321TIP3   OH243377   5.639   0.216  16.623  0.3346 -0.3987  0.5381
 7321TIP3    H143378   5.734   0.212  16.633  0.4203 -0.1856 -0.1572
 7321TIP3    H243379   5.624   0.208  16.529 -0.2529  0.8156  0.5062
 7322TIP3   OH243380   0.736   1.130  16.181  0.5102 -0.0574 -0.4573
 7322TIP3    H143381   0.815   1.146  16.129 -0.2065 -0.6801 -1.8209
 7322TIP3    H243382   0.727   1.206  16.237  2.7128 -0.4957  0.5934
 7323TIP3   OH243383   4.283   1.180  14.173  0.7267  0.0595  0.2033
 7323TIP3    H143384   4.339   1.144  14.105 -1.5215 -1.0320 -1.1803
 7323TIP3    H243385   4.196   1.143  14.156 -0.1921  0.6095  3.0092
 7324TIP3   OH243386   4.519   3.970  17.224 -0.1943 -0.3333 -0.1132
 7324TIP3    H143387   4.468   3.913  17.167  2.2459 -1.8681 -0.9065
 7324TIP3    H243388   4.535   3.917  17.302  1.4250 -0.5091 -0.5243
 7325TIP3   OH243389   0.509   6.416  11.801 -0.6765  0.0365 -0.0112
 7325TIP3    H143390   0.533   6.333  11.840 -2.0364  0.1461  1.1119
 7325TIP3    H243391   0.570   6.479  11.839  0.1334 -0.3613 -0.6086
 7326TIP3   OH243392   4.577   2.683  16.349 -0.4600  0.7383  0.4125
 7326TIP3    H143393   4.526   2.642  16.419 -0.0307  0.3526  0.5080
 7326TIP3    H243394   4.660   2.636  16.350  0.7990  2.8042  1.7706
 7327TIP3   OH243395   6.290   4.546   0.933 -0.2328  0.6375  0.2200
 7327TIP3    H143396   6.283   4.586   0.846  0.6500 -1.1816 -0.7270
 7327TIP3    H243397   6.361   4.594   0.975  1.1114 -0.1653 -1.0581
 7328TIP3   OH243398   3.996   0.804   5.824 -0.2200  0.2507 -0.0372
 7328TIP3    H143399   3.986   0.895   5.797 -0.8643  0.6383  1.4182
 7328TIP3    H243400   4.053   0.808   5.901 -0.7090 -0.5037  0.3770
 7329TIP3   OH243401   1.313   3.205  15.366 -0.3440  0.4789 -0.0517
 7329TIP3    H143402   1.355   3.280  15.406  1.3146 -0.8523  0.8445
 7329TIP3    H243403   1.334   3.131  15.424 -0.8235 -0.8962 -1.5373
 7330TIP3   OH243404   2.632   1.091   4.308  0.0944 -0.1028 -0.5932
 7330TIP3    H143405   2.583   1.030   4.253 -1.8419  2.3973 -1.8392
 7330TIP3    H243406   2.690   1.137   4.248 -0.0710  0.7696 -0.1071
 7331TIP3   OH243407   5.743   2.005  11.576 -0.4851  0.3691  0.0259
 7331TIP3    H143408   5.807   1.988  11.507 -0.9731 -0.2813 -0.2822
 7331TIP3    H243409   5.769   1.947  11.648 -1.1882 -0.5165 -0.4080
 7332TIP3   OH243410   5.138   5.200  15.274  0.5006 -0.2092 -0.7197
 7332TIP3    H143411   5.198   5.136  15.312 -0.3035 -0.9609 -0.6741
 7332TIP3    H243412   5.086   5.230  15.348  0.8734  0.5054 -0.7437
 7333TIP3   OH243413   5.042   3.556  12.578 -0.7714  0.3176  0.4714
 7333TIP3    H143414   5.091   3.622  12.528 -1.7763 -0.1815 -1.2573
 7333TIP3    H243415   4.954   3.591  12.584 -0.8327  0.0365  1.3133
 7334TIP3   OH243416   1.570   4.525  16.773 -0.3222  0.0154 -0.3135
 7334TIP3    H143417   1.480   4.551  16.756 -0.4090 -0.5930 -0.7974
 7334TIP3    H243418   1.623   4.589  16.725 -0.5136 -0.0540 -0.6191
 7335TIP3   OH243419   4.880   2.053  16.268 -0.1947  0.1960  0.2366
 7335TIP3    H143420   4.848   2.040  16.179 -2.7983  1.7310  0.8544
 7335TIP3    H243421   4.826   1.995  16.321 -0.4296  1.1684  1.0831
 7336TIP3   OH243422   2.354   0.040   1.318 -0.0377  0.3191  0.0837
 7336TIP3    H143423   2.407   0.114   1.289 -0.2784  0.2332 -0.6102
 7336TIP3    H243424   2.416  -0.024   1.352  0.3080  0.2558 -0.6409
 7337TIP3   OH243425   1.424   4.583  15.580 -0.2482  0.0432 -0.7047
 7337TIP3    H143426   1.430   4.499  15.625  0.3380 -0.1738 -1.1763
 7337TIP3    H243427   1.407   4.560  15.489 -2.9597  0.4894 -0.4033
 7338TIP3   OH243428   1.942   1.128  17.053 -0.0233  0.2010  0.2258
 7338TIP3    H143429   1.886   1.082  17.115  0.4132  1.2767  1.4604
 7338TIP3    H243430   1.941   1.073  16.974 -0.6299 -1.1735  1.1576
 7339TIP3   OH243431   1.553   4.406   6.876  0.2962  0.0063  0.2235
 7339TIP3    H143432   1.562   4.328   6.930 -1.0094 -1.3370 -1.3960
 7339TIP3    H243433   1.642   4.441   6.869  0.6033 -0.1501  2.5889
 7340TIP3   OH243434   1.058   6.644   0.726  0.0073  0.3265 -0.1505
 7340TIP3    H143435   1.152   6.632   0.738 -0.3133 -1.2913  1.0494
 7340TIP3    H243436   1.047   6.738   0.715  1.5016  0.9082  2.5008
 7341TIP3   OH243437   5.705   2.948   3.324  0.5617 -0.0026 -0.1205
 7341TIP3    H143438   5.615   2.977   3.311  0.5700  1.4564  2.4128
 7341TIP3    H243439   5.742   2.944   3.236 -2.2459 -1.8019 -1.3675
 7342TIP3   OH243440   2.121   3.353  12.787 -0.1113 -0.0857  0.2522
 7342TIP3    H143441   2.052   3.399  12.738 -0.2612 -0.4102  0.1609
 7342TIP3    H243442   2.100   3.260  12.778 -0.0324 -0.1581  0.7818
 7343TIP3   OH243443   4.702   6.620   3.876  0.2495 -0.1344 -0.1366
 7343TIP3    H143444   4.706   6.637   3.781  3.3448 -2.5290 -0.5950
 7343TIP3    H243445   4.698   6.707   3.915 -0.4132  0.9569 -2.4232
 7344TIP3   OH243446   0.474   2.810  16.059  0.7075  0.2035 -0.2888
 7344TIP3    H143447   0.411   2.851  16.119  0.1268 -2.1347  0.8210
 7344TIP3    H243448   0.558   2.850  16.081  0.1699  0.8406  0.6804
 7345TIP3   OH243449   3.207   1.453  12.723 -0.0614  0.0331  0.4958
 7345TIP3    H143450   3.259   1.452  12.803 -0.0986 -1.2512  0.5306
 7345TIP3    H243451   3.117   1.439  12.753 -0.3011  1.1504  0.3453
 7346TIP3   OH243452   4.857   6.004  15.508  0.2038 -0.6719  0.4333
 7346TIP3    H143453   4.859   5.926  15.452 -3.1592 -0.2041 -0.5754
 7346TIP3    H243454   4.855   5.970  15.597 -1.6715 -1.8800  0.0060
 7347TIP3   OH243455   5.114   0.931   3.683  0.0566 -0.5669  0.7501
 7347TIP3    H143456   5.191   0.943   3.627  0.6783  0.7343  1.8136
 7347TIP3    H243457   5.149   0.928   3.772 -1.0993 -0.3047  1.2363
 7348TIP3   OH243458   0.924   1.450   1.496  0.3189  0.5462 -0.3730
 7348TIP3    H143459   1.015   1.477   1.490  0.2937  0.7984  0.3107
 7348TIP3    H243460   0.908   1.401   1.416  1.0575  0.4931 -0.4922
 7349TIP3   OH243461   5.271   5.421   0.911  0.0020 -0.1734  0.4573
 7349TIP3    H143462   5.210   5.387   0.845 -1.3528  0.2373  1.4506
 7349TIP3    H243463   5.317   5.492   0.868 -0.0907 -0.6030 -0.3694
 7350TIP3   OH243464   6.729   3.415   2.885 -0.6542 -0.8190 -0.1600
 7350TIP3    H143465   6.720   3.488   2.823 -0.8794 -1.5857 -1.0638
 7350TIP3    H243466   6.816   3.427   2.924 -1.3599  0.8759  0.9910
 7351TIP3   OH243467   2.922   6.137   6.135  0.4439 -0.1913  0.3107
 7351TIP3    H143468   2.850   6.137   6.071  0.3523  0.0293  0.4119
 7351TIP3    H243469   2.879   6.146   6.220  0.5708 -0.4192  0.3988
 7352TIP3   OH243470   0.401   4.693   4.917  0.0202  0.1570  0.0067
 7352TIP3    H143471   0.445   4.772   4.885 -0.8447 -0.0780 -1.8754
 7352TIP3    H243472   0.471   4.629   4.926  0.4782  0.6165 -0.2346
 7353TIP3   OH243473   0.828   5.750   1.396  0.2530 -0.0670 -0.0365
 7353TIP3    H143474   0.738   5.749   1.364  0.6365  0.3639 -1.1576
 7353TIP3    H243475   0.876   5.695   1.335  0.7236 -0.4429  0.6603
 7354TIP3   OH243476   3.818   6.346  12.731  0.2134  0.1890 -0.4365
 7354TIP3    H143477   3.777   6.345  12.645  3.1079  2.5171 -2.0343
 7354TIP3    H243478   3.814   6.437  12.759 -0.7708 -0.5141  2.0717
 7355TIP3   OH243479   2.493   1.874  17.001 -0.3994 -0.1963 -0.3946
 7355TIP3    H143480   2.402   1.846  17.012 -0.4369  0.0721  0.0123
 7355TIP3    H243481   2.503   1.947  17.061  0.0883 -0.2208 -0.4380
 7356TIP3   OH243482   0.521   0.154  14.726 -0.1269  0.2245  0.7220
 7356TIP3    H143483   0.496   0.086  14.663  1.5143  0.3333 -0.1052
 7356TIP3    H243484   0.567   0.106  14.795  1.2795  0.5031 -0.0021
 7357TIP3   OH243485   6.689   3.564   6.641  0.0106 -0.3651  0.2657
 7357TIP3    H143486   6.637   3.628   6.690 -1.1653 -0.1355 -1.2049
 7357TIP3    H243487   6.637   3.484   6.643 -0.5812 -0.0600 -1.4569
 7358TIP3   OH243488   5.742   1.844   5.586 -0.1838  0.0003  0.0890
 7358TIP3    H143489   5.834   1.865   5.599 -0.3969  1.3377 -0.3957
 7358TIP3    H243490   5.697   1.884   5.661 -0.2126 -2.1777  1.2970
 7359TIP3   OH243491   3.604   6.043   0.643  0.5950  0.0524 -0.5816
 7359TIP3    H143492   3.693   6.012   0.631  0.3095 -1.7035  1.1819
 7359TIP3    H243493   3.598   6.064   0.737 -1.0307 -0.5925 -0.5026
 7360TIP3   OH243494   4.723   1.108  17.251 -0.3012  0.2904  0.2450
 7360TIP3    H143495   4.663   1.051  17.299 -1.3902  1.7452  0.6790
 7360TIP3    H243496   4.691   1.105  17.160 -1.6123  1.7035  0.6168
 7361TIP3   OH243497   3.644   2.272   3.103  0.7831 -0.2392  0.0108
 7361TIP3    H143498   3.642   2.314   3.189 -1.2978 -1.6833  0.7521
 7361TIP3    H243499   3.558   2.231   3.095  1.4817 -1.4155 -2.1311
 7362TIP3   OH243500   4.611   4.673  12.678  0.0747 -0.3248  0.0073
 7362TIP3    H143501   4.548   4.719  12.622 -0.8628  0.2260  1.4647
 7362TIP3    H243502   4.604   4.717  12.763  2.9552  0.2357  0.0508
 7363TIP3   OH243503   1.292   3.881   5.794 -0.7727  0.1768 -0.0683
 7363TIP3    H143504   1.259   3.918   5.876  1.3664  0.0422  0.9158
 7363TIP3    H243505   1.380   3.918   5.785 -0.5633 -0.6489 -1.7628
 7364TIP3   OH243506   6.479   0.892   4.380  0.0780 -0.0126 -0.7163
 7364TIP3    H143507   6.445   0.921   4.296  0.5873  0.7363 -0.6711
 7364TIP3    H243508   6.440   0.805   4.394  2.4801 -1.6748 -3.2538
 7365TIP3   OH243509   1.347   0.322   5.712  0.3347  0.1940  0.6605
 7365TIP3    H143510   1.422   0.379   5.698 -0.1996  0.7060 -0.1599
 7365TIP3    H243511   1.309   0.352   5.794 -0.0779  1.1824  0.1248
 7366TIP3   OH243512   3.902   2.206   2.164 -0.0421 -0.8130 -0.3957
 7366TIP3    H143513   3.870   2.255   2.087  2.2044 -1.1672 -1.6176
 7366TIP3    H243514   3.958   2.268   2.210  1.0135 -1.5103 -0.7119
 7367TIP3   OH243515   2.907   0.427   2.414 -0.5703 -0.7463  0.2667
 7367TIP3    H143516   2.920   0.372   2.491  0.5160 -1.7294 -0.5776
 7367TIP3    H243517   2.844   0.378   2.360  0.2286 -1.0749 -0.3868
 7368TIP3   OH243518   6.016   4.237  11.083  0.0825 -0.3641 -0.3094
 7368TIP3    H143519   6.097   4.190  11.064  0.7272  0.8799 -0.7152
 7368TIP3    H243520   5.981   4.193  11.161  1.3680 -0.6356  0.1393
 7369TIP3   OH243521   4.731   0.799   1.520  0.2860 -0.1100  0.2033
 7369TIP3    H143522   4.676   0.761   1.589 -1.0641  0.6046 -0.4365
 7369TIP3    H243523   4.704   0.891   1.517  1.8753  0.3752  0.1842
 7370TIP3   OH243524   0.209   2.601   4.571 -0.4496 -0.1952 -0.2647
 7370TIP3    H143525   0.125   2.626   4.611 -0.0206 -0.9512  1.1369
 7370TIP3    H243526   0.264   2.678   4.583 -1.1177  0.5740 -1.8163
 7371TIP3   OH243527   1.520   4.237  13.704  0.1479  0.0831  0.2165
 7371TIP3    H143528   1.512   4.283  13.620 -0.0755 -0.5824 -0.1272
 7371TIP3    H243529   1.439   4.188  13.713 -0.0214  0.4906  1.0357
 7372TIP3   OH243530   1.397   3.314  11.003 -0.5614  0.0078 -0.1294
 7372TIP3    H143531   1.361   3.394  10.964 -1.5032  0.2427  1.1467
 7372TIP3    H243532   1.401   3.333  11.096  3.4885  0.2117 -0.1803
 7373TIP3   OH243533   1.885   0.387   4.496 -0.0135  0.4193  0.5212
 7373TIP3    H143534   1.911   0.393   4.404 -1.0151 -1.4544  0.0644
 7373TIP3    H243535   1.798   0.347   4.494  0.0266  0.1569  2.3070
 7374TIP3   OH243536   6.347   2.600  13.657  0.1980  0.0414 -0.3646
 7374TIP3    H143537   6.440   2.617  13.641 -0.0709  1.6164 -0.3943
 7374TIP3    H243538   6.341   2.584  13.751  1.0971 -4.6317 -0.8480
 7375TIP3   OH243539   1.717   0.570  13.140 -0.3499  0.8157  0.2692
 7375TIP3    H143540   1.720   0.608  13.228  1.1943  0.9745  0.1732
 7375TIP3    H243541   1.693   0.479  13.154 -2.1956  1.3167  0.6597
 7376TIP3   OH243542   6.700   5.549   3.554  0.7915 -0.4951 -0.0207
 7376TIP3    H143543   6.688   5.566   3.461 -0.9383 -1.9441 -0.1104
 7376TIP3    H243544   6.722   5.455   3.559  0.3231 -0.5651  1.0535
 7377TIP3   OH243545   6.076   3.384  15.811 -0.9022 -0.7552 -0.4418
 7377TIP3    H143546   6.135   3.349  15.878 -1.9845 -2.1262 -0.1687
 7377TIP3    H243547   6.063   3.476  15.837 -0.7117 -1.0593  0.7976
 7378TIP3   OH243548   3.832   5.641   4.812 -0.2929 -0.2422  0.1190
 7378TIP3    H143549   3.841   5.623   4.718  0.2095  0.3589  0.0479
 7378TIP3    H243550   3.743   5.612   4.833 -0.1933 -0.9492 -0.4077
 7379TIP3   OH243551   1.522   5.717   5.102 -0.4306  0.1302  0.0074
 7379TIP3    H143552   1.584   5.644   5.111  0.2296  0.8533  1.8982
 7379TIP3    H243553   1.551   5.781   5.167 -1.6762  1.6003 -0.8209
 7380TIP3   OH243554   5.388   4.678   2.251 -0.2210  0.0932  0.7070
 7380TIP3    H143555   5.375   4.601   2.195  0.7771  1.1488 -1.0689
 7380TIP3    H243556   5.482   4.697   2.243 -0.4368  1.4117  1.2003
 7381TIP3   OH243557   5.136   4.450   4.514 -0.2969 -0.0894 -0.1910
 7381TIP3    H143558   5.187   4.427   4.591 -0.5370 -0.2654 -0.0831
 7381TIP3    H243559   5.195   4.433   4.440  0.2195  0.8721 -0.0084
 7382TIP3   OH243560   4.334   3.288   1.164 -0.5827  0.1282  0.0472
 7382TIP3    H143561   4.363   3.198   1.173 -0.6322  0.1208  0.1306
 7382TIP3    H243562   4.292   3.292   1.078  0.7088  0.4205 -0.5837
 7383TIP3   OH243563   2.846   4.600   5.216  0.0098  0.2025  0.3986
 7383TIP3    H143564   2.767   4.545   5.212  0.2563 -0.5401  3.2357
 7383TIP3    H243565   2.917   4.538   5.230  0.6448  1.0834  1.1346
 7384TIP3   OH243566   0.953   1.891   3.360  0.0054  0.5327 -0.0223
 7384TIP3    H143567   1.013   1.954   3.320 -1.8209  1.2864 -1.7723
 7384TIP3    H243568   0.885   1.878   3.294 -1.0219 -1.3567  1.3085
 7385TIP3   OH243569   3.113   0.599   0.257 -0.3775 -0.2130  0.2112
 7385TIP3    H143570   3.037   0.542   0.242 -1.3754  0.9277  0.7728
 7385TIP3    H243571   3.145   0.573   0.343 -0.3137 -0.4897  0.1054
 7386TIP3   OH243572   1.949   4.616   5.362 -0.5135 -1.0205 -0.4166
 7386TIP3    H143573   1.989   4.644   5.444 -1.7954  3.5753 -1.0735
 7386TIP3    H243574   1.859   4.649   5.366 -1.8899 -4.1010 -2.1829
 7387TIP3   OH243575   6.116   6.026   3.036  0.2617  0.0590 -0.6658
 7387TIP3    H143576   6.155   5.991   3.117  1.1272  0.0073 -1.1023
 7387TIP3    H243577   6.069   5.951   2.999 -1.0628  0.3621  0.3345
 7388TIP3   OH243578   5.686   2.937  12.483  0.7303 -0.1014  0.1169
 7388TIP3    H143579   5.667   2.858  12.534 -1.0072  1.1182  1.4764
 7388TIP3    H243580   5.601   2.965  12.449  1.7793 -0.7881 -3.5152
 7389TIP3   OH243581   0.749   3.559   2.988 -0.5906  0.1080  0.3441
 7389TIP3    H143582   0.668   3.554   2.937 -0.5955 -0.2416  0.3835
 7389TIP3    H243583   0.755   3.650   3.015 -0.3768  0.3944 -0.6375
 7390TIP3   OH243584   2.922   2.002  14.356  0.6656 -0.1380  0.0199
 7390TIP3    H143585   2.976   1.932  14.318  0.2564  0.7361 -2.3325
 7390TIP3    H243586   2.985   2.057  14.402  1.4451 -0.4543 -0.6218
 7391TIP3   OH243587   6.453   2.863  15.453  0.1410 -0.1256 -0.1839
 7391TIP3    H143588   6.407   2.780  15.463 -0.2053  0.2459  1.6019
 7391TIP3    H243589   6.430   2.893  15.365 -0.1363 -1.6593 -0.6568
 7392TIP3   OH243590   5.279   3.486  16.456 -0.1577  0.1640 -0.3791
 7392TIP3    H143591   5.217   3.555  16.482  0.3809  0.7323 -0.5912
 7392TIP3    H243592   5.260   3.414  16.516  0.9829  1.4050  1.6032
 7393TIP3   OH243593   5.891   2.071  12.545 -0.6869  0.4318  0.1737
 7393TIP3    H143594   5.941   1.993  12.569 -0.7632  0.3752  0.1489
 7393TIP3    H243595   5.957   2.141  12.539 -0.7083  0.5274  0.9018
 7394TIP3   OH243596   6.301   2.189   0.056  0.1903 -0.3081  0.0578
 7394TIP3    H143597   6.343   2.140  -0.015  1.5560 -0.7395  1.1246
 7394TIP3    H243598   6.222   2.140   0.077  0.5712 -1.0136 -0.1487
 7395TIP3   OH243599   5.004   1.547   5.691  0.0290  0.1098  0.0155
 7395TIP3    H143600   5.012   1.458   5.656 -0.4168  0.0063  0.1675
 7395TIP3    H243601   4.931   1.542   5.752  1.8138 -0.1108  2.2602
 7396TIP3   OH243602   5.967   1.342   2.181  0.3189 -0.1073 -0.6971
 7396TIP3    H143603   5.884   1.301   2.207 -0.0967  1.0426 -0.1906
 7396TIP3    H243604   5.941   1.415   2.125  0.8135  1.8083  1.4306
 7397TIP3   OH243605   5.474   4.383   5.339  0.2803 -0.0218 -0.1516
 7397TIP3    H143606   5.422   4.417   5.411  0.5377  1.0182 -0.4303
 7397TIP3    H243607   5.507   4.461   5.294  0.8678 -0.6473 -0.8526
 7398TIP3   OH243608   4.537   5.244  16.711  0.3571  0.4730  0.3360
 7398TIP3    H143609   4.491   5.276  16.788 -0.2912  1.4458 -0.4273
 7398TIP3    H243610   4.484   5.274  16.637  0.0682 -1.7979 -0.4730
 7399TIP3   OH243611   4.782   2.361   3.079  0.8221 -0.0231  0.2259
 7399TIP3    H143612   4.705   2.410   3.110  0.6605 -0.3981  0.4162
 7399TIP3    H243613   4.835   2.427   3.034 -1.2124 -0.3555 -2.9327
 7400TIP3   OH243614   4.968   3.583   2.640  0.3115 -0.2585 -0.3517
 7400TIP3    H143615   4.977   3.674   2.669  0.9066 -0.0257 -1.2531
 7400TIP3    H243616   5.008   3.581   2.553  1.0578 -1.5633 -0.0022
 7401TIP3   OH243617   4.393   1.319  16.996 -0.4648 -0.1544 -0.0686
 7401TIP3    H143618   4.387   1.401  16.947  0.3527 -0.1444 -0.1579
 7401TIP3    H243619   4.337   1.333  17.073  1.1190  1.1849  0.9023
 7402TIP3   OH243620   5.863   5.009  15.041  0.3516  0.5158 -0.3526
 7402TIP3    H143621   5.799   5.079  15.025 -0.6545 -0.3648 -0.3102
 7402TIP3    H243622   5.900   4.990  14.955 -1.1225 -0.5188 -0.7912
 7403TIP3   OH243623   2.612   0.713   2.181  0.3154  0.5366  0.5576
 7403TIP3    H143624   2.697   0.736   2.145  0.4662  0.7795  1.0655
 7403TIP3    H243625   2.600   0.621   2.157  1.9167 -0.3330  2.7358
 7404TIP3   OH243626   5.208   0.665   4.949  0.1550  0.5443 -0.1194
 7404TIP3    H143627   5.130   0.631   4.993 -0.9634  2.2639 -0.6398
 7404TIP3    H243628   5.175   0.700   4.866  1.8723 -0.7040 -1.3943
 7405TIP3   OH243629   6.595   3.416  11.743 -0.1959  0.0794 -0.2805
 7405TIP3    H143630   6.685   3.385  11.744  0.5729  2.0727 -1.7199
 7405TIP3    H243631   6.567   3.413  11.835  1.3436 -0.4989  0.1925
 7406TIP3   OH243632   2.604   6.516  15.255 -0.1689 -0.0764 -0.5137
 7406TIP3    H143633   2.557   6.438  15.225 -0.2869  0.1010 -0.7912
 7406TIP3    H243634   2.668   6.535  15.187 -0.0069 -0.0456 -0.3545
 7407TIP3   OH243635   3.921   4.766   0.080  0.2980 -0.2340 -0.4319
 7407TIP3    H143636   3.929   4.782  -0.014  2.1126  1.2858 -0.0997
 7407TIP3    H243637   3.913   4.854   0.118 -0.7621 -0.8446  0.8234
 7408TIP3   OH243638   4.884   0.394   3.809  0.5493  0.2040 -0.3510
 7408TIP3    H143639   4.931   0.404   3.726  0.5352 -0.4517 -0.4395
 7408TIP3    H243640   4.824   0.469   3.812 -0.9495 -0.8682 -1.9298
 7409TIP3   OH243641   4.887   3.744  15.349  0.0419 -0.1498  0.2694
 7409TIP3    H143642   4.817   3.795  15.308  2.3477  2.3812 -0.8607
 7409TIP3    H243643   4.886   3.661  15.302 -0.5843  0.8137 -1.5452
 7410TIP3   OH243644   4.511   3.018  14.552 -0.3208  0.1264 -0.0079
 7410TIP3    H143645   4.561   2.969  14.618  2.1476  2.5591  0.1163
 7410TIP3    H243646   4.420   3.009  14.581  0.5736  0.6736  3.5598
 7411TIP3   OH243647   2.994   2.409  13.729  0.4206  0.2117  0.1781
 7411TIP3    H143648   2.966   2.355  13.655  1.9213  0.7736 -0.8448
 7411TIP3    H243649   3.078   2.446  13.701  1.6725 -0.5716  2.6586
 7412TIP3   OH243650   1.505   4.932   3.277 -0.5623  0.0305 -0.6400
 7412TIP3    H143651   1.565   4.868   3.316 -0.1930  0.3334 -0.7097
 7412TIP3    H243652   1.558   4.980   3.214 -1.6876 -1.9541 -3.2378
 7413TIP3   OH243653   0.854   0.030  12.326  0.1021  0.4305 -0.1811
 7413TIP3    H143654   0.816   0.009  12.240  0.2836 -1.3535  0.1368
 7413TIP3    H243655   0.780   0.027  12.386  0.4259 -1.4489  0.1832
 7414TIP3   OH243656   4.295   5.140   2.860 -0.3277 -0.8582 -0.0354
 7414TIP3    H143657   4.375   5.186   2.831  0.0651 -1.8855 -0.6322
 7414TIP3    H243658   4.326   5.054   2.887 -1.3061 -1.4400 -0.7351
 7415TIP3   OH243659   2.136   4.797   0.155 -0.7876  0.2265 -0.6212
 7415TIP3    H143660   2.149   4.855   0.080 -1.1927  1.0051 -0.0982
 7415TIP3    H243661   2.042   4.798   0.171 -0.8122 -0.6560 -0.6606
 7416TIP3   OH243662   1.808   0.977   1.465 -0.3364  0.3823  0.4117
 7416TIP3    H143663   1.902   0.961   1.462 -0.4426 -0.1661 -0.3139
 7416TIP3    H243664   1.783   0.960   1.556  0.4605  1.7257  0.9024
 7417TIP3   OH243665   4.629   1.154   5.239  0.5756 -0.0908  0.5192
 7417TIP3    H143666   4.675   1.215   5.296  0.4079  0.3693  0.1643
 7417TIP3    H243667   4.580   1.097   5.299 -2.8855  2.8896  0.8260
 7418TIP3   OH243668   2.362   4.464   1.987  0.0720  0.6836  0.2888
 7418TIP3    H143669   2.412   4.395   2.030  1.5032  0.9609 -0.8550
 7418TIP3    H243670   2.376   4.448   1.893 -3.7034 -0.5153 -0.2403
 7419TIP3   OH243671   6.622   4.652   2.944 -0.1413 -0.4401 -0.0790
 7419TIP3    H143672   6.638   4.745   2.961 -0.5462  0.0773 -2.2350
 7419TIP3    H243673   6.569   4.651   2.865 -2.1380 -2.4515  1.1653
 7420TIP3   OH243674   0.480   5.096   3.169 -0.1304 -0.5963 -0.2182
 7420TIP3    H143675   0.414   5.048   3.218  0.4668  0.3183  1.5919
 7420TIP3    H243676   0.563   5.068   3.206  0.2613  1.3303  0.4887
 7421TIP3   OH243677   4.568   1.604  11.779 -0.1126 -0.2751  0.1040
 7421TIP3    H143678   4.611   1.529  11.820  1.4902 -0.6910 -2.1683
 7421TIP3    H243679   4.638   1.669  11.768 -0.9621  0.6448 -0.0526
 7422TIP3   OH243680   3.695   2.907   1.380 -0.0061  0.1223  0.0776
 7422TIP3    H143681   3.731   2.934   1.464 -0.5022  1.0395  0.0132
 7422TIP3    H243682   3.696   2.987   1.327  2.7720 -0.9932 -1.7249
 7423TIP3   OH243683   4.627   1.347   0.959  0.0143 -0.2901  0.2582
 7423TIP3    H143684   4.676   1.360   1.040  1.5142 -0.4751 -0.5847
 7423TIP3    H243685   4.557   1.412   0.963  1.3608  1.1986  0.7228
 7424TIP3   OH243686   5.849   0.910   2.294 -0.1548  0.1165 -0.3888
 7424TIP3    H143687   5.753   0.900   2.296 -0.0280 -1.4152 -0.5455
 7424TIP3    H243688   5.863   1.004   2.284 -1.6224  0.4808  0.6232
 7425TIP3   OH243689   5.235   5.736   2.026 -0.1039 -0.4911  0.0539
 7425TIP3    H143690   5.330   5.729   2.032  0.0236  0.3240 -0.7907
 7425TIP3    H243691   5.213   5.696   1.942 -0.2798  1.0116 -0.6568
 7426TIP3   OH243692   6.569   1.753  14.125  0.6517 -0.1360  0.4586
 7426TIP3    H143693   6.567   1.846  14.149 -1.2537 -0.0712  0.2103
 7426TIP3    H243694   6.478   1.732  14.105  1.0021 -2.1533  0.8272
 7427TIP3   OH243695   4.402   0.797  14.079 -0.0729 -0.2338 -0.1736
 7427TIP3    H143696   4.355   0.830  14.156  0.3699  0.3749 -0.1576
 7427TIP3    H243697   4.385   0.703  14.080 -1.8977  0.0510 -0.5827
 7428TIP3   OH243698   4.063   6.357   2.618 -0.3528 -0.2968  0.9819
 7428TIP3    H143699   4.155   6.349   2.642 -0.3117 -0.1867  0.8577
 7428TIP3    H243700   4.038   6.269   2.589  0.2918  0.1638 -1.0813
 7429TIP3   OH243701   0.797   0.094  15.755 -0.1933 -0.4708  0.7755
 7429TIP3    H143702   0.719   0.149  15.754 -0.4329 -0.8186  0.5446
 7429TIP3    H243703   0.820   0.088  15.848 -1.1810 -1.4115  0.9834
 7430TIP3   OH243704   0.383   3.016  16.898  0.6467 -0.6306 -0.6385
 7430TIP3    H143705   0.383   2.929  16.857  0.9666 -0.2524 -1.4563
 7430TIP3    H243706   0.465   3.020  16.946  1.2171 -0.3140 -1.6228
 7431TIP3   OH243707   4.193   4.030  16.762 -0.8119  0.2109  0.4051
 7431TIP3    H143708   4.143   3.951  16.745 -0.3963 -0.0643  0.4372
 7431TIP3    H243709   4.269   4.000  16.813 -0.5948  0.6108  0.3233
 7432TIP3   OH243710   5.281   5.562   3.310 -0.7520  0.4597  0.8950
 7432TIP3    H143711   5.349   5.612   3.265 -0.5295  0.1321  0.8618
 7432TIP3    H243712   5.329   5.498   3.362 -1.0588 -1.0738 -0.6319
 7433TIP3   OH243713   5.232   4.132  15.352 -0.4306  0.2154  0.2076
 7433TIP3    H143714   5.276   4.085  15.423 -0.7047 -0.5257 -0.0940
 7433TIP3    H243715   5.278   4.215  15.345 -0.6460  0.4632  1.5027
 7434TIP3   OH243716   4.261   2.395   3.684 -0.1637 -0.4469 -0.2331
 7434TIP3    H143717   4.241   2.449   3.607 -3.4451 -0.3532  0.5525
 7434TIP3    H243718   4.293   2.457   3.749  0.4794 -0.1810 -0.7938
 7435TIP3   OH243719   0.785   1.907   0.752 -0.0733 -0.6629 -0.2906
 7435TIP3    H143720   0.764   1.917   0.845  0.1279  0.9589 -0.3922
 7435TIP3    H243721   0.861   1.849   0.751 -0.5365 -1.2938  0.5042
 7436TIP3   OH243722   2.458   2.204  12.808 -0.2446 -0.1810 -0.2876
 7436TIP3    H143723   2.521   2.244  12.748  0.2777 -0.4733  0.0585
 7436TIP3    H243724   2.434   2.121  12.767  0.6247 -0.6934  0.2230
 7437TIP3   OH243725   1.916   0.361   3.557 -0.3998  0.0942 -0.2477
 7437TIP3    H143726   1.878   0.300   3.494 -1.0015  0.4230 -0.2104
 7437TIP3    H243727   2.010   0.363   3.536 -0.6007  0.2185 -1.1441
 7438TIP3   OH243728   5.924   2.058   1.011  0.5625 -0.0165  0.7355
 7438TIP3    H143729   5.936   2.005   1.090  1.3366  0.8003  1.1961
 7438TIP3    H243730   6.010   2.095   0.994  1.1086 -2.2315 -2.0678
 7439TIP3   OH243731   0.254   4.910  15.720 -0.1778 -0.5700 -0.5565
 7439TIP3    H143732   0.210   4.932  15.638  0.2760 -1.1440 -0.9593
 7439TIP3    H243733   0.275   4.817  15.713  0.6678 -0.4228 -0.1749
 7440TIP3   OH243734   3.888   2.725  14.472  0.1524 -0.4994 -0.3066
 7440TIP3    H143735   3.974   2.683  14.474 -0.1847 -1.1848  0.9468
 7440TIP3    H243736   3.886   2.773  14.389  1.4741 -1.0240 -0.6591
 7441TIP3   OH243737   0.399   5.292  16.242  0.0623 -0.1736 -0.2691
 7441TIP3    H143738   0.463   5.309  16.172 -0.8634 -0.4834 -1.2259
 7441TIP3    H243739   0.321   5.341  16.215 -0.8214 -1.5111 -0.2519
 7442TIP3   OH243740   4.934   1.143   4.097 -0.4061  0.4879 -0.0851
 7442TIP3    H143741   4.901   1.073   4.040  0.6351  0.6345 -0.8842
 7442TIP3    H243742   4.918   1.110   4.185  0.8959 -1.1984 -0.4238
 7443TIP3   OH243743   5.872   0.646  17.322 -0.2436 -0.0205 -0.4981
 7443TIP3    H143744   5.903   0.616  17.236 -0.2164 -0.5117 -0.3220
 7443TIP3    H243745   5.777   0.640  17.316 -0.2070 -1.3913 -0.0346
 7444TIP3   OH243746   5.153   4.640  12.820  0.6201  0.2140 -0.1598
 7444TIP3    H143747   5.227   4.589  12.852 -0.5775 -0.3110  2.0064
 7444TIP3    H243748   5.118   4.589  12.748  0.5694 -1.1278  0.7757
 7445TIP3   OH243749   2.759   0.742  16.334 -0.0530  0.1830 -0.1453
 7445TIP3    H143750   2.750   0.836  16.348  0.1415  0.0626  0.8297
 7445TIP3    H243751   2.811   0.735  16.254 -0.9090  0.8891 -0.7834
 7446TIP3   OH243752   2.651   0.887  12.475 -0.1203 -0.3983  0.0353
 7446TIP3    H143753   2.681   0.798  12.456  0.4786 -0.6252  1.8469
 7446TIP3    H243754   2.697   0.911  12.555 -1.1969  1.0936  0.2433
 7447TIP3   OH243755   2.225   4.902   2.246 -0.0166 -0.7694  0.1765
 7447TIP3    H143756   2.262   4.879   2.331  1.4301 -1.2189 -0.5395
 7447TIP3    H243757   2.214   4.997   2.249  0.2781 -0.7504  0.7723
 7448TIP3   OH243758   2.177   0.628   3.720 -0.1409  0.2667 -0.4053
 7448TIP3    H143759   2.136   0.565   3.779  0.0828  0.5092  0.0112
 7448TIP3    H243760   2.200   0.702   3.776  0.6131  0.2495 -0.6900
 7449TIP3   OH243761   2.238   6.553  14.364 -0.3198  0.0694  0.7394
 7449TIP3    H143762   2.203   6.641  14.382 -0.9917 -0.2830  1.2135
 7449TIP3    H243763   2.253   6.553  14.269 -2.7293 -0.1087  0.2719
 7450TIP3   OH243764   4.986   6.394   3.694  0.3943 -0.0857 -0.2824
 7450TIP3    H143765   4.899   6.356   3.708 -0.3308  1.6747  0.3791
 7450TIP3    H243766   5.040   6.355   3.763 -0.0440 -0.7087 -0.2842
 7451TIP3   OH243767   1.682   6.148   1.729 -0.3052  0.6678  0.4159
 7451TIP3    H143768   1.589   6.163   1.743 -0.2113  0.0168  1.9404
 7451TIP3    H243769   1.686   6.076   1.666 -0.8397  0.1413  0.9763
 7452TIP3   OH243770   2.520   4.228   3.589 -0.5915  0.7623 -0.3908
 7452TIP3    H143771   2.590   4.281   3.625 -0.7971 -0.3392  1.7661
 7452TIP3    H243772   2.442   4.255   3.637 -0.9472 -0.5418 -0.1966
 7453TIP3   OH243773   5.277   1.057   4.309  0.2990  0.6706  0.1041
 7453TIP3    H143774   5.212   1.127   4.324  1.2050  1.3083  1.1765
 7453TIP3    H243775   5.287   1.015   4.395 -0.7732 -1.3036 -0.6759
 7454TIP3   OH243776   5.962   3.850  13.225  0.2371 -0.3098 -0.0878
 7454TIP3    H143777   6.049   3.869  13.190  1.3302 -1.4752  1.7572
 7454TIP3    H243778   5.962   3.754  13.236 -0.3398 -0.1073  2.0906
 7455TIP3   OH243779   4.935   4.111  16.227  0.5176 -0.2006 -0.6614
 7455TIP3    H143780   4.966   4.050  16.294  0.3008 -2.0848 -2.1724
 7455TIP3    H243781   4.956   4.068  16.144  1.2207  2.2619 -1.8610
 7456TIP3   OH243782   4.675   1.011   0.236  0.7484  0.5284  0.1217
 7456TIP3    H143783   4.735   0.961   0.293  0.7963 -0.4552 -0.7572
 7456TIP3    H243784   4.597   1.024   0.289  0.0220 -2.0740 -0.1827
 7457TIP3   OH243785   0.688   4.183   0.728 -0.0339  0.6799  0.0304
 7457TIP3    H143786   0.776   4.181   0.765  0.3415  0.2312 -0.8710
 7457TIP3    H243787   0.631   4.168   0.804  0.7817 -1.6111  0.2862
 7458TIP3   OH243788   4.179   1.717   1.391 -0.9226  0.5618 -0.1315
 7458TIP3    H143789   4.093   1.680   1.373 -0.3539 -1.1421  0.4216
 7458TIP3    H243790   4.235   1.685   1.320 -0.0952 -0.9700  1.1245
 7459TIP3   OH243791   1.431   1.102  11.752  0.6078  0.0219 -0.1265
 7459TIP3    H143792   1.356   1.160  11.758  0.2639 -0.4677  0.4871
 7459TIP3    H243793   1.487   1.127  11.826  0.9514  0.2494 -0.4606
 7460TIP3   OH243794   6.703   4.615  12.212  0.3841  0.4976 -0.1729
 7460TIP3    H143795   6.756   4.684  12.172  1.0280 -0.6971 -1.4687
 7460TIP3    H243796   6.723   4.619  12.305  1.2905  1.3116 -0.3947
 7461TIP3   OH243797   5.869   5.975  16.383 -0.1837 -0.2875  0.1617
 7461TIP3    H143798   5.895   5.886  16.360 -1.9273 -1.1217  1.2689
 7461TIP3    H243799   5.896   5.985  16.474 -0.1363  0.2815  0.0934
 7462TIP3   OH243800   3.381   5.394   2.955  0.4022  0.0582 -0.1382
 7462TIP3    H143801   3.465   5.436   2.972  0.2887  0.7259 -1.1416
 7462TIP3    H243802   3.380   5.380   2.860 -1.1303  1.2223 -0.3356
 7463TIP3   OH243803   4.779   3.503  14.324  0.0250  0.3197 -0.1757
 7463TIP3    H143804   4.766   3.408  14.332  1.1426  0.0843 -0.8724
 7463TIP3    H243805   4.712   3.531  14.262 -0.1789 -0.0492 -0.1279
 7464TIP3   OH243806   5.328   0.303  13.108  0.7579  0.3032  0.1910
 7464TIP3    H143807   5.308   0.214  13.137 -1.3410  0.4266 -0.7151
 7464TIP3    H243808   5.280   0.313  13.026 -1.0498  3.0391  1.4377
 7465TIP3   OH243809   0.526   4.465  13.369  0.1255  0.4607 -0.2147
 7465TIP3    H143810   0.621   4.452  13.369  0.2609  1.4182 -0.1084
 7465TIP3    H243811   0.497   4.426  13.452 -0.2614 -4.2475 -2.2404
 7466TIP3   OH243812   6.655   3.150   0.682  0.1985  0.0983  0.9694
 7466TIP3    H143813   6.577   3.110   0.720 -0.4660  0.9406  0.5202
 7466TIP3    H243814   6.716   3.078   0.672 -1.6200 -1.2198 -1.6052
 7467TIP3   OH243815   3.633   3.052   4.557  0.2455 -0.6634 -0.0058
 7467TIP3    H143816   3.673   3.138   4.569  1.0891 -1.1673  0.9577
 7467TIP3    H243817   3.665   3.023   4.471 -0.3194  0.1106 -0.4906
 7468TIP3   OH243818   4.518   4.866  16.881 -0.2772  0.1973 -0.0436
 7468TIP3    H143819   4.460   4.920  16.934  0.5178 -0.3504  1.4604
 7468TIP3    H243820   4.604   4.906  16.891  0.3187 -1.2862  1.0834
 7469TIP3   OH243821   1.386   6.017  17.205  0.3197  0.1697  0.6631
 7469TIP3    H143822   1.371   6.000  17.112  0.3122  0.4344  0.6163
 7469TIP3    H243823   1.333   6.094  17.224  0.0168 -0.1165  0.9766
 7470TIP3   OH243824   0.550   5.086  13.759  0.0892 -0.3798  0.8358
 7470TIP3    H143825   0.605   5.109  13.834 -0.9732 -1.2120  1.8992
 7470TIP3    H243826   0.609   5.038  13.701  1.1246  0.9358  0.7432
 7471TIP3   OH243827   6.724   4.414  12.016 -0.1297  0.0331 -0.0455
 7471TIP3    H143828   6.704   4.323  12.040  0.3717  0.2755  1.4096
 7471TIP3    H243829   6.812   4.429  12.052 -0.0771  0.9889 -0.5599
 7472TIP3   OH243830   2.597   2.622  12.827  0.1384  0.2532 -0.5005
 7472TIP3    H143831   2.674   2.611  12.771 -0.4559  0.8280 -1.4487
 7472TIP3    H243832   2.522   2.609  12.769 -0.5109 -1.4132  0.6351
 7473TIP3   OH243833   4.122   2.649   1.963 -0.1933 -0.1952  0.2848
 7473TIP3    H143834   4.103   2.670   2.055 -1.0464 -1.2820  0.3740
 7473TIP3    H243835   4.092   2.558   1.952  0.9119 -0.4614 -0.7785
 7474TIP3   OH243836   2.713   3.515   3.264  0.1332  0.7229 -0.9302
 7474TIP3    H143837   2.723   3.578   3.192  1.0596 -1.4310 -2.8192
 7474TIP3    H243838   2.626   3.477   3.251  0.5210 -0.0680 -1.2861
 7475TIP3   OH243839   1.110   3.052  11.909 -0.2501  0.3787 -0.2507
 7475TIP3    H143840   1.124   3.087  11.821  2.3976  0.0854 -0.0368
 7475TIP3    H243841   1.077   2.963  11.894  0.0630  0.3725 -0.9530
 7476TIP3   OH243842   6.537   1.195   3.206 -0.1239  0.0690 -0.1822
 7476TIP3    H143843   6.583   1.125   3.160 -1.3770  0.7369 -2.6297
 7476TIP3    H243844   6.603   1.264   3.216  0.0318  0.1695 -1.6753
 7477TIP3   OH243845   0.982   1.680  16.374  0.2989  0.3830  0.3947
 7477TIP3    H143846   1.062   1.642  16.337  1.4461  1.7645  1.3704
 7477TIP3    H243847   1.011   1.760  16.417 -1.4955  0.4880  1.4956
 7478TIP3   OH243848   1.871   4.993  13.668 -0.3167 -0.2847  0.4502
 7478TIP3    H143849   1.811   4.919  13.658 -1.5211  0.3072  2.7014
 7478TIP3    H243850   1.832   5.062  13.615 -0.0154 -0.7496 -0.4115
 7479TIP3   OH243851   3.631   6.550   3.122 -0.3045  0.1718  0.0263
 7479TIP3    H143852   3.624   6.459   3.091  0.7650 -0.3106  1.1475
 7479TIP3    H243853   3.552   6.563   3.174 -2.2445  1.0536 -2.8573
 7480TIP3   OH243854   0.969   4.510   0.109  0.3490 -0.3168 -0.2094
 7480TIP3    H143855   1.024   4.496   0.186  0.1900 -0.8001 -0.1801
 7480TIP3    H243856   0.884   4.537   0.144  0.8402  1.4494 -0.2832
 7481TIP3   OH243857   5.920   6.175   0.658  0.2158 -0.1188  0.0112
 7481TIP3    H143858   5.907   6.117   0.733 -1.8872 -2.4781 -1.9963
 7481TIP3    H243859   5.847   6.236   0.662  1.6683  1.6529  1.3442
 7482TIP3   OH243860   1.940   4.949   2.831 -0.3105 -0.4103 -0.1269
 7482TIP3    H143861   1.937   5.035   2.872 -0.1327 -0.3673 -0.2020
 7482TIP3    H243862   1.962   4.966   2.739  2.2377 -0.6740  0.3669
 7483TIP3   OH243863   6.352   2.156   2.599  0.1687  0.1940  0.4112
 7483TIP3    H143864   6.437   2.180   2.562 -0.1889  1.2317  0.2278
 7483TIP3    H243865   6.360   2.174   2.692  1.0524 -2.3735  0.9228
 7484TIP3   OH243866   0.979   1.875  12.103 -0.4031  0.6720  0.4621
 7484TIP3    H143867   1.064   1.906  12.075 -0.3736  0.2267  0.0410
 7484TIP3    H243868   0.975   1.896  12.197 -1.3844  4.2098 -0.2253
 7485TIP3   OH243869   1.523   2.086  12.479 -0.5338 -0.0247  0.1018
 7485TIP3    H143870   1.460   2.158  12.488 -1.5598 -0.7760 -0.8009
 7485TIP3    H243871   1.583   2.099  12.552 -2.0975  0.3782  1.3979
 7486TIP3   OH243872   5.327   2.588   2.475 -0.0380 -0.4051 -0.5234
 7486TIP3    H143873   5.421   2.601   2.464 -0.1234 -0.5799 -1.5040
 7486TIP3    H243874   5.316   2.580   2.570  0.5342  2.4993 -0.1152
 7487TIP3   OH243875   2.668   0.664  10.588 -0.0695 -0.5185  0.1314
 7487TIP3    H143876   2.627   0.597  10.642 -0.7502  0.2641  0.6099
 7487TIP3    H243877   2.628   0.653  10.501  0.4318 -1.2569 -0.0079
 7488TIP3   OH243878   3.560   2.861   3.544 -0.4932  0.6239  0.0801
 7488TIP3    H143879   3.528   2.937   3.496 -2.7891  0.1364  0.7055
 7488TIP3    H243880   3.613   2.898   3.615 -0.4488  1.5583 -0.4291
 7489TIP3   OH243881   3.272   1.204   3.221 -0.6088 -0.0235 -0.0665
 7489TIP3    H143882   3.285   1.129   3.279  1.5101 -0.2194 -0.7213
 7489TIP3    H243883   3.225   1.268   3.275  0.1598 -0.6859  1.4510
 7490TIP3   OH243884   1.751   5.901   2.851  0.1870  0.1030 -0.4123
 7490TIP3    H143885   1.798   5.963   2.907 -1.4476  1.6030 -0.6342
 7490TIP3    H243886   1.790   5.816   2.872  0.5003  0.7732  2.0688
 7491TIP3   OH243887   2.709   4.291   0.242  0.0095  0.2508 -0.5035
 7491TIP3    H143888   2.617   4.311   0.221 -1.3052 -2.0761  2.3260
 7491TIP3    H243889   2.716   4.307   0.336  1.9673 -1.4154 -0.3037
 7492TIP3   OH243890   6.538   2.672   3.399  0.0468  0.4416 -0.3124
 7492TIP3    H143891   6.560   2.584   3.429  0.1813  0.9154  1.0524
 7492TIP3    H243892   6.449   2.665   3.366 -1.1818  0.4299  2.7689
 7493TIP3   OH243893   5.407   6.247   6.189  0.1397  0.0251  0.2675
 7493TIP3    H143894   5.358   6.321   6.153 -0.0274 -0.1081  0.2229
 7493TIP3    H243895   5.499   6.268   6.171  0.2626  1.1998  2.0252
 7494TIP3   OH243896   1.679   2.231   1.957  0.4761  0.0625  0.4147
 7494TIP3    H143897   1.730   2.310   1.944  0.9041 -0.2326  0.2674
 7494TIP3    H243898   1.717   2.167   1.896  2.6608 -1.4164  3.1096
 7495TIP3   OH243899   5.598   6.695   5.969  0.5659 -0.5787  0.1350
 7495TIP3    H143900   5.532   6.627   5.950 -0.0275 -0.0084  0.1266
 7495TIP3    H243901   5.594   6.706   6.064 -0.8104  0.8873 -0.0586
 7496TIP3   OH243902   1.164   0.128   4.215  0.3050 -0.4193  0.9054
 7496TIP3    H143903   1.163   0.042   4.258  2.8151 -1.0456 -0.1009
 7496TIP3    H243904   1.184   0.109   4.124 -0.0466  1.1994  0.4601
 7497TIP3   OH243905   4.487   1.859  14.654 -0.0028 -0.1000  0.0325
 7497TIP3    H143906   4.571   1.818  14.637  0.2758  0.5229 -0.0981
 7497TIP3    H243907   4.494   1.947  14.616 -0.2749  0.3903  1.0640
 7498TIP3   OH243908   4.254   1.847  16.268 -0.2362 -0.0919 -0.2173
 7498TIP3    H143909   4.158   1.838  16.267 -0.6003  1.8782  3.1230
 7498TIP3    H243910   4.269   1.940  16.257  1.3955 -0.4102 -0.9136
 7499TIP3   OH243911   1.059   1.770  12.890 -0.1588 -0.2211 -0.2357
 7499TIP3    H143912   0.966   1.783  12.869 -0.2224 -0.4816 -0.1102
 7499TIP3    H243913   1.065   1.680  12.921 -0.4669  0.7745  3.0597
 7500TIP3   OH243914   3.473   6.726  15.498 -0.2301 -0.0010 -0.3993
 7500TIP3    H143915   3.399   6.665  15.508 -1.1897  1.1632 -0.1966
 7500TIP3    H243916   3.478   6.771  15.583 -0.6555  1.4086 -1.0958
 7501TIP3   OH243917   2.362   5.072   3.814  0.4275  0.4217  0.1153
 7501TIP3    H143918   2.427   5.014   3.853  2.3696  1.6489 -1.0779
 7501TIP3    H243919   2.393   5.160   3.836 -1.1061  1.0397 -0.1051
 7502TIP3   OH243920   5.026   2.617   2.461 -0.6791 -0.0547  0.2671
 7502TIP3    H143921   5.120   2.600   2.463 -0.8012 -0.9238 -0.9221
 7502TIP3    H243922   5.019   2.713   2.459  0.2569  0.0231 -1.9289
 7503TIP3   OH243923   6.671   1.575  15.271  0.1471  0.5907  0.0938
 7503TIP3    H143924   6.702   1.566  15.181 -0.5505  0.6743 -0.1579
 7503TIP3    H243925   6.744   1.616  15.317  0.2197  1.2836 -0.6106
 7504TIP3   OH243926   3.798   0.016  10.697  0.0847  0.0271 -0.4906
 7504TIP3    H143927   3.838  -0.003  10.782 -1.3315 -0.3030  0.1177
 7504TIP3    H243928   3.841  -0.046  10.637  2.6346  1.6769 -0.5032
 7505TIP3   OH243929   1.908   2.930   0.318 -0.0721 -0.3299  0.4597
 7505TIP3    H143930   1.951   2.845   0.315  0.9867  0.1947 -0.0267
 7505TIP3    H243931   1.840   2.922   0.385 -2.2309 -2.5747 -1.7805
 7506TIP3   OH243932   4.556   5.574  14.381  0.3545  0.2282  0.3428
 7506TIP3    H143933   4.589   5.520  14.309 -0.2748  0.4266 -0.1054
 7506TIP3    H243934   4.551   5.513  14.455 -0.8842 -0.5114 -0.2964
 7507TIP3   OH243935   2.403   3.159  14.660  0.4308  0.1801 -0.6305
 7507TIP3    H143936   2.392   3.252  14.639  0.8123  0.2915 -0.3474
 7507TIP3    H243937   2.344   3.143  14.732  0.8263  0.3589 -0.2617
 7508TIP3   OH243938   4.638   3.396  16.065  0.4408 -0.0534  0.0806
 7508TIP3    H143939   4.556   3.350  16.082  0.4255  0.5166  1.6531
 7508TIP3    H243940   4.650   3.388  15.970 -0.7702 -1.2311 -0.0115
 7509TIP3   OH243941   3.154   5.264  10.993 -0.3179 -0.3394 -0.1562
 7509TIP3    H143942   3.134   5.357  10.994  0.8535  0.0454 -2.9812
 7509TIP3    H243943   3.074   5.223  10.958 -1.6625 -0.7807  3.0871
 7510TIP3   OH243944   4.647   0.650   3.362  0.0094 -0.3277  0.0778
 7510TIP3    H143945   4.670   0.677   3.273 -0.4365  1.1912  0.4062
 7510TIP3    H243946   4.726   0.667   3.413 -0.4038  0.7985  0.3651
 7511TIP3   OH243947   4.525   4.592  15.046  0.2060 -0.1193 -0.9217
 7511TIP3    H143948   4.567   4.506  15.039  0.6625  0.2022 -2.7244
 7511TIP3    H243949   4.597   4.655  15.040 -0.2514  0.3960 -1.1394
 7512TIP3   OH243950   3.679   1.663   2.332  0.0418 -0.2996  0.1091
 7512TIP3    H143951   3.687   1.739   2.389  0.7375 -1.2065  1.2774
 7512TIP3    H243952   3.765   1.656   2.289 -0.1587 -0.1909 -0.3181
 7513TIP3   OH243953   0.892   5.593   0.316  0.2762  0.9083 -0.0071
 7513TIP3    H143954   0.923   5.539   0.388  0.4752  0.0479 -0.7264
 7513TIP3    H243955   0.799   5.607   0.333  0.2485  0.4182  0.2310
 7514TIP3   OH243956   4.757   5.662   5.873  0.4255  0.5956  0.3831
 7514TIP3    H143957   4.833   5.603   5.871  0.7418  0.8288  2.7915
 7514TIP3    H243958   4.767   5.717   5.795  2.8689  0.7599  0.7361
 7515TIP3   OH243959   3.755   4.236   3.951  0.7378 -0.1082 -0.0007
 7515TIP3    H143960   3.736   4.329   3.966  0.6510 -0.3562  1.6537
 7515TIP3    H243961   3.807   4.235   3.871  1.3697  1.4564  0.3471
 7516TIP3   OH243962   4.331   0.272   3.561 -0.3008  0.6378 -0.5672
 7516TIP3    H143963   4.421   0.242   3.579 -0.1021 -0.4038 -2.8433
 7516TIP3    H243964   4.339   0.323   3.480 -1.5897  1.6393 -0.0882
 7517TIP3   OH243965   2.644   2.047  11.090  0.0262 -0.4627  0.0137
 7517TIP3    H143966   2.601   2.121  11.131  1.1951 -0.4340  1.2903
 7517TIP3    H243967   2.677   2.080  11.007 -0.2228  0.2052  0.1811
 7518TIP3   OH243968   3.829   0.010   1.115 -0.2422  0.2820  0.3217
 7518TIP3    H143969   3.774  -0.036   1.179  1.7186 -0.2183  1.7406
 7518TIP3    H243970   3.907  -0.046   1.106  0.9540  1.9361 -0.0445
 7519TIP3   OH243971   4.816   1.219  11.702  0.3691 -0.1439  0.1144
 7519TIP3    H143972   4.861   1.155  11.756  1.7239 -0.0116 -0.7907
 7519TIP3    H243973   4.849   1.204  11.613  0.4183  1.5131 -0.1934
 7520TIP3   OH243974   3.484   2.042  13.410 -0.0478 -0.8724 -0.1970
 7520TIP3    H143975   3.552   2.108  13.400 -0.8355 -0.0285 -0.1603
 7520TIP3    H243976   3.482   2.023  13.504 -0.0640 -0.6740 -0.1570
 7521TIP3   OH243977   3.455   6.107  12.422  0.2143 -0.7196 -0.4398
 7521TIP3    H143978   3.480   6.023  12.458 -0.9496 -1.3734 -1.1058
 7521TIP3    H243979   3.379   6.088  12.366  1.7279  0.2433 -3.0246
 7522TIP3   OH243980   1.398   3.202   6.278 -0.0461 -0.0627 -1.1693
 7522TIP3    H143981   1.392   3.194   6.374  0.2254  1.0148 -1.0441
 7522TIP3    H243982   1.479   3.251   6.264 -1.0132  1.3876 -1.8544
 7523TIP3   OH243983   2.283   3.256   4.364 -0.5411 -0.2824 -0.4806
 7523TIP3    H143984   2.295   3.200   4.441  0.4120  2.5711  1.6058
 7523TIP3    H243985   2.245   3.337   4.399 -1.0082  0.7749 -3.1999
 7524TIP3   OH243986   3.965   1.199  16.869 -0.7738 -0.4354  0.0743
 7524TIP3    H143987   4.013   1.264  16.920  0.6679 -0.7077 -0.8571
 7524TIP3    H243988   3.944   1.130  16.932  0.7519 -0.6587  0.3798
 7525TIP3   OH243989   2.697   3.445  12.155 -0.3029  0.2047 -0.0554
 7525TIP3    H143990   2.685   3.434  12.061 -2.3798 -1.5261  0.3515
 7525TIP3    H243991   2.632   3.388  12.195  1.2890 -0.0153  2.4669
 7526TIP3   OH243992   4.367   3.812  12.911  0.1205 -0.1738 -0.0568
 7526TIP3    H143993   4.433   3.874  12.943  0.7964 -0.2098 -1.3102
 7526TIP3    H243994   4.291   3.826  12.967  1.5204 -0.8420  2.0941
 7527TIP3   OH243995   4.990   0.910  13.973  0.6940 -0.3969  0.1381
 7527TIP3    H143996   4.977   1.000  13.941  0.9864 -0.7294 -0.9699
 7527TIP3    H243997   4.953   0.910  14.061  0.1381  0.6526 -0.0789
 7528TIP3   OH243998   6.550   0.343  17.089 -0.2474  0.1997 -0.4171
 7528TIP3    H143999   6.586   0.417  17.137 -0.8707 -0.4190  1.0777
 7528TIP3    H244000   6.625   0.307  17.041  0.3929  0.8604  0.0689
 7529TIP3   OH244001   0.808   5.699  16.989  0.1321 -0.4044  0.1152
 7529TIP3    H144002   0.864   5.621  16.993  1.0458  0.2431  0.1394
 7529TIP3    H244003   0.749   5.689  17.063  0.2749 -1.0480  0.1536
 7530TIP3   OH244004   2.873   1.378  15.723 -0.3394 -0.0670  0.1351
 7530TIP3    H144005   2.934   1.451  15.715 -0.5235 -0.0273 -1.0689
 7530TIP3    H244006   2.923   1.309  15.767  0.4264  0.1300 -0.4151
 7531TIP3   OH244007   6.711   5.073   2.049 -0.0729 -0.6876  0.3157
 7531TIP3    H144008   6.706   5.081   1.953 -1.9459 -0.3041  0.4112
 7531TIP3    H244009   6.776   5.138   2.075 -1.1459  0.7933 -0.5463
 7532TIP3   OH244010   1.875   0.919   0.402 -0.4188 -0.6508 -0.3965
 7532TIP3    H144011   1.834   0.993   0.445  0.2905 -0.7613  0.4930
 7532TIP3    H244012   1.864   0.936   0.308  1.9091  1.8686 -0.3227
 7533TIP3   OH244013   0.227   5.259  16.854  0.4655 -0.0062  0.6583
 7533TIP3    H144014   0.203   5.290  16.767  1.2828 -0.0479  0.4114
 7533TIP3    H244015   0.211   5.334  16.912 -0.1680 -0.0083  0.4930
 7534TIP3   OH244016   1.554   4.087  15.373  0.0602  0.6356 -0.0756
 7534TIP3    H144017   1.582   4.002  15.407  0.7194  1.2999  1.0925
 7534TIP3    H244018   1.582   4.086  15.281  0.0126 -0.4207 -0.0920
 7535TIP3   OH244019   4.313   6.270  12.250  0.2994  0.4013  0.4147
 7535TIP3    H144020   4.353   6.353  12.275  1.0726  0.1831 -0.0708
 7535TIP3    H244021   4.219   6.285  12.260  0.4257  1.3516  0.2828
 7536TIP3   OH244022   5.341   6.301   3.575  0.0977 -0.5006 -0.6375
 7536TIP3    H144023   5.349   6.304   3.670  1.3890 -0.2453 -0.7290
 7536TIP3    H244024   5.258   6.256   3.559 -0.0364 -0.7287  0.6032
 7537TIP3   OH244025   5.065   2.341   1.883 -0.7356 -0.2182  0.2003
 7537TIP3    H144026   5.125   2.342   1.808 -1.0082 -1.2738 -0.0543
 7537TIP3    H244027   5.093   2.265   1.935 -2.1144 -1.0092 -0.1579
 7538TIP3   OH244028   1.466   2.251   1.046 -0.6306 -0.2323 -0.3272
 7538TIP3    H144029   1.403   2.218   0.982 -0.0539  0.5477 -1.3118
 7538TIP3    H244030   1.474   2.344   1.026  1.1470 -0.3906 -0.4919
 7539TIP3   OH244031   6.120   4.025  14.534 -0.4975  0.3566 -0.5997
 7539TIP3    H144032   6.037   4.067  14.556 -0.2673  1.3957 -1.5964
 7539TIP3    H244033   6.166   4.015  14.617 -1.3479  0.3714 -0.1229
 7540TIP3   OH244034   6.525   3.082  11.368  0.2425 -0.2884  0.0970
 7540TIP3    H144035   6.472   3.142  11.316 -1.8026 -1.3816  0.8267
 7540TIP3    H244036   6.529   3.002  11.315  1.2861 -0.1922  0.0100
 7541TIP3   OH244037   5.517   3.670  14.249 -0.0495 -0.7096 -0.2723
 7541TIP3    H144038   5.509   3.622  14.166  0.7229 -1.7231  0.2134
 7541TIP3    H244039   5.600   3.716  14.242 -0.3392 -0.1940 -0.3524
 7542TIP3   OH244040   4.846   0.306  12.882 -0.0703  0.0367  0.1769
 7542TIP3    H144041   4.900   0.237  12.842 -0.5641  0.0959 -0.6255
 7542TIP3    H244042   4.820   0.361  12.808 -2.0003 -0.5327  0.3694
 7543TIP3   OH244043   5.357   5.974   4.440  0.5399  0.4183 -0.2862
 7543TIP3    H144044   5.348   5.900   4.380  2.0803 -0.3226  0.3559
 7543TIP3    H244045   5.439   6.016   4.414 -0.5867  2.3058 -1.0305
 7544TIP3   OH244046   2.125   3.566   4.161 -0.5602 -0.4025 -0.3895
 7544TIP3    H144047   2.208   3.608   4.139 -1.9063  2.0487 -1.1033
 7544TIP3    H244048   2.124   3.564   4.257  0.6523 -1.2772 -0.3636
 7545TIP3   OH244049   6.123   4.331   6.129 -0.5525 -0.1205  0.3717
 7545TIP3    H144050   6.030   4.351   6.138 -0.3079  0.9354  0.7103
 7545TIP3    H244051   6.140   4.264   6.195 -1.1185 -0.4650  0.1681
 7546TIP3   OH244052   2.013   2.093  10.973 -0.3257 -0.2441  0.1599
 7546TIP3    H144053   1.977   2.113  10.887 -1.8904 -0.5715  0.7012
 7546TIP3    H244054   2.089   2.037  10.956 -0.1057  0.3971 -1.0226
 7547TIP3   OH244055   2.819   5.749   5.540 -0.3674 -0.1898 -0.1306
 7547TIP3    H144056   2.838   5.766   5.633  0.1893  0.9163 -0.4292
 7547TIP3    H244057   2.726   5.729   5.538 -0.2721 -0.7850  0.7450
 7548TIP3   OH244058   5.768   0.130  10.915  0.1230  0.3359 -0.2220
 7548TIP3    H144059   5.724   0.178  10.845  0.8947  0.3941 -0.6763
 7548TIP3    H244060   5.820   0.196  10.961  1.8099 -0.1476 -1.3322
 7549TIP3   OH244061   0.945   0.001  16.697 -0.8425  0.1534 -0.9404
 7549TIP3    H144062   1.003  -0.060  16.652 -0.0703 -0.2180  0.5010
 7549TIP3    H244063   1.003   0.051  16.754 -1.9242 -0.2740  0.5927
 7550TIP3   OH244064   3.389   6.254   4.352  0.6196 -0.5144 -0.3222
 7550TIP3    H144065   3.413   6.340   4.316  1.1014 -0.7331 -0.5342
 7550TIP3    H244066   3.344   6.210   4.280 -1.6339  0.3665  0.4609
 7551TIP3   OH244067   5.930   5.671   3.573 -0.4361 -0.1332  0.1393
 7551TIP3    H144068   5.870   5.597   3.582  0.8103 -0.9924  2.0345
 7551TIP3    H244069   5.882   5.745   3.609 -0.8171 -0.5388  0.4881
 7552TIP3   OH244070   3.545   4.623   4.926 -0.3868 -0.5123  0.4234
 7552TIP3    H144071   3.605   4.617   5.001 -0.4482  0.7683  0.6037
 7552TIP3    H244072   3.600   4.608   4.850  0.0368 -0.0206  0.6262
 7553TIP3   OH244073   2.565   4.319   2.117 -0.0209  0.1785  0.5280
 7553TIP3    H144074   2.622   4.250   2.084 -1.0459 -0.4779  0.0859
 7553TIP3    H244075   2.607   4.401   2.090 -0.4171 -0.3152 -1.7572
 7554TIP3   OH244076   1.395   2.933   5.360  0.4149 -0.5342  0.1400
 7554TIP3    H144077   1.340   2.984   5.419  0.0496 -0.6265 -0.1147
 7554TIP3    H244078   1.434   2.866   5.415 -2.1806 -2.4674 -0.1742
 7555TIP3   OH244079   4.794   2.074  12.376  0.3469 -0.0199  0.0902
 7555TIP3    H144080   4.820   2.069  12.469  0.3386 -2.2152  0.0159
 7555TIP3    H244081   4.868   2.036  12.329 -0.7168 -1.3227 -0.5755
 7556TIP3   OH244082   2.146   6.525  13.747 -0.2776  0.5388 -0.1429
 7556TIP3    H144083   2.094   6.605  13.735 -1.1163 -0.2034 -1.8944
 7556TIP3    H244084   2.091   6.456  13.712  0.5072 -0.8076  1.1870
 7557TIP3   OH244085   2.865   0.837  16.824  0.0175 -0.1306  0.3570
 7557TIP3    H144086   2.922   0.908  16.852  0.0334 -0.2191  0.5494
 7557TIP3    H244087   2.798   0.880  16.771  2.1237 -0.3859 -2.7821
 7558TIP3   OH244088   4.148   5.680   4.780  0.1545  0.2735  0.2008
 7558TIP3    H144089   4.135   5.752   4.718  1.6385  1.2261  0.9380
 7558TIP3    H244090   4.061   5.664   4.817 -0.5468  0.4101 -1.3183
 7559TIP3   OH244091   3.682   5.056  16.121  0.1976  0.5667 -0.2089
 7559TIP3    H144092   3.589   5.072  16.104 -0.7152 -1.6099  2.0160
 7559TIP3    H244093   3.725   5.138  16.098 -2.2223  1.5613 -1.5854
 7560TIP3   OH244094   1.047   1.838   4.327  0.1125 -0.0604 -0.1164
 7560TIP3    H144095   1.026   1.931   4.330  1.0104  0.1347  0.6482
 7560TIP3    H244096   0.991   1.803   4.258  0.0446  1.1155 -0.6863
 7561TIP3   OH244097   1.418   3.455  14.782 -0.6990  0.0547 -0.5010
 7561TIP3    H144098   1.351   3.431  14.717 -0.9194 -1.5986  0.2803
 7561TIP3    H244099   1.501   3.427  14.741 -1.0068 -2.9286  0.6675
 7562TIP3   OH244100   3.495   6.706   0.387  0.1112  0.5642  0.1040
 7562TIP3    H144101   3.458   6.705   0.475  0.7377 -0.5458  0.3814
 7562TIP3    H244102   3.444   6.641   0.339  0.8277 -0.0417  0.1334
 7563TIP3   OH244103   4.907   5.804   1.337  0.0877 -0.5309 -0.5239
 7563TIP3    H144104   4.945   5.788   1.423  0.1673 -0.6277 -0.5771
 7563TIP3    H244105   4.821   5.842   1.355 -0.4709 -1.8115 -0.3810
 7564TIP3   OH244106   1.953   4.270  16.880  0.3064 -0.4212  0.1879
 7564TIP3    H144107   1.975   4.254  16.788  1.8733  1.7427  0.1010
 7564TIP3    H244108   2.032   4.310  16.917 -0.8881  0.4006  2.0080
 7565TIP3   OH244109   5.489   4.657  13.392  0.1732  0.5167  0.2079
 7565TIP3    H144110   5.440   4.688  13.316  1.5035  1.2001 -0.3912
 7565TIP3    H244111   5.446   4.698  13.467 -0.0773  1.2160 -0.3155
 7566TIP3   OH244112   5.030   0.048   6.233 -0.1318 -0.5318  0.0117
 7566TIP3    H144113   5.125   0.057   6.230  0.0778 -2.4975 -2.7934
 7566TIP3    H244114   5.010   0.034   6.325  2.5077 -1.7675  0.4822
 7567TIP3   OH244115   2.185   0.119  14.034 -0.4800 -0.0382  0.0117
 7567TIP3    H144116   2.191   0.119  13.939 -0.0714 -1.2586  0.0170
 7567TIP3    H244117   2.246   0.051  14.062 -0.2991  0.5759  1.1698
 7568TIP3   OH244118   0.056   2.026  16.587 -0.0642  0.3659  0.4705
 7568TIP3    H144119  -0.024   1.999  16.634 -0.9136  0.3406 -0.9428
 7568TIP3    H244120   0.078   1.951  16.532 -0.8232  1.4492 -1.3949
 7569TIP3   OH244121   6.471   4.432  12.169  0.1654 -0.2346 -0.3857
 7569TIP3    H144122   6.545   4.473  12.213  0.3412 -0.8133 -0.1274
 7569TIP3    H244123   6.506   4.401  12.085  0.6584 -1.9612  0.4125
 7570TIP3   OH244124   2.345   4.950  16.988 -0.3038 -0.0236  0.0932
 7570TIP3    H144125   2.276   4.919  17.047  0.9360 -1.0755  1.0609
 7570TIP3    H244126   2.299   4.997  16.919 -2.1495 -2.1064 -0.1985
 7571TIP3   OH244127   3.423   5.270  15.155 -0.7995 -0.4806  0.9535
 7571TIP3    H144128   3.402   5.248  15.246  1.8234 -0.0658  1.7674
 7571TIP3    H244129   3.378   5.204  15.103 -2.3392 -0.7604  2.5340
 7572TIP3   OH244130   0.088   6.084  15.497  0.2734 -0.4812  0.0547
 7572TIP3    H144131  -0.003   6.068  15.520  0.0472 -0.0935 -0.5286
 7572TIP3    H244132   0.105   6.023  15.424  0.7268 -1.1179  0.6821
 7573TIP3   OH244133   2.121   0.932  11.247 -0.4543 -0.2813 -0.1117
 7573TIP3    H144134   2.045   0.874  11.245 -1.3332  0.8403 -0.0126
 7573TIP3    H244135   2.136   0.954  11.155  1.4514 -2.6093 -0.4424
 7574TIP3   OH244136   1.421   4.236  13.088  0.2148  0.0334 -0.5786
 7574TIP3    H144137   1.513   4.237  13.062  0.1242 -0.1534 -0.9147
 7574TIP3    H244138   1.390   4.325  13.070  0.3214  0.0860 -0.4996
 7575TIP3   OH244139   0.701   2.996   5.554 -0.0446 -0.2030  0.7798
 7575TIP3    H144140   0.689   3.088   5.577 -0.1204  0.4689 -1.6612
 7575TIP3    H244141   0.703   2.995   5.458  1.0868 -2.6043  0.7418
 7576TIP3   OH244142   5.493   2.690  14.229  0.1239  0.6522 -0.1074
 7576TIP3    H144143   5.567   2.629  14.225  0.6198  1.1335  1.0296
 7576TIP3    H244144   5.515   2.748  14.303 -0.9759  1.3499 -0.3127
 7577TIP3   OH244145   5.765   1.407  14.332  0.6700 -0.2814  0.0632
 7577TIP3    H144146   5.681   1.444  14.305  0.8295 -0.4219 -0.6490
 7577TIP3    H244147   5.813   1.394  14.250  0.5778 -2.1636  0.2522
 7578TIP3   OH244148   3.818   3.479  15.941 -0.2071  0.8605  0.0753
 7578TIP3    H144149   3.867   3.445  16.016 -0.5270 -1.2704 -0.6397
 7578TIP3    H244150   3.860   3.440  15.864 -0.6167  2.0844 -0.8033
 7579TIP3   OH244151   1.448   5.166   2.169 -0.4493 -0.5217  1.0032
 7579TIP3    H144152   1.467   5.089   2.221 -0.3970 -0.9409  0.3777
 7579TIP3    H244153   1.352   5.173   2.170 -0.4184 -0.0320  1.8423
 7580TIP3   OH244154   3.135   0.522   3.605 -0.4809  0.1650  0.3377
 7580TIP3    H144155   3.160   0.566   3.686 -1.5085 -0.1102  0.8200
 7580TIP3    H244156   3.180   0.438   3.609 -0.2663  0.2866  0.4757
 7581TIP3   OH244157   2.623   2.663   4.516 -0.1699  1.0607 -0.2216
 7581TIP3    H144158   2.578   2.580   4.529 -0.0188  1.2055  1.4202
 7581TIP3    H244159   2.677   2.649   4.439  1.6244 -1.1946  1.3060
 7582TIP3   OH244160   1.939   2.374  10.947 -0.3052  0.4175  0.7081
 7582TIP3    H144161   1.921   2.372  10.853  1.1877 -0.3940  0.4135
 7582TIP3    H244162   2.012   2.313  10.959  0.3894  1.4830  2.2080
 7583TIP3   OH244163   1.660   0.884  13.153  0.1302  0.7611  0.5090
 7583TIP3    H144164   1.601   0.948  13.112 -0.0771  0.4264  0.2820
 7583TIP3    H244165   1.652   0.901  13.247 -1.1047  0.0563  0.5478
 7584TIP3   OH244166   2.787   5.071   5.268  0.3825 -0.1900 -0.3343
 7584TIP3    H144167   2.714   5.026   5.226 -1.0173  0.1887  1.5821
 7584TIP3    H244168   2.756   5.089   5.356  2.4307  0.9228  0.2024
 7585TIP3   OH244169   5.293   2.955  15.626 -0.0277 -0.6351  0.8265
 7585TIP3    H144170   5.323   2.982  15.539  0.4973  0.0587  1.2019
 7585TIP3    H244171   5.344   3.010  15.686 -3.2214  1.8753  1.4948
 7586TIP3   OH244172   0.696   5.242   0.610 -0.8242 -0.2292  0.5524
 7586TIP3    H144173   0.758   5.239   0.537  0.3205  0.2623  1.4762
 7586TIP3    H244174   0.610   5.235   0.568 -0.2016  0.1335 -0.8567
 7587TIP3   OH244175   6.359   5.887  14.122  0.0834  0.2882 -0.0031
 7587TIP3    H144176   6.449   5.874  14.093  0.4504  2.7606 -0.2274
 7587TIP3    H244177   6.309   5.897  14.042 -0.4346 -1.0639  0.1233
 7588TIP3   OH244178   3.227   0.237  14.256  0.5824  0.3918 -0.7505
 7588TIP3    H144179   3.200   0.256  14.166  0.1767 -1.0625 -0.9639
 7588TIP3    H244180   3.179   0.300  14.309  0.5466  1.0295 -1.5172
 7589TIP3   OH244181   5.522   5.603  15.722 -0.2694 -0.5972  0.4113
 7589TIP3    H144182   5.493   5.688  15.757  1.6823  0.4790 -0.4339
 7589TIP3    H244183   5.590   5.574  15.783 -0.2330 -1.0609  0.1535
 7590TIP3   OH244184   2.626   4.432   5.186  0.3497 -0.1570 -0.2220
 7590TIP3    H144185   2.604   4.348   5.147  0.1133 -0.0389 -0.3454
 7590TIP3    H244186   2.547   4.485   5.174  0.2912 -0.1086  0.3864
 7591TIP3   OH244187   2.925   5.889   1.893 -0.1410  0.2524  0.0725
 7591TIP3    H144188   2.992   5.826   1.866 -0.7911 -0.1516 -0.6539
 7591TIP3    H244189   2.844   5.838   1.898 -0.5642  0.9044  0.0815
 7592TIP3   OH244190   3.800   0.709  16.944 -0.1692 -0.6950  0.2778
 7592TIP3    H144191   3.731   0.687  17.006 -0.8661  3.0648  1.1009
 7592TIP3    H244192   3.753   0.743  16.867  0.6770  0.6092  0.2993
 7593TIP3   OH244193   4.264   6.390  15.174 -0.5534  0.2904  0.7413
 7593TIP3    H144194   4.277   6.307  15.129 -0.7520 -0.0812  1.3594
 7593TIP3    H244195   4.308   6.454  15.118 -1.7790  0.0328 -0.6032
 7594TIP3   OH244196   2.474   5.073  10.658  0.1908  0.8435 -0.1906
 7594TIP3    H144197   2.450   5.126  10.733 -1.9361 -0.2997 -0.0117
 7594TIP3    H244198   2.422   4.993  10.666  1.4891 -0.2352 -1.7486
 7595TIP3   OH244199   0.271   5.293   0.851  0.0024 -0.0995  0.4687
 7595TIP3    H144200   0.304   5.216   0.805  1.7516  0.9510 -0.1802
 7595TIP3    H244201   0.290   5.366   0.791  0.0381  1.0309  1.8013
 7596TIP3   OH244202   1.894   1.190   6.205 -0.1942  0.3621 -0.1431
 7596TIP3    H144203   1.939   1.172   6.288 -1.7409  1.0832  0.9031
 7596TIP3    H244204   1.958   1.238   6.153  0.8632 -0.2443  0.5580
 7597TIP3   OH244205   0.076   2.717  16.480 -0.3250  0.0785 -0.4632
 7597TIP3    H144206   0.128   2.637  16.467  0.6761  0.5839  0.2348
 7597TIP3    H244207   0.136   2.787  16.454 -1.7136  0.5710 -2.5937
 7598TIP3   OH244208   0.182   2.254   5.853 -0.1890 -0.3623  0.2352
 7598TIP3    H144209   0.110   2.287   5.799  0.2003  0.3576  0.1513
 7598TIP3    H244210   0.199   2.166   5.818 -0.7249 -0.3612 -0.0400
 7599TIP3   OH244211   4.112   3.450   5.496 -0.0645 -0.0334  0.0731
 7599TIP3    H144212   4.017   3.437   5.492 -0.4954  1.2078  3.1440
 7599TIP3    H244213   4.145   3.369   5.534 -0.1539  0.1876  0.6359
 7600TIP3   OH244214   6.467   6.633  10.706  0.9971 -0.4860  0.1708
 7600TIP3    H144215   6.410   6.557  10.718  0.6408 -0.4630 -1.2856
 7600TIP3    H244216   6.440   6.694  10.776 -0.5540 -0.6044 -0.2891
 7601TIP3   OH244217   4.786   3.080  16.271  0.0124  0.4457  0.4026
 7601TIP3    H144218   4.850   3.151  16.257  1.3115 -0.1827  2.6831
 7601TIP3    H244219   4.798   3.055  16.363 -1.5924 -1.6118  0.1100
 7602TIP3   OH244220   2.777   0.036  16.492  0.1016 -0.5132 -0.4855
 7602TIP3    H144221   2.774   0.038  16.397 -0.1670 -0.8433 -0.4857
 7602TIP3    H244222   2.860   0.080  16.514  0.0426 -0.2126 -0.8562
 7603TIP3   OH244223   4.544   1.861  15.019 -0.5567 -0.1425  0.0660
 7603TIP3    H144224   4.498   1.779  15.030 -1.1203  0.0661 -0.6697
 7603TIP3    H244225   4.625   1.837  14.973 -0.6891 -0.2968 -0.0884
 7604TIP3   OH244226   4.648   5.858   1.199  0.3045 -0.2512 -0.1600
 7604TIP3    H144227   4.562   5.825   1.226 -0.1917  0.2935 -1.0246
 7604TIP3    H244228   4.630   5.911   1.121  1.4502 -0.2487 -0.4381
 7605TIP3   OH244229   6.490   0.074  15.521  0.5237 -0.1330 -0.0096
 7605TIP3    H144230   6.562   0.135  15.501 -0.4038  1.3640  0.9928
 7605TIP3    H244231   6.460   0.045  15.435 -0.2696  2.4156 -0.7032
 7606TIP3   OH244232   5.087   1.726  16.260 -0.5588  0.5230  0.0619
 7606TIP3    H144233   5.032   1.720  16.338 -1.3430  0.7705 -0.4687
 7606TIP3    H244234   5.157   1.662  16.275 -0.3919  0.9498  1.2056
 7607TIP3   OH244235   4.558   5.015  14.603  0.5138  0.4279  0.6894
 7607TIP3    H144236   4.474   4.974  14.584  0.1551  1.3852  0.1188
 7607TIP3    H244237   4.580   5.063  14.523  3.9158 -3.4657 -1.0385
 7608TIP3   OH244238   5.524   1.237   2.053  0.4750 -0.1612  0.6689
 7608TIP3    H144239   5.489   1.259   2.140 -0.3624  0.2909  0.2243
 7608TIP3    H244240   5.488   1.303   1.995 -1.9223 -2.4569 -0.6683
 7609TIP3   OH244241   3.843   1.901   3.606  0.0630 -0.2514 -0.6145
 7609TIP3    H144242   3.908   1.857   3.662  0.0931 -0.7954 -1.0666
 7609TIP3    H244243   3.845   1.851   3.524  0.6463  1.0452 -1.4266
 7610TIP3   OH244244   5.028   1.334   1.131 -0.0005  0.3274  0.0208
 7610TIP3    H144245   5.013   1.240   1.141 -0.2687  0.3235 -0.3824
 7610TIP3    H244246   5.013   1.351   1.038  1.7111  0.4725 -0.2542
 7611TIP3   OH244247   4.843   1.744   2.860 -0.2991 -0.5759 -0.6520
 7611TIP3    H144248   4.770   1.717   2.916  0.6773  0.0287  1.0063
 7611TIP3    H244249   4.867   1.665   2.812  0.1688 -1.7759  1.3971
 7612TIP3   OH244250   0.678   3.376   5.096 -0.3908  0.1462  0.0870
 7612TIP3    H144251   0.704   3.450   5.152  2.5969 -1.2353  0.7172
 7612TIP3    H244252   0.715   3.397   5.010 -2.1674  0.7367 -0.5743
 7613TIP3   OH244253   2.090   4.182  15.205  0.1715  0.1507  0.0284
 7613TIP3    H144254   2.023   4.250  15.214 -1.8453 -1.9013  1.8087
 7613TIP3    H244255   2.050   4.118  15.146  1.2820 -0.3628 -0.1830
 7614TIP3   OH244256   3.535   1.075   4.206  0.7967  0.1288  0.0548
 7614TIP3    H144257   3.595   1.095   4.134  2.2431 -1.4690  0.7527
 7614TIP3    H244258   3.591   1.037   4.274 -0.6028  1.1380  1.8642
 7615TIP3   OH244259   3.024   0.767   2.825 -0.1759 -0.3256  0.3912
 7615TIP3    H144260   3.054   0.693   2.771 -1.2684  0.1926 -0.9853
 7615TIP3    H244261   2.935   0.784   2.794  0.6682  2.7487 -0.6786
 7616TIP3   OH244262   5.649   1.841  12.118 -0.3505  0.0561 -0.2428
 7616TIP3    H144263   5.691   1.758  12.098  1.3582  0.6604  0.6678
 7616TIP3    H244264   5.653   1.890  12.036 -0.4538 -0.3731 -0.5092
 7617TIP3   OH244265   4.396   1.196  13.108  0.7521 -0.0950 -0.0441
 7617TIP3    H144266   4.303   1.174  13.095  0.1107  2.5470 -0.3949
 7617TIP3    H244267   4.395   1.282  13.149  3.0158  1.5144 -2.9703
 7618TIP3   OH244268   4.062   6.620   1.135  0.3982 -0.0646  0.0819
 7618TIP3    H144269   4.107   6.589   1.214  3.1853 -2.9241 -2.3335
 7618TIP3    H244270   4.114   6.695   1.107  1.4837 -1.0664 -0.6950
 7619TIP3   OH244271   3.608   1.313   5.523 -0.0624 -0.6296 -0.0633
 7619TIP3    H144272   3.640   1.336   5.610  0.1525  0.3981 -0.3922
 7619TIP3    H244273   3.683   1.273   5.479 -0.2621 -1.4408  0.3162
 7620TIP3   OH244274   0.204   2.804  15.938  0.0793 -0.2433 -0.2505
 7620TIP3    H144275   0.286   2.786  15.984  0.2698  1.0137 -0.0734
 7620TIP3    H244276   0.219   2.887  15.893 -0.7758 -0.4721 -0.9985
 7621TIP3   OH244277   0.052   1.527  11.510 -0.2254  0.4881 -0.2681
 7621TIP3    H144278   0.091   1.443  11.532  1.7404  1.0755 -1.2311
 7621TIP3    H244279   0.125   1.578  11.474 -1.8010  1.8356 -1.7397
 7622TIP3   OH244280   4.404   3.533  13.911  0.2059  0.4694 -0.4303
 7622TIP3    H144281   4.438   3.619  13.887  0.8891  0.5435  0.7372
 7622TIP3    H244282   4.478   3.488  13.952 -0.4508 -0.2522 -0.0042
 7623TIP3   OH244283   2.023   6.386   5.438  0.0927  0.0385  0.0148
 7623TIP3    H144284   2.030   6.480   5.419 -0.7212 -0.4240 -3.1993
 7623TIP3    H244285   2.109   6.362   5.474  1.3115  1.5636 -1.6733
 7624TIP3   OH244286   0.916   1.100   5.825 -0.2567 -0.3230 -0.0132
 7624TIP3    H144287   0.965   1.114   5.906 -1.1766  0.5412  0.4120
 7624TIP3    H244288   0.885   1.009   5.832 -2.1707  0.3897  1.6776
 7625TIP3   OH244289   3.346   2.615   2.941 -0.4543 -0.3659 -0.0984
 7625TIP3    H144290   3.351   2.531   2.896 -1.7680 -0.8337  0.5674
 7625TIP3    H244291   3.254   2.640   2.935 -0.0968  0.9990 -0.2163
 7626TIP3   OH244292   1.652   5.783  16.997 -0.1198  0.2093 -0.3789
 7626TIP3    H144293   1.581   5.754  17.053  2.5421 -1.9751  2.2093
 7626TIP3    H244294   1.669   5.873  17.025 -0.0590 -0.2274  1.0622
 7627TIP3   OH244295   1.330   4.958   4.712  0.1979 -0.1616  0.2288
 7627TIP3    H144296   1.343   4.866   4.736  2.5736 -0.3824 -1.5061
 7627TIP3    H244297   1.276   4.955   4.634 -2.1662  0.1661  1.7666
 7628TIP3   OH244298   1.691   2.701  11.599  0.2534  0.2508  0.2749
 7628TIP3    H144299   1.670   2.669  11.511  0.1279  2.2109 -0.4799
 7628TIP3    H244300   1.648   2.640  11.658  0.0121 -0.8997 -1.0277
 7629TIP3   OH244301   4.151   0.866  12.059 -0.3710  0.2471 -0.2741
 7629TIP3    H144302   4.139   0.956  12.030  1.2747  0.6269  0.1049
 7629TIP3    H244303   4.215   0.829  11.997  1.4872  0.3930  1.4584
 7630TIP3   OH244304   2.226   4.088  17.059  0.1735 -0.3436 -0.4155
 7630TIP3    H144305   2.225   4.158  17.123 -1.5187 -0.3395 -0.4090
 7630TIP3    H244306   2.317   4.059  17.056  0.2502 -0.5358  2.1926
 7631TIP3   OH244307   4.756   1.355  13.161  0.1360 -0.6382  0.1181
 7631TIP3    H144308   4.841   1.384  13.195 -0.1354 -1.1679  1.3106
 7631TIP3    H244309   4.758   1.260  13.169 -1.1094 -0.5801  1.5942
 7632TIP3   OH244310   4.767   4.845  15.313 -0.0565 -0.2436 -0.0285
 7632TIP3    H144311   4.745   4.763  15.357  0.7349  0.1347  1.1359
 7632TIP3    H244312   4.863   4.843  15.305  0.0980  1.0778  1.1027
 7633TIP3   OH244313   5.066   4.877  12.036  0.5841 -0.2413  0.0161
 7633TIP3    H144314   5.150   4.907  12.000  1.1887 -2.2142 -0.3907
 7633TIP3    H244315   5.028   4.823  11.967  0.0268 -1.1358  0.9764
 7634TIP3   OH244316   6.236   4.459   3.745 -0.5587  0.1174  0.1365
 7634TIP3    H144317   6.261   4.427   3.658 -2.3799 -0.0693 -0.3674
 7634TIP3    H244318   6.227   4.554   3.733 -1.9955 -0.0402 -0.2388
 7635TIP3   OH244319   5.218   2.563   6.031 -0.1154 -0.2580 -0.4547
 7635TIP3    H144320   5.216   2.629   5.962  0.2676  0.1893 -0.0440
 7635TIP3    H244321   5.130   2.566   6.070  0.1551  0.6360  0.1337
 7636TIP3   OH244322   3.251   3.212   1.069  0.1327  0.2455  0.0002
 7636TIP3    H144323   3.322   3.273   1.048  0.0754  0.9367  1.6078
 7636TIP3    H244324   3.275   3.177   1.155 -1.1300 -0.0330  0.2582
 7637TIP3   OH244325   0.003   5.982   5.447  0.2905 -0.2103  0.3161
 7637TIP3    H144326  -0.091   5.977   5.432  0.6728 -2.1456 -2.0278
 7637TIP3    H244327   0.028   5.893   5.473  2.1311 -1.5202 -4.7453
 7638TIP3   OH244328   3.684   6.345  14.237  0.0609 -0.0397  0.5875
 7638TIP3    H144329   3.749   6.278  14.215 -0.1723 -0.0234 -0.2055
 7638TIP3    H244330   3.668   6.334  14.331  1.4038  0.1436  0.8560
 7639TIP3   OH244331   3.610   1.517   2.629  0.0310  0.2389  0.2915
 7639TIP3    H144332   3.538   1.492   2.571  0.5253 -0.8737  0.1372
 7639TIP3    H244333   3.688   1.482   2.586  0.4561 -0.2039  1.4015
 7640TIP3   OH244334   4.928   5.130   4.807 -0.5136  0.3414  0.5522
 7640TIP3    H144335   4.918   5.215   4.850  1.6628  0.3364  1.2246
 7640TIP3    H244336   4.956   5.072   4.878  1.7286 -0.0116 -0.5200
 7641TIP3   OH244337   0.838   3.037  15.369 -0.4101 -0.1132  0.2512
 7641TIP3    H144338   0.762   3.062  15.317 -0.3488  1.7300  0.9485
 7641TIP3    H244339   0.803   2.991  15.445 -0.6293 -1.2612 -0.5275
 7642TIP3   OH244340   4.812   2.912   6.221  0.2152 -0.2441 -0.2259
 7642TIP3    H144341   4.793   3.000   6.253  1.3122 -0.0805  0.0224
 7642TIP3    H244342   4.728   2.866   6.224 -0.3070  0.7065 -0.0830
 7643TIP3   OH244343   3.025   0.415  14.329  0.5306  0.4242 -0.4926
 7643TIP3    H144344   2.953   0.421  14.266 -0.8711  0.7889  1.0906
 7643TIP3    H244345   3.055   0.505  14.339  1.2159  0.2785 -1.1133
 7644TIP3   OH244346   6.088   5.603   4.522  0.1256 -0.2185 -0.0749
 7644TIP3    H144347   6.108   5.605   4.616 -2.1137  1.2462  0.4779
 7644TIP3    H244348   6.141   5.532   4.487  2.4997  0.4227  1.9282
 7645TIP3   OH244349   4.958   4.510  15.335  0.4728 -0.4341  0.2649
 7645TIP3    H144350   4.957   4.440  15.271  0.7153  1.1022 -1.5030
 7645TIP3    H244351   4.866   4.529  15.352  0.4046 -1.3242  0.9614
 7646TIP3   OH244352   2.071   5.318  11.218  0.0055  0.4384  0.0644
 7646TIP3    H144353   2.107   5.384  11.276  1.8183 -0.9239  0.5778
 7646TIP3    H244354   2.064   5.361  11.133  0.3050  1.5186  0.5777
 7647TIP3   OH244355   2.040   0.152  14.669  0.0969  0.5465 -0.3169
 7647TIP3    H144356   1.986   0.205  14.610 -0.9044 -3.2305 -3.2246
 7647TIP3    H244357   1.977   0.109  14.728  0.2760 -0.8037 -1.0588
 7648TIP3   OH244358   3.080   3.272   2.618  0.4093 -0.2488 -0.2210
 7648TIP3    H144359   2.988   3.286   2.637  0.2116  2.4656 -2.5566
 7648TIP3    H244360   3.095   3.180   2.640 -2.8856 -0.8540  0.0196
 7649TIP3   OH244361   4.422   3.325  15.687  0.2816 -0.1233 -0.6493
 7649TIP3    H144362   4.480   3.331  15.611  0.8418 -1.7590 -0.3893
 7649TIP3    H244363   4.478   3.289  15.756 -0.9095 -1.2771 -0.2532
 7650TIP3   OH244364   2.515   4.825   5.449 -0.2002 -0.4431 -0.0767
 7650TIP3    H144365   2.550   4.836   5.361  1.5217  2.2187  0.8281
 7650TIP3    H244366   2.441   4.885   5.454  0.9502  0.9640  0.8401
 7651TIP3   OH244367   5.705   3.705   2.298  0.2959  0.1016  0.3861
 7651TIP3    H144368   5.750   3.786   2.277 -1.0541  0.8167  0.1512
 7651TIP3    H244369   5.682   3.713   2.390 -0.1381  0.1408  0.2759
 7652TIP3   OH244370   6.393   5.033   4.456 -0.2770 -0.2100 -0.6850
 7652TIP3    H144371   6.369   5.120   4.485 -0.5453  0.4444 -2.6873
 7652TIP3    H244372   6.425   4.989   4.535 -0.9973  1.3704  0.5443
 7653TIP3   OH244373   0.466   1.142  15.998  0.2121 -0.0198  0.7191
 7653TIP3    H144374   0.383   1.094  15.996  0.6521 -0.8295  1.1991
 7653TIP3    H244375   0.508   1.113  16.079  1.2538 -0.1170  0.1578
 7654TIP3   OH244376   0.252   0.970   2.680 -0.8782 -0.3759  0.3310
 7654TIP3    H144377   0.209   0.915   2.614 -0.0924 -0.0714 -0.4461
 7654TIP3    H244378   0.218   0.937   2.764 -0.3975 -2.0937 -0.1020
 7655TIP3   OH244379   6.407   2.579   2.398  0.6103  0.1733  0.0773
 7655TIP3    H144380   6.386   2.665   2.362  0.1511 -0.3473 -0.9677
 7655TIP3    H244381   6.502   2.574   2.396  0.6825  0.9488  0.8965
 7656TIP3   OH244382   0.906   4.212  15.452  0.5496 -0.3052  0.3010
 7656TIP3    H144383   0.981   4.220  15.510  0.0522 -0.5569  0.9848
 7656TIP3    H244384   0.833   4.188  15.509 -0.4442  1.6149 -0.0878
 7657TIP3   OH244385   5.711   6.222  16.302 -0.3163 -0.3568 -0.3078
 7657TIP3    H144386   5.654   6.212  16.379  0.1744 -0.8251  0.0022
 7657TIP3    H244387   5.781   6.159  16.316  0.4729  0.4572 -0.5096
 7658TIP3   OH244388   2.753   6.118   2.703  0.0519  0.1825  0.4648
 7658TIP3    H144389   2.803   6.200   2.700  0.1640  0.1380  0.9961
 7658TIP3    H244390   2.788   6.072   2.779 -0.6875  0.0763  0.7431
 7659TIP3   OH244391   3.757   3.048  10.505  0.0157 -0.5387 -0.3299
 7659TIP3    H144392   3.740   3.118  10.569 -0.3876 -1.1568  0.2574
 7659TIP3    H244393   3.830   2.999  10.542 -0.7107 -1.3613  0.0660
 7660TIP3   OH244394   3.894   3.489   2.969 -0.3285 -0.0196 -0.4137
 7660TIP3    H144395   3.848   3.427   2.911  2.3102 -1.6242 -0.9742
 7660TIP3    H244396   3.829   3.557   2.987 -3.1498 -2.4360 -0.5142
 7661TIP3   OH244397   0.506   3.557   1.298 -0.1409  0.7848  0.2825
 7661TIP3    H144398   0.507   3.574   1.393  0.1409  1.4730  0.1645
 7661TIP3    H244399   0.438   3.491   1.286 -1.0466  1.5969  0.8259
 7662TIP3   OH244400   1.915   0.757  11.341  0.1838  0.1434  0.5015
 7662TIP3    H144401   1.878   0.738  11.255 -1.0728  1.0069  0.8271
 7662TIP3    H244402   1.929   0.672  11.381 -0.5041 -0.2305 -0.0315
 7663TIP3   OH244403   4.484   2.170   2.136 -0.0720 -0.6919 -0.4246
 7663TIP3    H144404   4.557   2.184   2.076  1.3161  0.1493  1.3710
 7663TIP3    H244405   4.511   2.096   2.189  0.4778  0.8565  1.5928
 7664TIP3   OH244406   4.009   4.536  17.072 -0.0255  0.4067 -0.0811
 7664TIP3    H144407   4.053   4.544  17.157 -0.9214 -1.5283  0.6448
 7664TIP3    H244408   3.932   4.592  17.079  0.0687  0.4941  0.2781
 7665TIP3   OH244409   2.626   6.598  13.566 -0.3911 -0.0901 -0.2933
 7665TIP3    H144410   2.570   6.537  13.518  0.4300 -0.8448 -0.3270
 7665TIP3    H244411   2.698   6.617  13.505  0.8923 -1.3966  0.7507
 7666TIP3   OH244412   0.787   3.288   3.293  0.3062  0.4595  0.0436
 7666TIP3    H144413   0.768   3.197   3.271  0.5408  0.0959  1.2718
 7666TIP3    H244414   0.718   3.338   3.249  0.7594 -0.1998 -1.4855
 7667TIP3   OH244415   5.880   4.617   6.002  0.0189  0.4040 -0.1240
 7667TIP3    H144416   5.881   4.711   5.983 -1.7422  0.6463  0.7145
 7667TIP3    H244417   5.944   4.579   5.942 -0.0420  1.9982 -1.2544
 7668TIP3   OH244418   0.844   3.746  16.393  0.8925 -0.1973  0.4406
 7668TIP3    H144419   0.791   3.824  16.373 -1.5632 -2.0429 -0.7831
 7668TIP3    H244420   0.791   3.698  16.457  0.8026 -2.3009 -1.1035
 7669TIP3   OH244421   1.792   5.232  12.848 -0.2439  0.0690 -0.5380
 7669TIP3    H144422   1.874   5.246  12.802 -1.1526  0.5064 -2.1097
 7669TIP3    H244423   1.809   5.160  12.909  1.1921 -0.0557 -1.0689
 7670TIP3   OH244424   6.132   5.274   2.763  0.2512  0.0389  0.6128
 7670TIP3    H144425   6.097   5.188   2.742 -1.5920  1.4486 -2.8524
 7670TIP3    H244426   6.066   5.315   2.819 -0.3777  0.2465 -0.2631
 7671TIP3   OH244427   2.390   2.436   3.526  0.2033 -0.5947  0.1998
 7671TIP3    H144428   2.324   2.372   3.553  1.1130 -1.8646 -0.4802
 7671TIP3    H244429   2.410   2.413   3.435  2.0357 -0.6704  0.5833
 7672TIP3   OH244430   5.505   6.090   6.801  0.0340 -0.0283  0.2422
 7672TIP3    H144431   5.465   6.165   6.845  1.2129 -1.0386  3.2601
 7672TIP3    H244432   5.583   6.126   6.760 -1.1001  0.9392 -1.1963
 7673TIP3   OH244433   5.234   0.816   5.524 -0.2467 -0.4626  0.1740
 7673TIP3    H144434   5.303   0.805   5.589  2.4598  0.0437 -2.3564
 7673TIP3    H244435   5.212   0.727   5.497  1.9617 -0.6568 -1.2926
 7674TIP3   OH244436   5.660   4.192  12.492  0.1676  0.3499  0.2922
 7674TIP3    H144437   5.697   4.107  12.513  0.8852  0.6096  0.0827
 7674TIP3    H244438   5.718   4.229  12.426 -0.1033  1.0314  0.4211
 7675TIP3   OH244439   5.892   4.245   5.111  0.1229 -0.2089  0.5607
 7675TIP3    H144440   5.980   4.214   5.090  0.4766 -0.0445  1.7236
 7675TIP3    H244441   5.840   4.165   5.119 -0.1401 -0.2734 -1.2629
 7676TIP3   OH244442   1.510   0.352   1.805  0.3823 -0.1113  0.1698
 7676TIP3    H144443   1.596   0.312   1.819 -0.3234 -1.6760  0.2273
 7676TIP3    H244444   1.508   0.371   1.711  0.6476 -0.3818  0.1084
 7677TIP3   OH244445   2.927   3.472   0.603  0.0454 -0.4051 -0.1337
 7677TIP3    H144446   2.962   3.477   0.692  0.5348  0.0714 -0.3466
 7677TIP3    H244447   2.871   3.394   0.604  0.1593 -0.4882  0.5495
 7678TIP3   OH244448   6.347   4.519  11.221 -0.9340  0.2173  0.1802
 7678TIP3    H144449   6.431   4.475  11.203 -1.4963 -0.6116 -0.5324
 7678TIP3    H244450   6.352   4.600  11.170 -1.7352 -1.2212 -2.4182
 7679TIP3   OH244451   3.308   4.664  14.577 -0.3652 -0.4255 -0.0111
 7679TIP3    H144452   3.386   4.628  14.536 -0.8807 -1.1389 -0.3972
 7679TIP3    H244453   3.247   4.678  14.504 -0.8588 -0.5562  0.3680
 7680TIP3   OH244454   1.224   0.370   0.761 -0.1294  0.1882 -0.1701
 7680TIP3    H144455   1.263   0.423   0.692  0.5319 -0.4986 -0.3340
 7680TIP3    H244456   1.286   0.375   0.834 -0.5558  0.4573  0.1815
 7681TIP3   OH244457   6.238   4.949   3.569  0.4409 -0.0714 -0.5516
 7681TIP3    H144458   6.160   4.929   3.517 -1.0951  0.7052  1.2937
 7681TIP3    H244459   6.250   5.044   3.557  0.9847 -0.1565 -0.6765
 7682TIP3   OH244460   3.126   1.747   4.511 -0.3373  0.1072  0.4409
 7682TIP3    H144461   3.181   1.825   4.515  0.4105 -0.2065 -1.9379
 7682TIP3    H244462   3.045   1.776   4.470 -0.5961 -0.1058  0.7950
 7683TIP3   OH244463   6.664   3.014   5.911 -0.5654 -0.3268  0.0701
 7683TIP3    H144464   6.580   3.047   5.942  0.0300  0.7778  0.5462
 7683TIP3    H244465   6.692   2.953   5.978 -1.1855 -1.0573 -0.3124
 7684TIP3   OH244466   0.781   5.384  16.832 -0.0464 -0.0720  0.2117
 7684TIP3    H144467   0.687   5.390  16.813  0.2049 -0.7447 -1.3459
 7684TIP3    H244468   0.816   5.467  16.800  0.2510 -0.8679 -1.6329
 7685TIP3   OH244469   5.955   5.654  15.138 -0.8129  0.2746  0.1809
 7685TIP3    H144470   5.946   5.614  15.225  3.1677  1.5920  1.4274
 7685TIP3    H244471   5.895   5.728  15.139 -0.7062  0.3786  1.9304
 7686TIP3   OH244472   4.061   4.937  14.280 -0.0200 -0.1851  0.0882
 7686TIP3    H144473   4.012   4.944  14.361 -1.5443 -0.0361 -0.8081
 7686TIP3    H244474   4.003   4.891  14.219  0.9906 -0.1144 -0.9894
 7687TIP3   OH244475   6.746   1.577  11.231  0.0364 -0.2612 -0.3605
 7687TIP3    H144476   6.735   1.572  11.326  0.3043 -0.7499 -0.3502
 7687TIP3    H244477   6.700   1.656  11.206  1.1857  0.6812  0.3672
 7688TIP3   OH244478   4.341   1.725  12.359  0.4429 -0.8361  0.1606
 7688TIP3    H144479   4.377   1.688  12.279 -0.5067 -1.3019 -0.0671
 7688TIP3    H244480   4.246   1.710  12.352  0.1550  0.6087  0.5953
 7689TIP3   OH244481   2.685   4.989   0.117  0.2268  0.1054  0.3718
 7689TIP3    H144482   2.660   4.999   0.209 -0.8660  0.5097  0.0457
 7689TIP3    H244483   2.623   4.925   0.082  0.8049 -0.2470 -0.0304
 7690TIP3   OH244484   4.922   0.398  15.552  0.3581 -0.2541  0.2302
 7690TIP3    H144485   4.871   0.428  15.477  0.5192  3.5386  1.4208
 7690TIP3    H244486   4.858   0.391  15.623  0.9902  2.2261  1.1476
 7691TIP3   OH244487   3.020   2.668  11.244  0.1074 -0.1766 -0.3682
 7691TIP3    H144488   2.960   2.731  11.284  1.4950  0.4090  0.9356
 7691TIP3    H244489   3.056   2.620  11.319  2.1931  0.3790 -0.9539
 7692TIP3   OH244490   1.353   0.364  16.797 -0.1104  0.3331  0.5897
 7692TIP3    H144491   1.426   0.333  16.743 -0.9888 -0.6089 -0.0895
 7692TIP3    H244492   1.379   0.341  16.886  0.9234  1.0290  0.4844
 7693TIP3   OH244493   6.656   5.340  17.037 -0.4785  0.8852  0.6280
 7693TIP3    H144494   6.672   5.252  17.002  0.0853  2.3239 -3.2885
 7693TIP3    H244495   6.605   5.326  17.116 -0.1233 -2.9519  0.3556
 7694TIP3   OH244496   6.266   1.007   3.062  0.3189 -0.5801 -0.7481
 7694TIP3    H144497   6.361   1.018   3.054  0.0577  1.5514 -1.6791
 7694TIP3    H244498   6.234   1.005   2.972 -0.8506  3.5072 -0.6549
 7695TIP3   OH244499   0.384   1.833   1.718  0.6074 -0.5014 -0.0748
 7695TIP3    H144500   0.432   1.854   1.638  1.1855  1.0260  0.6285
 7695TIP3    H244501   0.319   1.768   1.691  1.5176 -0.8371 -1.5391
 7696TIP3   OH244502   5.657   0.966  13.636 -0.1416 -0.0785  0.4334
 7696TIP3    H144503   5.617   1.028  13.576  0.8955 -0.9900 -1.3112
 7696TIP3    H244504   5.698   0.901  13.579 -0.4253 -1.8807  2.1599
 7697TIP3   OH244505   3.136   6.583  11.414  0.3945  0.2213 -0.5611
 7697TIP3    H144506   3.165   6.662  11.459  2.7773  0.1341 -1.7741
 7697TIP3    H244507   3.042   6.577  11.432  0.4120  2.5978  0.6082
 7698TIP3   OH244508   3.242   2.170  11.454 -0.0887  0.0462 -0.5895
 7698TIP3    H144509   3.233   2.107  11.383  0.3599 -0.4607 -0.2040
 7698TIP3    H244510   3.203   2.251  11.420 -0.2508 -0.3082 -1.2536
 7699TIP3   OH244511   3.801   4.472  12.053 -0.2740  0.4387 -0.4436
 7699TIP3    H144512   3.743   4.546  12.040 -0.6400  0.2039 -0.1711
 7699TIP3    H244513   3.796   4.455  12.147 -0.1365  0.1145 -0.4953
 7700TIP3   OH244514   3.005   0.596  16.867  0.3605 -0.2022 -0.0418
 7700TIP3    H144515   2.955   0.674  16.893 -1.3440 -0.6541 -1.7278
 7700TIP3    H244516   3.060   0.627  16.796  2.1185  0.1422  1.3931
 7701TIP3   OH244517   2.549   2.211  14.622 -0.1057  0.4596 -0.5510
 7701TIP3    H144518   2.515   2.275  14.685  0.9444  0.3021  0.2059
 7701TIP3    H244519   2.589   2.264  14.553  3.3230  0.7964  1.4330
 7702TIP3   OH244520   0.474   4.381  15.833  0.3085 -0.3426  0.0618
 7702TIP3    H144521   0.547   4.395  15.893 -0.4204 -0.2575  0.9413
 7702TIP3    H244522   0.509   4.404  15.747  1.6882 -1.4652  0.2848
 7703TIP3   OH244523   3.965   4.276  12.517 -0.6925 -0.2602 -0.2523
 7703TIP3    H144524   3.946   4.209  12.582 -0.4359 -1.8389 -1.7341
 7703TIP3    H244525   4.002   4.228  12.442  0.5615  1.6492 -0.9511
 7704TIP3   OH244526   4.868   5.999   5.846 -0.1046 -0.7667  0.4916
 7704TIP3    H144527   4.777   5.987   5.875 -0.2339 -1.0990 -0.0519
 7704TIP3    H244528   4.875   6.094   5.832 -0.4471 -0.7698  0.2780
 7705TIP3   OH244529   1.881   4.875   6.341 -0.3615  1.0473 -0.3851
 7705TIP3    H144530   1.874   4.786   6.375  0.4834  0.8987 -0.5741
 7705TIP3    H244531   1.950   4.915   6.394 -0.7716  1.6103 -0.2659
 7706TIP3   OH244532   1.628   2.746   4.576  0.3674  0.1712  0.6623
 7706TIP3    H144533   1.694   2.681   4.602 -0.0509 -0.4208  0.2743
 7706TIP3    H244534   1.664   2.786   4.497  0.0641 -0.4704  0.1922
 7707TIP3   OH244535   1.323   2.398  14.998 -0.2975  0.6159 -0.5841
 7707TIP3    H144536   1.247   2.440  15.038  1.0744  1.6824  1.0264
 7707TIP3    H244537   1.286   2.329  14.943 -2.4016  0.8369  0.4572
 7708TIP3   OH244538   4.889   0.603   5.856 -0.0172  0.8398 -0.3969
 7708TIP3    H144539   4.898   0.550   5.935 -0.5418  0.5138 -0.5540
 7708TIP3    H244540   4.979   0.610   5.822 -0.1744 -2.0076 -1.6932
 7709TIP3   OH244541   3.286   1.024   0.178  0.7179 -0.6470  0.1872
 7709TIP3    H144542   3.227   0.974   0.122  2.5036 -1.1347 -1.3884
 7709TIP3    H244543   3.340   1.075   0.117  1.8022 -0.0943  1.5343
 7710TIP3   OH244544   2.742   5.638   4.120  0.0864 -0.2477  0.2620
 7710TIP3    H144545   2.817   5.601   4.073 -0.4557  0.8881 -1.6354
 7710TIP3    H244546   2.668   5.626   4.060 -1.1447 -0.7498  1.8160
 7711TIP3   OH244547   0.325   2.917  15.650  0.2346  0.2307 -0.4459
 7711TIP3    H144548   0.238   2.946  15.677  0.2780 -0.2390  0.2246
 7711TIP3    H244549   0.311   2.835  15.603  0.3660 -0.1854  0.2319
 7712TIP3   OH244550   5.040   3.198   2.888  0.2239  0.5365  0.0753
 7712TIP3    H144551   5.095   3.242   2.823 -2.0115  1.9735 -0.9681
 7712TIP3    H244552   4.952   3.233   2.873 -0.9803 -1.5014  1.7823
 7713TIP3   OH244553   3.439   5.225  15.735 -0.3495 -0.4945 -0.0306
 7713TIP3    H144554   3.427   5.206  15.642  2.5520  0.2142 -0.6391
 7713TIP3    H244555   3.362   5.277  15.759 -0.1316  1.1627 -2.6034
 7714TIP3   OH244556   5.351   0.925   4.988  0.7158 -0.1664  0.0029
 7714TIP3    H144557   5.297   0.859   5.032  0.5585 -0.2188 -0.2695
 7714TIP3    H244558   5.393   0.879   4.916  0.1142  0.1636 -0.5768
 7715TIP3   OH244559   4.683   3.432   6.366 -0.2072 -0.0120 -0.4716
 7715TIP3    H144560   4.676   3.516   6.322 -1.2722  0.0978 -0.1238
 7715TIP3    H244561   4.702   3.454   6.457  2.4377 -0.2480 -0.8871
 7716TIP3   OH244562   0.443   5.983   1.684 -0.1810  0.0418 -0.0524
 7716TIP3    H144563   0.436   5.980   1.779 -2.0981  0.6322 -0.1322
 7716TIP3    H244564   0.415   6.071   1.660  2.9410  0.9140 -1.0495
 7717TIP3   OH244565   0.982   6.226  12.553  0.0726  0.2346  0.2939
 7717TIP3    H144566   1.018   6.298  12.605  0.5091  1.3715 -1.4935
 7717TIP3    H244567   0.999   6.148  12.605  3.2527  0.9400  0.5051
 7718TIP3   OH244568   5.867   2.005  13.410 -0.1153  0.1692 -0.2190
 7718TIP3    H144569   5.940   2.063  13.431  0.1826 -0.2061 -0.1861
 7718TIP3    H244570   5.860   2.008  13.315 -0.5309  0.7660 -0.1711
 7719TIP3   OH244571   2.623   6.521   0.656  0.3437 -0.2581  0.2817
 7719TIP3    H144572   2.547   6.466   0.673 -1.7732  1.9131 -1.5416
 7719TIP3    H244573   2.627   6.529   0.561  1.3183  1.6593  0.4280
 7720TIP3   OH244574   0.792   0.169   4.250 -0.2636 -0.5472  0.4146
 7720TIP3    H144575   0.861   0.176   4.315  0.2992 -0.1574 -0.2064
 7720TIP3    H244576   0.760   0.259   4.239  1.4544 -0.0984 -1.7285
 7721TIP3   OH244577   0.034   5.677  14.560  0.3167 -0.0826  0.0064
 7721TIP3    H144578   0.007   5.753  14.613 -1.0760  0.0529 -0.8449
 7721TIP3    H244579   0.128   5.688  14.549  0.1575  1.5132 -0.0450
 7722TIP3   OH244580   1.652   3.133   5.999 -0.3760 -0.3500 -0.0484
 7722TIP3    H144581   1.665   3.122   6.093 -0.3541 -1.0902 -0.1339
 7722TIP3    H244582   1.587   3.203   5.991  0.6959  0.7557  0.4812
 7723TIP3   OH244583   2.219   5.077   2.918 -0.5635 -0.7061 -0.1630
 7723TIP3    H144584   2.210   4.992   2.874  0.2781 -1.5215  1.1892
 7723TIP3    H244585   2.312   5.095   2.915 -0.5721 -0.4779  0.7153
 7724TIP3   OH244586   5.059   0.421   4.007  0.1531 -0.2156 -0.1996
 7724TIP3    H144587   5.026   0.497   4.055  1.7568 -0.2974  1.1243
 7724TIP3    H244588   4.993   0.405   3.939 -0.8707  1.5357  0.3148
 7725TIP3   OH244589   2.686   2.345   4.198 -0.4937 -0.4029  0.1766
 7725TIP3    H144590   2.772   2.320   4.233  0.6975  0.5210 -1.8579
 7725TIP3    H244591   2.680   2.439   4.216  0.3577  0.2015 -2.2646
 7726TIP3   OH244592   6.459   4.559  12.457 -0.9012  0.1007  0.2408
 7726TIP3    H144593   6.412   4.585  12.536 -1.3020 -0.2523  0.1218
 7726TIP3    H244594   6.547   4.537  12.487 -1.1891 -0.4977  0.6634
 7727TIP3   OH244595   0.525   3.453   5.399  0.0632 -0.0437 -0.3683
 7727TIP3    H144596   0.462   3.421   5.334 -1.8780  1.0703  0.8976
 7727TIP3    H244597   0.573   3.522   5.353  0.1619 -0.6568 -1.2263
 7728TIP3   OH244598   0.339   3.452   0.723 -0.4706 -0.4245  0.5028
 7728TIP3    H144599   0.261   3.399   0.733 -2.0665  1.5860 -0.5343
 7728TIP3    H244600   0.386   3.413   0.649 -0.8153 -1.2387  0.7043
 7729TIP3   OH244601   1.304   6.601  11.563 -0.2959  0.5793 -0.0378
 7729TIP3    H144602   1.322   6.663  11.492 -1.6894  1.6027  0.4515
 7729TIP3    H244603   1.280   6.520  11.518 -0.0322  0.8698 -0.7228
 7730TIP3   OH244604   2.383   2.828   4.215 -0.0491 -0.1828  0.6621
 7730TIP3    H144605   2.402   2.916   4.247 -2.0211  0.0420  1.3133
 7730TIP3    H244606   2.411   2.771   4.287  2.9899 -0.3291 -0.4718
 7731TIP3   OH244607   5.906   5.311   5.241  0.1132 -0.5818  0.1689
 7731TIP3    H144608   5.951   5.308   5.325  2.1406  0.0213 -0.8269
 7731TIP3    H244609   5.943   5.387   5.196 -1.6633 -0.2775 -0.8894
 7732TIP3   OH244610   4.957   3.642   0.262 -0.2670  0.3453  0.3521
 7732TIP3    H144611   4.888   3.708   0.275  0.3171  0.7815  1.4306
 7732TIP3    H244612   5.006   3.644   0.344  0.9195 -0.0868 -0.3280
 7733TIP3   OH244613   5.017   6.057  15.215 -0.1830  0.1836 -0.6250
 7733TIP3    H144614   4.968   5.983  15.179  1.5473 -0.9759 -0.6844
 7733TIP3    H244615   4.972   6.134  15.180 -2.3813 -0.7854 -0.0918
 7734TIP3   OH244616   0.083   0.841  14.759  0.4251  0.0098  0.4578
 7734TIP3    H144617   0.066   0.788  14.681  0.2348 -0.9719  1.1471
 7734TIP3    H244618   0.038   0.924  14.743  0.9646  0.0825 -0.7616
 7735TIP3   OH244619   6.238   3.402  14.274 -0.9400  0.2208  0.2056
 7735TIP3    H144620   6.224   3.491  14.308 -3.5420 -0.1302  0.2729
 7735TIP3    H244621   6.200   3.404  14.186 -0.9141 -0.7922  0.1613
 7736TIP3   OH244622   2.072   1.668  11.980 -0.3422  0.2934  0.2354
 7736TIP3    H144623   2.079   1.748  11.929 -1.7774 -0.1820 -0.7619
 7736TIP3    H244624   2.045   1.601  11.917 -2.8174 -0.1765  1.6694
 7737TIP3   OH244625   4.769   2.728   2.049  0.1179  0.7310  0.0362
 7737TIP3    H144626   4.842   2.667   2.061  0.6167  1.7007  2.9764
 7737TIP3    H244627   4.699   2.692   2.103  0.2607  2.4200  1.4339
 7738TIP3   OH244628   5.739   5.639   1.259  0.6725 -0.1480 -0.3242
 7738TIP3    H144629   5.691   5.679   1.331  0.1330 -0.1426 -0.6784
 7738TIP3    H244630   5.686   5.562   1.236  1.5058 -0.8695  0.1179
 7739TIP3   OH244631   4.263   5.844  14.723 -0.0401  0.6149 -0.2810
 7739TIP3    H144632   4.226   5.781  14.784 -2.6876  0.2502 -2.0799
 7739TIP3    H244633   4.216   5.925  14.741 -0.8957  0.4876 -1.7726
 7740TIP3   OH244634   4.575   1.511   0.621 -0.0944 -0.0582 -0.0002
 7740TIP3    H144635   4.615   1.588   0.582 -1.0707 -0.1375 -1.2159
 7740TIP3    H244636   4.481   1.526   0.614 -0.3000 -0.6077  1.2986
 7741TIP3   OH244637   0.828   0.352  11.073 -0.4368  0.2480  0.3071
 7741TIP3    H144638   0.786   0.431  11.106 -1.8002 -0.9602  1.6153
 7741TIP3    H244639   0.905   0.341  11.128  1.1827  1.9461 -1.4761
 7742TIP3   OH244640   1.329   5.380  15.382 -0.2457  0.0782  0.7383
 7742TIP3    H144641   1.241   5.405  15.410 -1.7701 -0.1954 -3.1346
 7742TIP3    H244642   1.332   5.285  15.393 -1.5751 -0.3000 -1.5853
 7743TIP3   OH244643   6.292   2.328   2.355 -0.2053  0.3530 -0.1384
 7743TIP3    H144644   6.320   2.420   2.354  0.4807  0.1807  1.1590
 7743TIP3    H244645   6.320   2.295   2.441 -2.8510 -0.3436  0.5535
 7744TIP3   OH244646   0.120   0.807   4.841 -0.2792 -0.0541 -0.0273
 7744TIP3    H144647   0.118   0.743   4.912 -0.1645  1.0977  1.0462
 7744TIP3    H244648   0.028   0.831   4.828 -0.2738 -0.0612 -0.0788
 7745TIP3   OH244649   1.427   6.043   3.153 -0.5358  0.4485  0.1272
 7745TIP3    H144650   1.499   6.040   3.216 -2.7392  0.0239  2.8078
 7745TIP3    H244651   1.402   6.136   3.150 -0.1778  0.5304 -0.4716
 7746TIP3   OH244652   5.393   6.353   5.584  0.5156 -0.2337 -0.4889
 7746TIP3    H144653   5.373   6.290   5.515 -0.6748  0.6068 -0.9393
 7746TIP3    H244654   5.405   6.300   5.662  1.3654 -1.1565 -1.2319
 7747TIP3   OH244655   0.419   4.632  13.905 -0.0113  0.0164 -0.3217
 7747TIP3    H144656   0.462   4.691  13.967 -1.4425  0.9874 -0.2164
 7747TIP3    H244657   0.483   4.561  13.892  0.8969  0.5128  1.1441
 7748TIP3   OH244658   4.143   3.931   0.982  0.1309  0.5774  0.1348
 7748TIP3    H144659   4.168   4.015   1.021  1.6131  0.9193 -1.4406
 7748TIP3    H244660   4.212   3.870   1.011 -0.9652 -0.1457  1.3203
 7749TIP3   OH244661   5.613   6.365  12.893 -0.5114 -0.1119 -0.1910
 7749TIP3    H144662   5.628   6.369  12.988 -0.4825 -1.2749 -0.1341
 7749TIP3    H244663   5.686   6.313  12.859 -0.5015  0.3297 -0.8599
 7750TIP3   OH244664   5.392   6.080  16.730  0.4991  0.0118 -0.2136
 7750TIP3    H144665   5.298   6.062  16.731  0.3834  0.0058 -3.0069
 7750TIP3    H244666   5.430   6.016  16.790 -1.1003 -1.3274 -0.5568
 7751TIP3   OH244667   3.505   0.988  16.572  0.1558 -0.1288 -0.2558
 7751TIP3    H144668   3.463   0.954  16.493  1.1219 -0.5996 -0.5808
 7751TIP3    H244669   3.525   1.080  16.550  2.1598 -0.7594 -1.3272
 7752TIP3   OH244670   1.306   1.575  16.885 -0.0442  0.4764  0.2158
 7752TIP3    H144671   1.335   1.562  16.975  0.7630  1.3709  0.0976
 7752TIP3    H244672   1.343   1.501  16.837 -1.5190 -0.7153  0.8043
 7753TIP3   OH244673   5.166   5.889   3.310  0.6453 -0.2265 -0.2707
 7753TIP3    H144674   5.077   5.853   3.306 -0.0328  1.4831 -1.8287
 7753TIP3    H244675   5.222   5.819   3.278 -0.2359 -1.0617 -0.0177
 7754TIP3   OH244676   5.294   0.749  14.705  0.2370 -0.4073 -0.2848
 7754TIP3    H144677   5.319   0.823  14.650  0.5733  0.0419  0.4697
 7754TIP3    H244678   5.302   0.673  14.647 -0.8714  0.2048 -1.3092
 7755TIP3   OH244679   5.286   3.312   3.857 -0.3212 -0.0997 -0.5664
 7755TIP3    H144680   5.285   3.340   3.949  2.6148 -0.9013 -0.2037
 7755TIP3    H244681   5.329   3.227   3.859  1.1047  0.5031 -2.8272
 7756TIP3   OH244682   5.333   2.020   0.346 -0.5475  0.0072  0.0430
 7756TIP3    H144683   5.382   2.026   0.264  0.3422  0.4361  0.5893
 7756TIP3    H244684   5.246   1.989   0.320  0.0008 -0.7572 -0.9541
 7757TIP3   OH244685   6.303   3.107  12.240  0.4003  0.0772 -0.3235
 7757TIP3    H144686   6.314   3.017  12.269  0.0282 -0.3155 -1.3495
 7757TIP3    H244687   6.348   3.111  12.155 -0.7256  0.4810 -0.9251
 7758TIP3   OH244688   0.405   1.554   3.034 -0.6018  0.3011 -0.0067
 7758TIP3    H144689   0.423   1.468   3.071 -2.1517  0.4881  1.2915
 7758TIP3    H244690   0.384   1.537   2.942 -1.1533 -0.7352  0.3028
 7759TIP3   OH244691   6.715   2.017   0.898  0.2390  0.1696 -0.0876
 7759TIP3    H144692   6.715   2.052   0.987  0.6408  0.3514 -0.1572
 7759TIP3    H244693   6.749   2.088   0.843 -3.2118  1.3444 -0.9266
 7760TIP3   OH244694   0.049   5.916  13.948  0.8956 -0.3315 -0.0996
 7760TIP3    H144695   0.102   5.936  14.025  0.6815  1.0976 -0.2952
 7760TIP3    H244696   0.050   5.997  13.897 -1.6969 -0.1447  0.0310
 7761TIP3   OH244697   5.739   3.911   0.214  0.2069 -0.1707  0.4639
 7761TIP3    H144698   5.730   3.838   0.153 -1.3314 -0.0475  0.4889
 7761TIP3    H244699   5.666   3.900   0.275 -0.4799  1.7511  0.0558
 7762TIP3   OH244700   6.472   5.711  13.517  0.0452 -0.0783  0.8165
 7762TIP3    H144701   6.377   5.708  13.527 -0.1343  0.5923 -0.4947
 7762TIP3    H244702   6.493   5.637  13.460  0.1550  0.4546  0.1473
 7763TIP3   OH244703   3.286   3.162   5.121  0.2165  0.3926  0.1857
 7763TIP3    H144704   3.337   3.218   5.062  1.4404 -0.5176  0.3226
 7763TIP3    H244705   3.195   3.183   5.102  0.5691  0.0999 -2.0574
 7764TIP3   OH244706   0.794   4.406   6.080  0.1535 -0.3969 -0.3806
 7764TIP3    H144707   0.745   4.443   6.006 -0.7296 -0.4875  0.1466
 7764TIP3    H244708   0.730   4.350   6.125  0.2103  0.8768  1.3616
 7765TIP3   OH244709   6.572   5.525  14.845 -0.2822  0.0975 -0.1896
 7765TIP3    H144710   6.559   5.588  14.916  0.2660 -0.2842  0.2565
 7765TIP3    H244711   6.655   5.482  14.866  0.2271  0.4347 -1.4105
 7766TIP3   OH244712   0.076   4.075  15.277 -0.3580 -0.2106  0.2246
 7766TIP3    H144713   0.107   4.067  15.187 -0.1735  0.6859  0.2013
 7766TIP3    H244714   0.003   4.012  15.283  1.1626 -2.0627  0.1732
 7767TIP3   OH244715   5.465   0.748  13.728 -0.2817 -0.2892 -0.1998
 7767TIP3    H144716   5.383   0.797  13.719  0.5964  1.2889 -0.0480
 7767TIP3    H244717   5.533   0.813  13.709  0.9319 -1.5908 -0.4201
 7768TIP3   OH244718   1.035   5.614   6.066 -0.0414  0.1873 -0.0247
 7768TIP3    H144719   1.044   5.559   6.144 -0.3705 -1.1354 -0.8902
 7768TIP3    H244720   0.980   5.687   6.095  0.1054 -0.1169  1.0658
 7769TIP3   OH244721   2.185   5.375   3.845 -0.2419 -0.2036  0.1862
 7769TIP3    H144722   2.278   5.371   3.869 -0.5178 -1.4266  1.1640
 7769TIP3    H244723   2.141   5.398   3.927 -0.6456  3.0102 -0.7838
 7770TIP3   OH244724   3.601   5.580  14.073 -0.6073 -0.2023 -0.1148
 7770TIP3    H144725   3.513   5.572  14.037 -0.8030 -0.2411  0.3579
 7770TIP3    H244726   3.640   5.654  14.028 -0.5214 -0.8013 -1.0532
 7771TIP3   OH244727   6.531   1.690   5.191  0.0550 -0.3743  0.2098
 7771TIP3    H144728   6.528   1.692   5.095  0.5135 -0.0993  0.1999
 7771TIP3    H244729   6.584   1.766   5.215 -0.1971 -0.3456  0.6892
 7772TIP3   OH244730   6.288   1.496   3.898  0.3905  0.3106  0.6380
 7772TIP3    H144731   6.356   1.433   3.921 -0.4521 -0.2076  1.8752
 7772TIP3    H244732   6.312   1.527   3.811  1.2087 -1.2001  0.2799
 7773TIP3   OH244733   5.788   4.143   0.103  0.4840  0.0567 -0.5685
 7773TIP3    H144734   5.754   4.093   0.177 -2.5211  0.0477 -1.8380
 7773TIP3    H244735   5.873   4.176   0.134  1.6743 -3.9047  1.1143
 7774TIP3   OH244736   5.560   3.939  12.897  0.2840 -0.2005 -0.2900
 7774TIP3    H144737   5.493   3.874  12.921 -0.4613  0.5609 -0.2406
 7774TIP3    H244738   5.641   3.904  12.933 -0.3265 -0.4713  0.9018
 7775TIP3   OH244739   6.532   6.495  12.731 -0.5482 -0.4678  0.1592
 7775TIP3    H144740   6.555   6.524  12.819 -1.3281  0.0152  0.2150
 7775TIP3    H244741   6.611   6.514  12.679 -0.6595  0.8284  0.4124
 7776TIP3   OH244742   3.142   3.580   3.145  0.8458  0.2453 -0.3735
 7776TIP3    H144743   3.086   3.655   3.123  0.9747 -0.1052 -2.0299
 7776TIP3    H244744   3.080   3.507   3.157  0.7452  0.5217  0.9110
 7777TIP3   OH244745   4.178   0.678   0.898 -0.2786 -0.5723  0.0459
 7777TIP3    H144746   4.217   0.599   0.860  0.1480 -0.3671  0.0480
 7777TIP3    H244747   4.249   0.715   0.951 -0.6186 -0.4284  0.4002
 7778TIP3   OH244748   1.077   5.024   2.794  0.3444  0.0197 -0.2945
 7778TIP3    H144749   1.026   5.105   2.799 -1.5684 -1.1783  2.8702
 7778TIP3    H244750   1.165   5.049   2.824  0.1202  1.1233 -0.5230
 7779TIP3   OH244751   5.718   0.880   0.904  0.5247 -0.2378 -0.1204
 7779TIP3    H144752   5.687   0.851   0.818  1.8305 -1.4686 -0.2099
 7779TIP3    H244753   5.781   0.949   0.884  0.2130  0.0544 -0.1015
 7780TIP3   OH244754   3.727   1.370  11.908  0.4500  0.6215  0.8316
 7780TIP3    H144755   3.779   1.411  11.838  1.0194  0.7466  1.3203
 7780TIP3    H244756   3.653   1.430  11.921 -1.1912 -0.7333 -1.5294
 7781TIP3   OH244757   2.615   6.092  14.309 -0.1824  0.0921  0.6851
 7781TIP3    H144758   2.636   6.065  14.399  0.4360 -0.0444  0.5083
 7781TIP3    H244759   2.522   6.114  14.312  0.1617  1.5864  1.7199
 7782TIP3   OH244760   4.661   2.818  12.034 -0.3137 -0.1325 -0.0149
 7782TIP3    H144761   4.752   2.839  12.055 -0.3180  0.2640 -0.3515
 7782TIP3    H244762   4.657   2.824  11.938 -0.6423 -0.3547 -0.0166
 7783TIP3   OH244763   2.680   1.529   3.204 -0.1388  0.1727 -0.2629
 7783TIP3    H144764   2.722   1.483   3.132  0.5876 -1.5183  1.1682
 7783TIP3    H244765   2.698   1.622   3.187  0.2319 -0.1970 -2.0730
 7784TIP3   OH244766   0.084   1.463  11.005  0.5824 -0.7805 -0.0641
 7784TIP3    H144767   0.157   1.523  10.993  0.4521 -0.6219 -0.0724
 7784TIP3    H244768   0.043   1.491  11.087 -1.2511  1.0469 -1.4725
 7785TIP3   OH244769   4.731   0.518  17.023  0.2203 -0.1453 -0.0129
 7785TIP3    H144770   4.662   0.466  16.983  0.5160  0.6115 -1.5820
 7785TIP3    H244771   4.812   0.487  16.983  0.9313 -1.5281  2.3433
 7786TIP3   OH244772   1.832   6.633   0.922 -0.5866  0.1829  0.2237
 7786TIP3    H144773   1.887   6.557   0.943 -0.5922  0.2588  0.5135
 7786TIP3    H244774   1.750   6.595   0.890  0.2948  0.0446 -2.0656
 7787TIP3   OH244775   0.962   1.736   5.869 -0.1783  0.5255  0.1539
 7787TIP3    H144776   1.018   1.663   5.898 -1.2785 -0.9184 -1.2329
 7787TIP3    H244777   1.002   1.765   5.787  0.7356  2.1020  1.1001
 7788TIP3   OH244778   2.575   4.283  16.156  0.1302 -0.1094 -0.3869
 7788TIP3    H144779   2.488   4.248  16.136  0.3395 -0.2539 -1.0884
 7788TIP3    H244780   2.630   4.255  16.082  0.2296  1.9485 -1.1747
 7789TIP3   OH244781   6.365   0.901  16.303  0.9912 -0.2506 -0.2858
 7789TIP3    H144782   6.442   0.956  16.290  1.2334 -0.7733 -1.1276
 7789TIP3    H244783   6.372   0.834  16.236 -0.8250  0.3912 -1.1845
 7790TIP3   OH244784   3.468   2.410  16.124  0.0051  0.1482  0.1864
 7790TIP3    H144785   3.387   2.429  16.173 -0.1616 -0.4085  0.1447
 7790TIP3    H244786   3.537   2.451  16.175 -0.4429  1.8853 -0.5462
 7791TIP3   OH244787   1.677   5.132   0.706 -0.5042  0.2401  0.1200
 7791TIP3    H144788   1.618   5.095   0.771 -0.6348  0.0160 -0.1192
 7791TIP3    H244789   1.750   5.070   0.702 -0.9158 -0.2278 -0.5741
 7792TIP3   OH244790   5.224   0.243   3.409  0.1880  0.5232  0.1222
 7792TIP3    H144791   5.196   0.257   3.319 -1.8749  0.4093  0.6852
 7792TIP3    H244792   5.166   0.299   3.461  1.9591  1.3233  1.3427
 7793TIP3   OH244793   5.725   6.212  15.083 -0.2556 -0.1350  0.7242
 7793TIP3    H144794   5.756   6.252  15.164 -1.0566  1.5628  0.2435
 7793TIP3    H244795   5.639   6.175  15.106 -0.5643  0.5032  0.6367
 7794TIP3   OH244796   1.870   5.325   6.137 -0.5567  0.2350 -0.2478
 7794TIP3    H144797   1.805   5.367   6.081  0.3018  2.4500  0.3301
 7794TIP3    H244798   1.858   5.366   6.223  0.7049 -0.2969  0.2024
 7795TIP3   OH244799   6.457   0.535  12.191 -0.2136 -0.2045  0.9348
 7795TIP3    H144800   6.511   0.604  12.151 -0.2552  0.1564  1.4906
 7795TIP3    H244801   6.397   0.509  12.121 -0.1366  0.2632  0.6851
 7796TIP3   OH244802   0.314   5.522  11.177  0.4300 -0.4657 -0.7644
 7796TIP3    H144803   0.261   5.597  11.149  0.2610 -0.8797 -1.5742
 7796TIP3    H244804   0.378   5.511  11.107 -0.1426 -1.6635 -1.1349
 7797TIP3   OH244805   2.888   5.874  14.124  0.0309 -0.1050 -0.0905
 7797TIP3    H144806   2.951   5.945  14.113 -0.3380  0.3635  0.7835
 7797TIP3    H244807   2.923   5.803  14.069 -0.6060  1.3668 -2.5731
 7798TIP3   OH244808   4.738   6.279   6.034 -0.2303  0.1963  0.5940
 7798TIP3    H144809   4.706   6.194   6.064  0.5095  0.2993  1.7396
 7798TIP3    H244810   4.693   6.294   5.951 -3.4668  0.4731  2.2160
 7799TIP3   OH244811   6.621   6.160  14.976 -0.0257  0.2251 -0.6455
 7799TIP3    H144812   6.541   6.129  14.935  1.1128 -0.9443 -2.1202
 7799TIP3    H244813   6.598   6.173  15.068 -1.4169 -1.9436 -0.6266
 7800TIP3   OH244814   0.668   6.014  11.335  0.2738  0.3183  0.5391
 7800TIP3    H144815   0.763   6.018  11.334  0.3576 -1.1781  0.1790
 7800TIP3    H244816   0.640   6.106  11.334  1.6946  0.7918  1.5394
 7801TIP3   OH244817   3.068   2.384   1.485 -0.3691 -0.4133  0.6030
 7801TIP3    H144818   3.152   2.414   1.518  0.4758  0.4597 -2.0567
 7801TIP3    H244819   3.026   2.462   1.450 -1.9625 -0.9641  1.1779
 7802TIP3   OH244820   5.392   6.243  13.996  0.1277  0.7182 -0.7246
 7802TIP3    H144821   5.422   6.191  14.071 -0.5553 -0.8686 -1.4975
 7802TIP3    H244822   5.465   6.301  13.976 -0.0571  1.9402  1.8028
 7803TIP3   OH244823   4.692   4.591  15.691  0.2617 -0.2672 -0.6107
 7803TIP3    H144824   4.739   4.508  15.683  0.7642  0.0087 -0.5419
 7803TIP3    H244825   4.629   4.575  15.762  0.5071 -0.5205 -0.4468
 7804TIP3   OH244826   1.061   2.208   5.249  0.5609 -0.0234 -0.4382
 7804TIP3    H144827   1.013   2.290   5.242  1.5417  0.5728 -0.3328
 7804TIP3    H244828   1.015   2.158   5.316  0.0644  0.5099 -0.3814
 7805TIP3   OH244829   0.830   1.278  13.126 -0.2215 -0.2582 -0.0054
 7805TIP3    H144830   0.826   1.339  13.053  0.5300 -0.4065 -0.1798
 7805TIP3    H244831   0.855   1.331  13.202  0.8512 -0.4043 -0.2419
 7806TIP3   OH244832   6.353   2.641   0.775 -0.6662  0.0241 -0.2028
 7806TIP3    H144833   6.329   2.570   0.716 -0.8261 -0.1041  0.0150
 7806TIP3    H244834   6.422   2.688   0.729 -0.0632 -0.6924 -0.0395
 7807TIP3   OH244835   2.190   0.524   1.806 -0.1621  0.4995  0.6130
 7807TIP3    H144836   2.270   0.532   1.754 -0.9804  1.9778 -0.4882
 7807TIP3    H244837   2.173   0.430   1.808  0.5924  0.3044 -0.7109
 7808TIP3   OH244838   0.826   1.496   0.766 -0.2936  0.4623  0.3988
 7808TIP3    H144839   0.851   1.588   0.766 -1.1396  0.7224  1.6699
 7808TIP3    H244840   0.909   1.448   0.767  0.1519  1.1948 -0.2854
 7809TIP3   OH244841   6.621   0.222   2.337  0.3063  0.4294  0.4367
 7809TIP3    H144842   6.635   0.128   2.343 -0.7457  0.2806  0.9026
 7809TIP3    H244843   6.649   0.256   2.422 -2.3898  0.0553  1.6026
 7810TIP3   OH244844   2.085   1.046  12.093 -0.2954  0.5638 -0.0631
 7810TIP3    H144845   2.069   1.131  12.133 -1.3164 -0.1096  1.0336
 7810TIP3    H244846   2.147   1.003  12.152  0.7716  0.7917 -0.9875
 7811TIP3   OH244847   1.869   5.345   5.186 -0.1418  0.1872 -0.2461
 7811TIP3    H144848   1.905   5.356   5.274 -1.5593 -0.7507  0.4789
 7811TIP3    H244849   1.931   5.287   5.141  1.1165  1.4588 -0.2355
 7812TIP3   OH244850   4.215   0.964  12.830 -0.4518 -0.0230  0.0071
 7812TIP3    H144851   4.160   0.893  12.796 -0.4742 -0.1014  0.2069
 7812TIP3    H244852   4.155   1.019  12.880  0.0764 -1.5787  2.5728
 7813TIP3   OH244853   6.251   2.250  14.689 -1.1862 -0.0816  0.3101
 7813TIP3    H144854   6.158   2.254  14.671 -1.7277 -1.1986  2.4853
 7813TIP3    H244855   6.257   2.246  14.785  1.0254 -1.4100  0.1940
 7814TIP3   OH244856   1.407   0.550  14.871  0.1687 -0.1411  0.4297
 7814TIP3    H144857   1.396   0.458  14.848  0.8388 -0.4950  1.4849
 7814TIP3    H244858   1.347   0.564  14.945  0.7836  0.0192  0.8993
 7815TIP3   OH244859   0.009   0.122  13.267 -0.0371  0.1164  0.7347
 7815TIP3    H144860   0.055   0.084  13.192 -0.8111 -1.4306  1.0103
 7815TIP3    H244861  -0.054   0.183  13.228 -0.3087 -0.5400  0.1176
 7816TIP3   OH244862   1.117   5.114  17.281  0.1496 -0.4137  0.1229
 7816TIP3    H144863   1.021   5.111  17.287  0.1826 -2.0961  0.1851
 7816TIP3    H244864   1.134   5.175  17.209 -0.9029  1.0451  1.0517
 7817TIP3   OH244865   4.476   6.213  12.870 -0.5548  0.4008 -0.5458
 7817TIP3    H144866   4.540   6.241  12.936 -1.0987 -0.4664  0.3742
 7817TIP3    H244867   4.445   6.295  12.830  0.8965  0.8468 -0.8021
 7818TIP3   OH244868   5.781   0.615  16.167  0.2770  0.0177  0.8439
 7818TIP3    H144869   5.818   0.575  16.246 -0.6568 -3.2356 -0.1808
 7818TIP3    H244870   5.689   0.628  16.188 -0.2821 -2.0793  0.0167
 7819TIP3   OH244871   3.997   2.079   3.842  0.1327 -0.1892  0.3325
 7819TIP3    H144872   4.035   2.087   3.929 -0.0636  1.3952  0.2905
 7819TIP3    H244873   3.959   1.991   3.841 -0.0233 -0.1694  1.8969
 7820TIP3   OH244874   1.693   0.111   0.254 -0.4152 -0.8095 -0.1560
 7820TIP3    H144875   1.751   0.117   0.178 -0.2413  0.6134  0.0598
 7820TIP3    H244876   1.752   0.092   0.327 -0.1264  0.8883  0.1063
 7821TIP3   OH244877   5.854   5.932   5.578  0.2318 -0.0339  0.3795
 7821TIP3    H144878   5.843   5.980   5.496 -0.3826 -1.8105 -0.6317
 7821TIP3    H244879   5.766   5.904   5.601  0.7079 -1.9064  0.1137
 7822TIP3   OH244880   3.826   6.136  12.341  0.3932 -0.0768 -0.0298
 7822TIP3    H144881   3.781   6.175  12.265  0.9945  2.2565  0.7243
 7822TIP3    H244882   3.894   6.081  12.302  0.0941  0.3278 -1.1853
 7823TIP3   OH244883   3.242   0.250   5.527 -0.1288 -0.0196  0.5037
 7823TIP3    H144884   3.219   0.194   5.602  3.9694 -0.6443  1.5105
 7823TIP3    H244885   3.252   0.337   5.564 -1.3435  0.3689 -0.0370
 7824TIP3   OH244886   1.360   6.737  16.023  0.5492 -0.5184 -0.4096
 7824TIP3    H144887   1.402   6.710  16.105  2.4302  0.1823 -1.0945
 7824TIP3    H244888   1.267   6.744  16.045  1.0612  0.1057  1.7924
 7825TIP3   OH244889   4.311   2.348   0.454  0.1362  0.3297 -0.4953
 7825TIP3    H144890   4.227   2.325   0.417 -0.1448  0.6496 -0.0683
 7825TIP3    H244891   4.370   2.356   0.379 -0.0280 -0.6280 -0.7324
 7826TIP3   OH244892   3.963   3.427  14.876  1.0347  0.0103 -0.1935
 7826TIP3    H144893   3.931   3.383  14.797 -0.2345 -1.3342  1.0073
 7826TIP3    H244894   3.913   3.509  14.879  0.2868 -0.4314 -0.2337
 7827TIP3   OH244895   4.028   5.469  13.081  0.0709 -0.1333  0.1974
 7827TIP3    H144896   3.971   5.439  13.152 -0.3961 -1.1024 -0.5616
 7827TIP3    H244897   4.051   5.559  13.106  0.0062 -0.4843  1.6133
 7828TIP3   OH244898   3.924   6.637   4.980 -0.8592  0.0099  0.5372
 7828TIP3    H144899   3.892   6.619   4.892 -0.9560 -0.9278  0.7522
 7828TIP3    H244900   3.956   6.728   4.977 -0.5243 -0.1357 -0.5535
 7829TIP3   OH244901   5.880   0.185  13.526 -0.3704 -0.2404 -0.8883
 7829TIP3    H144902   5.811   0.119  13.518  2.1041 -3.0330 -1.0507
 7829TIP3    H244903   5.905   0.206  13.436  0.2793 -0.7266 -0.8249
 7830TIP3   OH244904   0.190   1.628   1.786  0.1355  0.4843 -0.1163
 7830TIP3    H144905   0.165   1.571   1.713  1.5859  1.8828 -1.7891
 7830TIP3    H244906   0.121   1.615   1.851 -1.4142 -0.5660 -1.8674
 7831TIP3   OH244907   4.672   2.691   5.039  0.4381 -0.2922 -0.1112
 7831TIP3    H144908   4.594   2.694   5.095  0.7291 -0.5995  0.3252
 7831TIP3    H244909   4.643   2.725   4.955 -0.1050 -0.1671  0.1207
 7832TIP3   OH244910   3.745   1.515   5.792  0.5299  0.2226  0.5465
 7832TIP3    H144911   3.687   1.508   5.867  0.3843  0.6304  0.4787
 7832TIP3    H244912   3.827   1.548   5.828  0.1470  1.3949  0.4014
 7833TIP3   OH244913   3.984   3.953  16.310 -0.4590 -0.7137 -0.1373
 7833TIP3    H144914   3.992   3.859  16.322  0.4661 -1.1847 -3.4970
 7833TIP3    H244915   4.024   3.971  16.225  0.4052  2.9079  0.8230
 7834TIP3   OH244916   1.334   3.907   1.639  0.0350  0.0753  0.1897
 7834TIP3    H144917   1.265   3.847   1.612 -0.8248  1.0384  0.1683
 7834TIP3    H244918   1.401   3.900   1.571  0.6974 -1.9951  0.9893
 7835TIP3   OH244919   1.562   3.366  15.001  0.3501 -0.5021 -0.6447
 7835TIP3    H144920   1.505   3.383  15.076  0.9605 -4.0540  0.8361
 7835TIP3    H244921   1.509   3.388  14.924 -1.1201  1.0374  0.7415
 7836TIP3   OH244922   0.632   5.638  13.541 -0.2982 -0.2782 -0.3162
 7836TIP3    H144923   0.681   5.699  13.486 -0.5985 -0.4086 -0.7386
 7836TIP3    H244924   0.619   5.685  13.624 -0.0275  0.0043 -0.4345
 7837TIP3   OH244925   1.755   6.071   3.602 -0.1194  0.0701 -0.1546
 7837TIP3    H144926   1.829   6.082   3.542  0.5430 -1.6655  0.2805
 7837TIP3    H244927   1.794   6.074   3.689 -0.7716  0.4503  0.1326
 7838TIP3   OH244928   0.777   1.790   0.059 -0.2186 -0.2145  0.7687
 7838TIP3    H144929   0.813   1.803  -0.029  2.2686 -0.4528  1.6671
 7838TIP3    H244930   0.782   1.876   0.100  0.6383 -0.5328  1.3507
 7839TIP3   OH244931   3.360   1.262   3.820  0.2433 -0.0367  0.5237
 7839TIP3    H144932   3.415   1.319   3.875  0.3279  1.7512 -1.2761
 7839TIP3    H244933   3.271   1.283   3.847  0.3196  0.1369  0.6482
 7840TIP3   OH244934   1.141   6.160  17.062  0.6165 -0.0935  0.4117
 7840TIP3    H144935   1.088   6.081  17.050  1.1211 -0.1924 -1.4698
 7840TIP3    H244936   1.129   6.183  17.154 -2.1462 -0.4863  0.2355
 7841TIP3   OH244937   2.961   0.284   5.709 -0.3037  0.1913 -0.0740
 7841TIP3    H144938   2.947   0.311   5.618 -1.7782  0.0613  0.0899
 7841TIP3    H244939   3.054   0.261   5.713  0.1842  1.8042 -1.1124
 7842TIP3   OH244940   1.543   6.629  13.442  0.2136 -0.4019  0.0023
 7842TIP3    H144941   1.461   6.579  13.448 -0.4948  0.6957 -0.1610
 7842TIP3    H244942   1.589   6.590  13.368 -0.6974 -0.2917 -0.6453
 7843TIP3   OH244943   0.130   4.445  14.546 -0.2956 -0.2095  0.5648
 7843TIP3    H144944   0.089   4.525  14.513 -0.0999  0.2068  1.3070
 7843TIP3    H244945   0.135   4.387  14.470  0.6782  0.9254 -0.2656
 7844TIP3   OH244946   4.721   0.408  14.510  0.1192 -0.6313  0.0668
 7844TIP3    H144947   4.637   0.402  14.555  0.7807 -1.5567  1.2524
 7844TIP3    H244948   4.699   0.429  14.419 -1.3469 -0.3390  0.4725
 7845TIP3   OH244949   3.291   3.005   2.125 -0.3486 -0.2533  0.3605
 7845TIP3    H144950   3.296   2.939   2.056  0.3515  0.2253 -0.0689
 7845TIP3    H244951   3.199   3.007   2.151 -0.9266  0.5237 -1.5455
 7846TIP3   OH244952   1.488   4.312  12.042  0.2240  0.1289 -0.6736
 7846TIP3    H144953   1.452   4.231  12.005  2.0810 -1.3059  0.4890
 7846TIP3    H244954   1.575   4.320  12.002  1.0226  0.1956  1.0025
 7847TIP3   OH244955   2.273   5.818  13.291 -0.2472  0.4767 -0.4515
 7847TIP3    H144956   2.354   5.773  13.264 -0.5613 -0.7974  0.6506
 7847TIP3    H244957   2.208   5.748  13.296 -1.6083  1.5715 -1.8922
 7848TIP3   OH244958   6.512   3.555  11.526  0.5613  0.3254  0.4795
 7848TIP3    H144959   6.530   3.511  11.609  1.1612  1.4831  0.9867
 7848TIP3    H244960   6.599   3.569  11.487  0.2829 -0.2830 -0.3920
 7849TIP3   OH244961   5.792   5.584   4.496  0.0477  0.3221  0.0629
 7849TIP3    H144962   5.882   5.609   4.476 -0.0445  0.0040 -0.8236
 7849TIP3    H244963   5.797   5.540   4.581  0.8350 -0.2875 -0.2922
 7850TIP3   OH244964   2.364   1.341  12.561 -0.0034  0.1818 -0.2765
 7850TIP3    H144965   2.382   1.304  12.648 -1.0730  1.1123  0.3871
 7850TIP3    H244966   2.431   1.408  12.549 -0.3840  0.6730  0.2547
 7851TIP3   OH244967   0.375   4.839   0.816 -0.0251  0.6765  0.1951
 7851TIP3    H144968   0.317   4.763   0.822 -1.2946  1.6221  0.5397
 7851TIP3    H244969   0.375   4.862   0.723  0.7285  0.0029  0.0190
 7852TIP3   OH244970   5.455   0.956   3.250  0.3838  0.1594  0.3846
 7852TIP3    H144971   5.510   0.901   3.306  0.6483 -0.1959 -0.2134
 7852TIP3    H244972   5.445   1.038   3.298 -0.2914 -0.5226  1.4501
 7853TIP3   OH244973   6.388   1.896  11.777  0.2082 -0.3451 -0.1952
 7853TIP3    H144974   6.429   1.930  11.698 -0.3947  1.5978  0.2555
 7853TIP3    H244975   6.359   1.808  11.754  1.7840 -0.5687 -1.4895
 7854TIP3   OH244976   1.595   1.658  14.450  0.6127 -0.2773  0.4812
 7854TIP3    H144977   1.577   1.627  14.361  1.4239 -1.5623  0.7235
 7854TIP3    H244978   1.583   1.752  14.446  0.7055 -0.3018 -1.0167
 7855TIP3   OH244979   3.672   5.970   3.560 -0.3773 -0.3033  0.5494
 7855TIP3    H144980   3.628   6.028   3.498  0.2685 -0.7198 -0.3158
 7855TIP3    H244981   3.670   6.017   3.643 -0.5831  0.5982  0.0397
 7856TIP3   OH244982   1.679   5.287   1.993 -0.3027  0.3402 -0.5274
 7856TIP3    H144983   1.726   5.212   2.031  0.5239  0.4492 -1.3064
 7856TIP3    H244984   1.589   5.276   2.023  0.3106  0.4388  1.4983
 7857TIP3   OH244985   0.265   1.096  16.371 -0.7491  0.4610 -0.1975
 7857TIP3    H144986   0.176   1.128  16.362 -1.1504 -0.5423  0.1222
 7857TIP3    H244987   0.286   1.106  16.464 -0.1083  1.7154 -0.4427
 7858TIP3   OH244988   1.376   0.178  13.873  0.6736  1.0931  0.2585
 7858TIP3    H144989   1.350   0.260  13.832 -0.2367  0.4894 -0.3970
 7858TIP3    H244990   1.294   0.131  13.888  1.2433 -0.1852 -0.4404
 7859TIP3   OH244991   2.973   3.524  12.251 -0.2406 -0.3110  0.4959
 7859TIP3    H144992   3.036   3.459  12.283  0.7380  0.4996  0.2744
 7859TIP3    H244993   2.896   3.473  12.226  1.4024 -1.7413 -2.0929
 7860TIP3   OH244994   3.123   6.146  16.315 -0.1899 -0.0169 -0.6531
 7860TIP3    H144995   3.183   6.096  16.370  0.1116 -0.5645 -1.4641
 7860TIP3    H244996   3.113   6.229  16.361  0.8557 -0.0763 -0.2848
 7861TIP3   OH244997   4.698   6.035  15.845  0.2078 -0.3727 -0.7375
 7861TIP3    H144998   4.706   6.128  15.826  0.8943 -0.6756 -2.0929
 7861TIP3    H244999   4.614   6.010  15.806 -0.0057 -0.3108 -0.3183
 7862TIP3   OH245000   2.890   0.136   3.959  0.3260  0.4527 -0.3176
 7862TIP3    H145001   2.810   0.185   3.979 -0.3601  0.0107 -1.8140
 7862TIP3    H245002   2.871   0.091   3.877  2.1224  0.3355 -0.7225
 7863TIP3   OH245003   4.659   2.630  13.047 -0.0736 -0.0188  0.1221
 7863TIP3    H145004   4.704   2.677  12.976  1.0823  0.9556  1.4510
 7863TIP3    H245005   4.645   2.696  13.114 -0.9013 -0.9868  0.9232
 7864TIP3   OH245006   0.309   3.789   6.036 -0.5408 -0.0959 -0.4208
 7864TIP3    H145007   0.377   3.784   5.969  2.4946  2.8567  2.1264
 7864TIP3    H245008   0.303   3.700   6.071  0.7682 -0.7937 -1.8545
 7865TIP3   OH245009   0.423   3.699   5.067  0.0323  0.4389  0.0544
 7865TIP3    H145010   0.437   3.792   5.052  1.3108  0.3557  0.6302
 7865TIP3    H245011   0.381   3.668   4.986  1.3012  1.1522 -0.9050
 7866TIP3   OH245012   1.796   3.833   4.452 -0.2839  0.5474  0.3200
 7866TIP3    H145013   1.765   3.918   4.423 -2.1486 -0.7887 -1.9934
 7866TIP3    H245014   1.886   3.828   4.420 -0.6598  1.0992 -0.8945
 7867TIP3   OH245015   1.679   2.815  16.352 -0.2069 -0.3100 -0.7160
 7867TIP3    H145016   1.753   2.758  16.330  0.6228  0.1133  0.8334
 7867TIP3    H245017   1.718   2.902  16.360 -0.6017 -0.2651  1.2961
 7868TIP3   OH245018   0.476   4.495   6.292 -0.3928  0.1560 -0.3418
 7868TIP3    H145019   0.429   4.458   6.367 -0.4950  2.0149  0.5793
 7868TIP3    H245020   0.482   4.589   6.312 -0.8174  0.7910 -2.8758
 7869TIP3   OH245021   3.703   6.324  14.709 -0.0468 -0.5801 -0.3128
 7869TIP3    H145022   3.635   6.370  14.758  0.1446 -0.7644  0.1352
 7869TIP3    H245023   3.661   6.296  14.628 -0.1252  0.5066 -0.6552
 7870TIP3   OH245024   3.734   0.113   6.209 -0.2372  0.2630  0.3706
 7870TIP3    H145025   3.796   0.069   6.151  0.4129  1.1519  0.3830
 7870TIP3    H245026   3.738   0.063   6.291 -1.2901 -1.1053 -0.3691
 7871TIP3   OH245027   0.724   4.637   1.839  0.2073 -0.3034  0.3640
 7871TIP3    H145028   0.789   4.668   1.902  0.9637 -0.7334 -0.1901
 7871TIP3    H245029   0.682   4.564   1.883  0.5128 -0.4038  0.4925
 7872TIP3   OH245030   0.963   4.629   4.099  0.0969 -0.0774 -0.7336
 7872TIP3    H145031   0.933   4.540   4.080  0.8295 -0.1673 -1.4920
 7872TIP3    H245032   0.882   4.679   4.111 -0.3250 -0.8090 -0.4188
 7873TIP3   OH245033   5.094   3.655  14.688 -0.1567 -0.0749 -0.6435
 7873TIP3    H145034   5.131   3.738  14.717 -0.0734 -0.7791  1.4524
 7873TIP3    H245035   5.136   3.638  14.603 -0.6506  2.2795 -1.4274
 7874TIP3   OH245036   3.727   0.957   1.562 -0.1639 -0.5649  0.5053
 7874TIP3    H145037   3.778   0.876   1.563 -1.5261 -1.4469  0.9776
 7874TIP3    H245038   3.640   0.931   1.589 -0.3643  1.2643  1.7989
 7875TIP3   OH245039   1.946   1.642   3.497  0.2252 -0.9781  0.6723
 7875TIP3    H145040   2.021   1.678   3.543  0.1162 -1.9816  1.6775
 7875TIP3    H245041   1.884   1.715   3.490  1.6443  0.1348 -1.0503
 7876TIP3   OH245042   6.685   0.286  15.481  0.7172  0.3986  0.3267
 7876TIP3    H145043   6.626   0.360  15.493 -0.3621 -0.1354 -1.2833
 7876TIP3    H245044   6.740   0.285  15.559 -3.0166 -0.5850  3.2406
 7877TIP3   OH245045   6.244   5.959  12.667 -0.0562  0.0163 -0.3445
 7877TIP3    H145046   6.328   5.955  12.713 -1.3314  0.8637  2.2789
 7877TIP3    H245047   6.261   6.015  12.591  1.8649 -0.3034 -0.2087
 7878TIP3   OH245048   4.418   6.295   2.392 -0.1328 -0.1121 -0.1362
 7878TIP3    H145049   4.405   6.265   2.482  0.9470  0.7282  0.3243
 7878TIP3    H245050   4.330   6.316   2.361 -0.7946 -2.6054 -0.1069
 7879TIP3   OH245051   3.216   4.546  12.278 -0.0222 -0.3688  0.4364
 7879TIP3    H145052   3.209   4.487  12.353  2.0752 -1.7027 -0.3247
 7879TIP3    H245053   3.148   4.516  12.217 -0.2023 -0.7895  0.8433
 7880TIP3   OH245054   1.461   2.606   3.059 -0.2725  0.0346  0.0929
 7880TIP3    H145055   1.434   2.649   3.140  0.3120  1.0105 -0.2036
 7880TIP3    H245056   1.383   2.561   3.028 -0.6823  0.2170  0.8494
 7881TIP3   OH245057   6.064   5.022   3.180  0.7269 -0.3681  0.4997
 7881TIP3    H145058   6.097   5.101   3.137  0.6890  0.2879  1.6370
 7881TIP3    H245059   6.128   4.954   3.158  0.0864 -0.3791 -1.5659
 7882TIP3   OH245060   1.058   3.709   3.735 -0.3670 -0.2413  0.8528
 7882TIP3    H145061   1.063   3.613   3.733 -2.4564 -0.3953 -0.8283
 7882TIP3    H245062   1.086   3.736   3.648 -1.6947  0.5103  0.6339
 7883TIP3   OH245063   1.101   4.464  14.751  0.6771 -0.2663 -0.0120
 7883TIP3    H145064   1.169   4.457  14.684  2.1438  1.0733  1.2856
 7883TIP3    H245065   1.069   4.554  14.743 -1.2526 -0.9598 -0.8301
 7884TIP3   OH245066   2.962   5.257  13.888  0.3598 -0.7060  0.4431
 7884TIP3    H145067   2.951   5.312  13.811  3.8143  0.1771  0.4104
 7884TIP3    H245068   2.873   5.236  13.916 -1.0249  0.5746 -2.5851
 7885TIP3   OH245069   2.486   4.179  16.411  0.2788  0.2251  0.7499
 7885TIP3    H145070   2.437   4.106  16.375  0.8929 -0.1765  0.7060
 7885TIP3    H245071   2.573   4.172  16.372  0.6203  0.4346  1.4401
 7886TIP3   OH245072   2.811   3.386   4.515  0.5072  0.3451  0.7555
 7886TIP3    H145073   2.719   3.361   4.502  0.3728 -0.1691  2.5338
 7886TIP3    H245074   2.857   3.347   4.440 -0.5656 -0.3255  0.4260
 7887TIP3   OH245075   3.755   0.181   3.518 -1.0856  0.3562 -0.2938
 7887TIP3    H145076   3.778   0.267   3.483 -0.3485 -0.6748 -2.5666
 7887TIP3    H245077   3.826   0.124   3.490 -1.3939 -0.9646  1.4296
 7888TIP3   OH245078   0.731   5.705  15.445  0.2693  0.1885 -0.1964
 7888TIP3    H145079   0.667   5.637  15.470  0.7724 -0.6987 -1.2305
 7888TIP3    H245080   0.677   5.776  15.411 -0.2851  0.4607  1.1702
 7889TIP3   OH245081   2.451   3.959  17.047  0.3058  0.2406 -0.4904
 7889TIP3    H145082   2.448   3.877  16.998  1.7709  0.1972 -0.5658
 7889TIP3    H245083   2.462   3.931  17.138  0.5410  0.3492 -0.4863
 7890TIP3   OH245084   0.774   1.631  11.141 -0.0614 -0.3812 -1.1834
 7890TIP3    H145085   0.819   1.560  11.186  0.7928 -1.4981 -3.6157
 7890TIP3    H245086   0.833   1.706  11.149 -0.7469 -0.0350  0.9956
 7891TIP3   OH245087   2.449   1.273  13.395 -0.5050 -0.4348  0.3288
 7891TIP3    H145088   2.508   1.216  13.445  0.5039  0.5267  0.2552
 7891TIP3    H245089   2.447   1.355  13.444 -1.3173 -0.2501  0.0022
 7892TIP3   OH245090   2.552   1.631   4.269 -0.5417 -0.3994 -0.1095
 7892TIP3    H145091   2.492   1.567   4.307 -1.3671  0.5870  0.3284
 7892TIP3    H245092   2.503   1.670   4.197 -0.3685  0.2857  0.1322
 7893TIP3   OH245093   6.242   1.571   5.561  0.2101 -0.4513 -0.6870
 7893TIP3    H145094   6.272   1.597   5.648  2.1351 -2.8325 -0.5645
 7893TIP3    H245095   6.156   1.531   5.577 -0.2605  0.6830 -0.1866
 7894TIP3   OH245096   4.025   2.846  16.824 -0.0226  0.4378 -0.5054
 7894TIP3    H145097   4.061   2.931  16.798 -0.1116  0.1833 -1.4984
 7894TIP3    H245098   4.070   2.825  16.906  0.2854  1.2566 -0.4489
 7895TIP3   OH245099   0.485   5.582  15.446 -0.0474  0.1590 -0.0098
 7895TIP3    H145100   0.450   5.511  15.499  1.5871  0.5594  1.7178
 7895TIP3    H245101   0.424   5.654  15.460  0.5810  0.4098  1.8168
 7896TIP3   OH245102   1.462   0.220   3.050 -0.2635 -0.8110 -0.0487
 7896TIP3    H145103   1.498   0.271   2.977 -1.0313  0.1947  0.2552
 7896TIP3    H245104   1.389   0.172   3.012 -0.3214 -0.7131 -0.0614
 7897TIP3   OH245105   6.264   3.279  15.975  0.4581  0.3482  0.1864
 7897TIP3    H145106   6.292   3.190  15.995 -0.7300  0.4142  2.4536
 7897TIP3    H245107   6.307   3.333  16.041 -0.7437  1.1201  0.3584
 7898TIP3   OH245108   4.579   2.753  12.368 -0.0027 -0.2460  0.1001
 7898TIP3    H145109   4.596   2.835  12.415 -0.0292 -0.8654  1.2380
 7898TIP3    H245110   4.664   2.708  12.368  0.1639  0.0411 -1.0785
 7899TIP3   OH245111   6.456   4.014  12.272  0.5100 -0.3340 -0.3675
 7899TIP3    H145112   6.443   3.952  12.343  1.3532  1.1636  1.1761
 7899TIP3    H245113   6.371   4.020  12.229 -0.0785 -1.0935  0.6597
 7900TIP3   OH245114   2.063   6.042  14.769  0.0979 -0.3394 -0.4658
 7900TIP3    H145115   2.048   6.083  14.684 -1.5356  0.6007  0.2261
 7900TIP3    H245116   2.001   5.969  14.772 -0.2332 -0.0457  0.0977
 7901TIP3   OH245117   2.715   5.065   2.007  0.4567  0.3611  0.0881
 7901TIP3    H145118   2.676   5.070   1.920  0.7090  0.5992 -0.0121
 7901TIP3    H245119   2.774   5.141   2.012  1.6161 -0.5087 -0.1115
 7902TIP3   OH245120   1.713   1.737   5.644 -0.1914  0.5120 -0.1667
 7902TIP3    H145121   1.777   1.771   5.707  0.7403  1.6537 -1.6760
 7902TIP3    H245122   1.730   1.643   5.642  0.3270  0.5701  0.6518
 7903TIP3   OH245123   6.667   1.447   5.515 -0.0748 -0.0682 -0.9272
 7903TIP3    H145124   6.595   1.421   5.457  0.2883 -3.3284 -0.1104
 7903TIP3    H245125   6.745   1.441   5.460  0.1169 -1.8567 -0.5165
 7904TIP3   OH245126   5.506   4.897   4.138  0.4278 -0.3237  0.4665
 7904TIP3    H145127   5.566   4.969   4.159  2.5580 -2.0648  0.6894
 7904TIP3    H245128   5.508   4.891   4.043  1.0597 -0.7288  0.5021
 7905TIP3   OH245129   6.363   1.621  13.828 -0.4375 -0.4822  0.3000
 7905TIP3    H145130   6.457   1.641  13.827 -0.6636  0.8015  1.1486
 7905TIP3    H245131   6.331   1.649  13.743 -0.0645 -0.8195  0.0493
 7906TIP3   OH245132   6.575   3.600   3.090 -0.3262  0.1886 -0.4563
 7906TIP3    H145133   6.496   3.572   3.044 -0.5202  0.7724 -0.4988
 7906TIP3    H245134   6.632   3.634   3.021 -1.0609  2.0952 -0.1977
 7907TIP3   OH245135   4.594   1.962  13.551 -0.5123 -0.7786  0.3189
 7907TIP3    H145136   4.536   1.952  13.476 -1.6044 -0.3462  1.0695
 7907TIP3    H245137   4.540   1.937  13.626 -0.7062  2.3432  1.3624
 7908TIP3   OH245138   5.884   1.548   1.023  0.2722  0.6504 -0.5900
 7908TIP3    H145139   5.795   1.512   1.020  1.0660 -1.4313 -0.8165
 7908TIP3    H245140   5.871   1.641   1.037 -1.9629  0.4861 -1.1341
 7909TIP3   OH245141   3.231   2.665   4.175  0.0321  0.4775  0.9561
 7909TIP3    H145142   3.226   2.579   4.134  2.8248  1.0352 -0.8076
 7909TIP3    H245143   3.272   2.649   4.260  0.5513  0.0662  0.6311
 7910TIP3   OH245144   4.322   4.880   2.952  0.4652  0.5309 -0.2201
 7910TIP3    H145145   4.238   4.883   2.907 -0.5412  0.8024  1.6077
 7910TIP3    H245146   4.325   4.793   2.993  0.8727  0.6987  0.1167
 7911TIP3   OH245147   4.155   3.873  13.091  0.3394  0.3937 -0.0328
 7911TIP3    H145148   4.132   3.966  13.101 -1.6962  0.1346 -1.7425
 7911TIP3    H245149   4.177   3.845  13.180 -0.7867  2.0756  0.8358
 7912TIP3   OH245150   3.913   4.084   0.374  0.6613  0.2453  0.3280
 7912TIP3    H145151   3.922   4.042   0.288  0.4349 -0.1643  0.5013
 7912TIP3    H245152   3.963   4.027   0.433 -0.3835 -0.2820  0.7269
 7913TIP3   OH245153   1.328   2.672  11.912 -0.0925  0.1100  0.5102
 7913TIP3    H145154   1.291   2.707  11.993  1.0694 -0.7171  1.4317
 7913TIP3    H245155   1.291   2.583  11.906  0.3095 -0.0550  0.4658
 7914TIP3   OH245156   6.483   0.850  12.647  0.3442  0.0757 -0.0469
 7914TIP3    H145157   6.502   0.904  12.724  0.5316  0.1926 -0.1728
 7914TIP3    H245158   6.457   0.914  12.580  1.3894  0.0945 -0.4541
 7915TIP3   OH245159   5.676   1.552   3.521 -0.1661 -0.2108  0.6839
 7915TIP3    H145160   5.609   1.576   3.585 -1.8750  1.0811 -1.4299
 7915TIP3    H245161   5.721   1.634   3.501 -0.5610 -0.2942 -0.6771
 7916TIP3   OH245162   6.387   2.110   3.153  0.3265  0.8099  0.3659
 7916TIP3    H145163   6.374   2.052   3.228  0.0350  0.4391  0.0380
 7916TIP3    H245164   6.308   2.163   3.149  0.5869  1.2280  0.6566
 7917TIP3   OH245165   2.810   0.147  13.409  0.3597 -0.0919 -0.2063
 7917TIP3    H145166   2.837   0.180  13.324 -2.9183  0.7748 -1.0634
 7917TIP3    H245167   2.734   0.200  13.433  0.5581 -0.9670  2.8145
 7918TIP3   OH245168   3.543   3.204  14.820  0.2622 -0.6074  0.5641
 7918TIP3    H145169   3.612   3.156  14.865  1.5647  1.4968  0.9213
 7918TIP3    H245170   3.557   3.184  14.727  0.8935 -0.7446  0.6874
 7919TIP3   OH245171   6.045   3.620   6.447 -0.1644  0.0901  0.1746
 7919TIP3    H145172   6.084   3.705   6.425  0.7008 -0.8216 -2.0321
 7919TIP3    H245173   6.117   3.558   6.440 -1.8407 -1.7025 -4.3352
 7920TIP3   OH245174   0.388   1.307   5.599  0.0722 -0.6393  0.3773
 7920TIP3    H145175   0.301   1.267   5.597  0.1990 -0.9251  0.5488
 7920TIP3    H245176   0.443   1.243   5.644  0.4168 -0.5489  0.0905
 7921TIP3   OH245177   0.071   0.766  13.299  0.3278  0.4680  0.5142
 7921TIP3    H145178   0.109   0.718  13.372  0.4001 -1.1875 -0.5637
 7921TIP3    H245179   0.135   0.757  13.228 -0.4272  0.7325 -0.2262
 7922TIP3   OH245180   0.706   6.030   0.640 -0.1950 -0.9953 -0.3786
 7922TIP3    H145181   0.796   6.002   0.657 -0.2484 -0.3756  1.0581
 7922TIP3    H245182   0.668   5.957   0.590  0.8627 -1.6105 -0.3358
 7923TIP3   OH245183   0.552   5.867   5.701  0.0710 -0.2440 -0.2465
 7923TIP3    H145184   0.603   5.897   5.625 -1.7380 -0.0337 -1.4342
 7923TIP3    H245185   0.572   5.931   5.770  1.0338  0.0909 -0.8199
 7924TIP3   OH245186   6.430   6.288  13.256  0.0516 -0.2351 -0.0373
 7924TIP3    H145187   6.423   6.318  13.165 -2.2270  0.9650  0.4693
 7924TIP3    H245188   6.410   6.194  13.252 -0.1154 -0.1739 -0.7654
 7925TIP3   OH245189   4.258   0.405  13.889 -0.1415 -0.4834 -0.2095
 7925TIP3    H145190   4.318   0.376  13.821  3.0701  0.4728  1.9934
 7925TIP3    H245191   4.230   0.325  13.933  1.0362 -0.8707 -0.1402
 7926TIP3   OH245192   6.110   4.058   4.832 -0.0848 -0.2560  0.2578
 7926TIP3    H145193   6.101   4.151   4.851  0.4142 -0.4719  1.6730
 7926TIP3    H245194   6.061   4.014   4.901 -2.4318 -1.0562 -1.7675
 7927TIP3   OH245195   6.218   0.773  12.505  0.8135  0.3230  0.0438
 7927TIP3    H145196   6.282   0.706  12.483  2.1717  1.6808 -0.2688
 7927TIP3    H245197   6.268   0.855  12.507 -1.0308  1.5331 -0.8683
 7928TIP3   OH245198   5.808   6.083   0.968  0.4615 -0.1733 -0.4771
 7928TIP3    H145199   5.818   5.996   1.006 -1.1376 -0.0478  0.3370
 7928TIP3    H245200   5.859   6.141   1.026 -0.4933 -0.2437  0.4676
 7929TIP3   OH245201   1.832   1.331   3.036 -0.1203  0.1429 -0.3676
 7929TIP3    H145202   1.764   1.398   3.026 -1.9951 -1.2081  2.3204
 7929TIP3    H245203   1.875   1.353   3.118  2.2952  0.5271 -1.6568
 7930TIP3   OH245204   2.109   2.327   2.955 -0.6881  0.2050  0.0813
 7930TIP3    H145205   2.049   2.276   3.010 -1.5842  0.8167 -0.3095
 7930TIP3    H245206   2.053   2.387   2.907  0.3114  1.2392  0.1692
 7931TIP3   OH245207   5.830   1.575   4.260  0.4576  0.0057 -0.1204
 7931TIP3    H145208   5.767   1.505   4.276 -0.3408  1.2227  2.6889
 7931TIP3    H245209   5.855   1.565   4.168 -1.9496 -2.0359 -0.6518
 7932TIP3   OH245210   5.600   2.158   6.160  0.2890 -0.0630 -0.0630
 7932TIP3    H145211   5.674   2.213   6.136 -0.8646  1.3214 -0.5668
 7932TIP3    H245212   5.523   2.213   6.148 -0.8213 -1.3396  0.7900
 7933TIP3   OH245213   2.176   0.295   6.847 -0.2813 -0.0736 -0.1332
 7933TIP3    H145214   2.110   0.335   6.902 -0.3183 -1.1863  0.6581
 7933TIP3    H245215   2.224   0.237   6.905  1.2337  0.5073 -0.7456
 7934TIP3   OH245216   3.245   2.592   3.895 -0.3766  0.0219 -0.0396
 7934TIP3    H145217   3.295   2.644   3.832 -0.7316 -1.1704 -1.3432
 7934TIP3    H245218   3.162   2.639   3.904  0.3761  1.2239  1.0373
 7935TIP3   OH245219   1.590   6.443   2.324  0.6725 -0.1483 -0.3097
 7935TIP3    H145220   1.525   6.509   2.347 -0.7969 -1.8609  0.7780
 7935TIP3    H245221   1.577   6.428   2.230 -2.0282 -1.8787  0.2285
 7936TIP3   OH245222   4.082   5.160   4.088  0.5684 -0.0709  0.2687
 7936TIP3    H145223   4.175   5.162   4.066  0.6136 -2.2838  0.0306
 7936TIP3    H245224   4.038   5.153   4.003  0.3489 -1.5279  0.4825
 7937TIP3   OH245225   2.125   2.689  16.722  0.3529  0.0685  0.8948
 7937TIP3    H145226   2.199   2.651  16.674 -0.5852 -2.1031  1.0616
 7937TIP3    H245227   2.163   2.762  16.771  1.6311  1.5367 -1.9753
 7938TIP3   OH245228   3.316   3.338  11.681 -0.3870 -0.1760  0.1344
 7938TIP3    H145229   3.355   3.251  11.683  0.9452  0.2616 -2.3179
 7938TIP3    H245230   3.339   3.377  11.766  0.3265 -1.6507  0.6504
 7939TIP3   OH245231   1.795   0.969  13.394 -0.2367  0.7933 -0.3378
 7939TIP3    H145232   1.858   0.979  13.465  0.3908 -3.2656 -0.0884
 7939TIP3    H245233   1.724   0.918  13.433 -2.4574  2.8666 -1.3898
 7940TIP3   OH245234   0.680   2.621  10.847  0.1453 -0.1339 -0.2053
 7940TIP3    H145235   0.678   2.639  10.941  2.4463 -1.3594  0.1504
 7940TIP3    H245236   0.589   2.604  10.824 -0.1361 -3.8710  2.7093
 7941TIP3   OH245237   6.020   0.017  14.262  0.3077  0.6907 -0.2077
 7941TIP3    H145238   6.081  -0.057  14.263 -1.1737 -0.6098  1.3900
 7941TIP3    H245239   5.968   0.003  14.183  0.1151  0.0661  0.0194
 7942TIP3   OH245240   2.119   1.460  13.649 -0.5364  0.7147  0.6403
 7942TIP3    H145241   2.119   1.438  13.743  3.1668  2.6549  1.3019
 7942TIP3    H245242   2.149   1.551  13.646  0.4849  0.3949 -2.4666
 7943TIP3   OH245243   6.745   0.598   0.117  0.4656  0.3950 -0.3800
 7943TIP3    H145244   6.814   0.569   0.177 -0.9447 -0.2313  0.9933
 7943TIP3    H245245   6.793   0.628   0.039  2.2160 -3.3990 -1.0451
 7944TIP3   OH245246   3.458   5.263   4.554  0.1765  0.3155 -0.6069
 7944TIP3    H145247   3.389   5.204   4.583  1.3270  0.4134  2.6641
 7944TIP3    H245248   3.420   5.350   4.562  0.3903  0.3238  0.3558
 7945TIP3   OH245249   1.467   3.326   2.442  0.1878 -0.1797 -0.1196
 7945TIP3    H145250   1.510   3.358   2.363 -0.2553  1.1534  0.1704
 7945TIP3    H245251   1.530   3.263   2.479  1.0870  0.3692 -0.6819
 7946TIP3   OH245252   2.713   1.776   4.799  0.2024 -0.4889  1.1722
 7946TIP3    H145253   2.777   1.841   4.767 -0.3205  1.0016  2.9708
 7946TIP3    H245254   2.635   1.793   4.746  0.2536 -0.0314  1.2342
 7947TIP3   OH245255   0.480   6.408   0.063  0.6431  0.7284 -0.0155
 7947TIP3    H145256   0.493   6.494   0.101 -1.2134  1.0409 -0.0164
 7947TIP3    H245257   0.411   6.420  -0.002  0.6203 -0.6793 -0.2858
 7948TIP3   OH245258   5.238   3.366   0.208 -0.1842  0.1515 -0.5153
 7948TIP3    H145259   5.301   3.297   0.185 -0.0814 -0.5375  1.5965
 7948TIP3    H245260   5.293   3.441   0.231 -0.0964 -0.3138  0.9044
 7949TIP3   OH245261   2.856   4.684  14.988 -0.1641 -0.3331 -0.2461
 7949TIP3    H145262   2.831   4.676  15.080  0.7974 -0.8015 -0.0100
 7949TIP3    H245263   2.875   4.777  14.977  0.0250 -0.3227  0.1228
 7950TIP3   OH245264   2.110   6.356   5.723  0.3432  0.2669 -0.4313
 7950TIP3    H145265   2.125   6.267   5.690 -0.5291  0.7865 -2.4105
 7950TIP3    H245266   2.036   6.347   5.783  2.5478 -0.8625  2.3602
 7951TIP3   OH245267   0.092   3.299   4.398  0.2745 -0.1351  0.2844
 7951TIP3    H145268   0.151   3.333   4.466  0.4016  0.6359 -0.2003
 7951TIP3    H245269   0.012   3.277   4.445  0.3349  0.4599  0.6856
 7952TIP3   OH245270   2.725   1.344   4.901 -0.4103 -0.6132  0.2659
 7952TIP3    H145271   2.662   1.358   4.831 -0.4722  1.5525  0.6804
 7952TIP3    H245272   2.780   1.271   4.871 -1.0695 -0.3967 -1.5458
 7953TIP3   OH245273   0.078   6.619  14.455 -0.3864 -0.2769 -0.3911
 7953TIP3    H145274   0.110   6.548  14.511 -0.9635 -1.6202 -1.7120
 7953TIP3    H245275   0.147   6.686  14.461 -0.9803  0.2183  2.8685
 7954TIP3   OH245276   0.926   2.179   6.259 -0.1803  0.7867  0.4866
 7954TIP3    H145277   0.911   2.213   6.170 -1.9522 -0.9697  0.0227
 7954TIP3    H245278   1.002   2.227   6.291  1.1441  0.8131 -2.3541
 7955TIP3   OH245279   0.140   4.719   2.015 -0.8914  0.1604 -0.0387
 7955TIP3    H145280   0.186   4.743   2.096 -1.4539 -0.0426  0.3489
 7955TIP3    H245281   0.048   4.742   2.032 -0.7832  1.7103 -1.2477
 7956TIP3   OH245282   1.951   6.295  13.941  0.7166 -0.0018 -0.4581
 7956TIP3    H145283   1.972   6.243  13.863  1.2546 -0.4680 -0.0114
 7956TIP3    H245284   1.944   6.385  13.908  0.1727 -0.2971 -1.1673
 7957TIP3   OH245285   2.815   3.390  14.594  0.1897 -0.2707  0.1636
 7957TIP3    H145286   2.762   3.388  14.514 -0.2090  0.6472  0.3984
 7957TIP3    H245287   2.794   3.308  14.638 -1.4564  0.2930  0.5006
 7958TIP3   OH245288   5.496   2.643  15.873  0.0791 -0.3937 -0.3140
 7958TIP3    H145289   5.577   2.613  15.833 -0.0176 -1.9131  0.5327
 7958TIP3    H245290   5.432   2.642  15.801  0.5153 -0.4525 -0.7030
 7959TIP3   OH245291   0.905   5.837   4.202  0.2882 -0.2184  1.0932
 7959TIP3    H145292   0.880   5.746   4.218 -0.1722  0.2378  3.1950
 7959TIP3    H245293   0.970   5.857   4.270  1.2844  0.7008 -0.0706
 7960TIP3   OH245294   4.350   5.230   3.256 -0.6389 -0.2150  0.1221
 7960TIP3    H145295   4.381   5.288   3.326 -1.4775  1.4710 -0.8235
 7960TIP3    H245296   4.401   5.255   3.180 -1.7738  0.0771 -0.5691
 7961TIP3   OH245297   1.422   0.740  17.209 -0.4246  0.7297  0.1817
 7961TIP3    H145298   1.330   0.762  17.199 -0.4824  0.2712 -0.3045
 7961TIP3    H245299   1.426   0.645  17.199 -0.1618  0.4944  2.1033
 7962TIP3   OH245300   2.629   2.701   0.375 -0.1063  0.2627  0.1839
 7962TIP3    H145301   2.714   2.683   0.416 -0.3314  0.1433  0.6049
 7962TIP3    H245302   2.644   2.686   0.282 -0.0471 -1.2755  0.4050
 7963TIP3   OH245303   2.056   0.064  14.996 -0.1585  0.0112 -0.1673
 7963TIP3    H145304   2.014   0.148  14.977 -2.1250 -0.3262  2.1324
 7963TIP3    H245305   2.019   0.003  14.932 -1.3149  0.2398  0.2633
 7964TIP3   OH245306   1.655   4.671   1.889  0.0618  0.0827  0.1405
 7964TIP3    H145307   1.711   4.650   1.814  0.8999  1.7347  0.2603
 7964TIP3    H245308   1.670   4.599   1.951 -0.5905 -1.2567 -1.2113
 7965TIP3   OH245309   6.283   0.503   3.392 -0.0487 -0.1394  0.1686
 7965TIP3    H145310   6.226   0.427   3.395 -1.2010  0.7015  0.4425
 7965TIP3    H245311   6.364   0.471   3.353 -0.4280 -1.5390  0.4753
 7966TIP3   OH245312   4.788   3.576   2.904  0.2181  0.1943 -0.2129
 7966TIP3    H145313   4.773   3.663   2.868  1.6883  0.0457 -1.2579
 7966TIP3    H245314   4.756   3.516   2.836  0.3174 -0.0903 -0.0084
 7967TIP3   OH245315   1.117   0.396   6.852  0.3430  0.3248  0.2940
 7967TIP3    H145316   1.179   0.348   6.797 -0.2278  0.9580 -0.9417
 7967TIP3    H245317   1.156   0.393   6.940  1.1490 -0.9280 -0.0721
 7968TIP3   OH245318   0.921   1.346  15.815  0.0392  0.3279 -0.0154
 7968TIP3    H145319   0.845   1.395  15.783  1.2661  2.0049 -0.4713
 7968TIP3    H245320   0.972   1.327  15.737  1.1361  1.0797  0.4989
 7969TIP3   OH245321   2.313   5.772   3.654 -0.4507 -0.1510 -0.1727
 7969TIP3    H145322   2.403   5.752   3.627 -0.6715 -0.6137 -0.5629
 7969TIP3    H245323   2.324   5.819   3.737  0.1284 -0.8691  0.1716
 7970TIP3   OH245324   5.937   1.272   0.333  0.2127  0.3510 -0.1543
 7970TIP3    H145325   5.879   1.244   0.263 -0.7637  0.4983  0.5769
 7970TIP3    H245326   5.897   1.238   0.413  2.0709 -1.0854  0.2461
 7971TIP3   OH245327   1.653   2.952   2.829 -0.4340 -0.3192  0.5987
 7971TIP3    H145328   1.699   2.962   2.745 -0.4927 -0.6781  0.5208
 7971TIP3    H245329   1.561   2.941   2.804 -0.6229  0.7725  0.7716
 7972TIP3   OH245330   0.489   1.479   0.275  0.1599  0.5539 -0.2482
 7972TIP3    H145331   0.484   1.535   0.198 -1.8156 -1.9139 -2.0709
 7972TIP3    H245332   0.415   1.505   0.329 -0.2443  0.3315 -0.6806
 7973TIP3   OH245333   1.138   2.028   1.123  0.4687 -0.0588  0.3543
 7973TIP3    H145334   1.141   2.088   1.048 -0.5275  0.3633  0.6369
 7973TIP3    H245335   1.058   2.051   1.169  0.6769 -0.8321  1.1320
 7974TIP3   OH245336   6.082   5.922   0.367 -0.6303 -0.3444  0.0126
 7974TIP3    H145337   6.098   5.877   0.284 -0.9174 -0.1122 -0.1727
 7974TIP3    H245338   6.065   5.851   0.430 -2.6856 -0.4880 -0.6143
 7975TIP3   OH245339   1.355   4.478   2.151  0.1283  0.2640 -0.2076
 7975TIP3    H145340   1.366   4.394   2.197  0.8749  0.2580 -0.3885
 7975TIP3    H245341   1.375   4.458   2.060  1.8932  0.9564 -0.0062
 7976TIP3   OH245342   1.904   0.102  11.499 -0.4486 -0.3263 -0.1352
 7976TIP3    H145343   1.934   0.046  11.427 -0.1690  0.8043 -0.9224
 7976TIP3    H245344   1.960   0.179  11.493  0.6332 -0.8443  2.2736
 7977TIP3   OH245345   1.812   0.873  16.062 -0.3164  0.0217 -0.4745
 7977TIP3    H145346   1.796   0.817  15.986 -0.1194  1.4478 -1.6115
 7977TIP3    H245347   1.895   0.916  16.043  0.1168 -0.1365  0.9174
 7978TIP3   OH245348   1.253   6.302  16.501  0.5899  0.3203 -0.1261
 7978TIP3    H145349   1.326   6.351  16.537  0.5927 -0.1253  0.4889
 7978TIP3    H245350   1.287   6.264  16.420  0.8312  0.6685 -0.1887
 7979TIP3   OH245351   5.753   6.323   1.860 -0.3581 -0.3963 -0.1014
 7979TIP3    H145352   5.736   6.237   1.897 -1.1719  0.1471  0.8494
 7979TIP3    H245353   5.739   6.384   1.933 -2.4335  0.7691 -1.3585
 7980TIP3   OH245354   2.106   0.675   2.888 -0.3785 -0.5331  0.0385
 7980TIP3    H145355   2.153   0.687   2.971  2.9514  0.0211 -1.7424
 7980TIP3    H245356   2.092   0.764   2.856  2.2777 -0.6919 -1.8694
 7981TIP3   OH245357   1.094   0.120  16.316 -0.2352  0.5849  0.0896
 7981TIP3    H145358   1.024   0.054  16.322 -0.6873  0.9721 -0.7200
 7981TIP3    H245359   1.173   0.069  16.297 -0.7301  0.3195 -1.3711
 7982TIP3   OH245360   0.493   1.029  12.656  0.1249 -0.2488 -0.1602
 7982TIP3    H145361   0.514   0.937  12.673 -0.6882 -0.1715  1.4241
 7982TIP3    H245362   0.553   1.054  12.585  1.5049 -1.5415  0.4803
 7983TIP3   OH245363   0.177   0.832  15.663  0.0921 -0.9082 -0.1352
 7983TIP3    H145364   0.202   0.795  15.578  0.2950  0.3386 -0.6479
 7983TIP3    H245365   0.082   0.822  15.667 -0.4046  1.8705 -2.0074
 7984TIP3   OH245366   5.637   3.408   1.045 -0.2285 -0.1183  0.3286
 7984TIP3    H145367   5.578   3.372   1.112  0.6589 -0.9937  0.6733
 7984TIP3    H245368   5.673   3.330   1.002  1.7496  0.3308  1.0848
 7985TIP3   OH245369   1.905   5.172  14.621 -0.6407  0.0492  0.5202
 7985TIP3    H145370   1.904   5.265  14.595 -0.3335 -0.0841  0.0113
 7985TIP3    H245371   1.819   5.140  14.594  0.1245 -0.3985 -1.5714
 7986TIP3   OH245372   2.084   2.964  12.258  0.2576 -0.3603 -0.0854
 7986TIP3    H145373   2.144   2.894  12.231  0.3898  0.1610 -1.2118
 7986TIP3    H245374   1.997   2.923  12.254  0.3645 -0.5654 -0.3940
 7987TIP3   OH245375   1.104   5.942  13.306  0.0490  0.1469  0.2914
 7987TIP3    H145376   1.060   6.007  13.361  1.6792  0.0561  1.8182
 7987TIP3    H245377   1.035   5.907  13.250 -1.1374  2.2614  0.3081
 7988TIP3   OH245378   5.457   2.526   3.629  0.4868 -0.1689 -0.9058
 7988TIP3    H145379   5.451   2.456   3.564  0.8368 -2.4054  1.3056
 7988TIP3    H245380   5.375   2.521   3.679  1.5933 -0.8355  0.9502
 7989TIP3   OH245381   3.386   2.030   3.674 -0.3933  0.0018 -0.0629
 7989TIP3    H145382   3.333   2.070   3.744  0.2129 -0.4374  0.6564
 7989TIP3    H245383   3.473   2.021   3.712 -0.3867 -1.5229 -0.3805
 7990TIP3   OH245384   4.249   2.849   3.004  0.1789 -0.5922 -0.1774
 7990TIP3    H145385   4.260   2.910   2.931  0.1227 -0.8731 -0.4270
 7990TIP3    H245386   4.161   2.866   3.037  0.5498  0.1840  0.4368
 7991TIP3   OH245387   4.209   6.598  12.983 -0.2472 -0.0728 -0.5016
 7991TIP3    H145388   4.256   6.671  12.942 -1.4223  0.8627 -0.2281
 7991TIP3    H245389   4.161   6.637  13.055  0.4757 -1.4351  0.7767
 7992TIP3   OH245390   4.399   0.646  15.818  0.2481 -0.3910 -0.1544
 7992TIP3    H145391   4.308   0.617  15.811  0.3961 -0.8450 -0.2226
 7992TIP3    H245392   4.414   0.656  15.912 -0.9230  3.0943 -0.1976
 7993TIP3   OH245393   4.025   0.010  11.460  0.1209  0.2379  0.0008
 7993TIP3    H145394   3.962  -0.038  11.515  1.8691  1.3148  3.2099
 7993TIP3    H245395   4.092  -0.054  11.438 -1.1758 -0.5070 -2.0792
 7994TIP3   OH245396   5.963   2.625  13.798 -0.0044  0.2478  0.0650
 7994TIP3    H145397   5.895   2.654  13.737  0.4536  0.8869 -0.1630
 7994TIP3    H245398   5.920   2.622  13.883 -0.3892  0.3858 -0.1221
 7995TIP3   OH245399   5.434   6.380  17.285 -0.3399 -0.0297 -0.4334
 7995TIP3    H145400   5.379   6.440  17.235  2.0719  2.7987  0.0681
 7995TIP3    H245401   5.511   6.368  17.230  0.3757 -0.5346  0.6573
 7996TIP3   OH245402   1.379   4.209   2.320  0.1262 -0.2202  0.5683
 7996TIP3    H145403   1.467   4.212   2.355 -0.0230 -1.2748  1.0575
 7996TIP3    H245404   1.387   4.155   2.241 -0.1448 -0.6337  0.8214
 7997TIP3   OH245405   3.215   3.594   2.427 -0.1608  0.3259  0.5201
 7997TIP3    H145406   3.145   3.647   2.389 -1.6378 -1.7873  0.0765
 7997TIP3    H245407   3.296   3.632   2.393 -1.1778  1.9015 -0.2300
 7998TIP3   OH245408   4.955   3.454  14.829  0.2614 -0.4045  0.4379
 7998TIP3    H145409   4.990   3.516  14.765 -1.1239 -0.5078 -0.4606
 7998TIP3    H245410   5.033   3.418  14.873  1.1743  0.5286 -0.3704
 7999TIP3   OH245411   0.565   3.470   3.231 -0.2732 -0.3969 -0.0282
 7999TIP3    H145412   0.476   3.439   3.217 -0.2075 -0.3840 -0.5157
 7999TIP3    H245413   0.557   3.564   3.240 -0.2328 -0.3045 -0.8610
 8000TIP3   OH245414   5.857   4.833  13.489 -0.3967 -0.1976 -0.1058
 8000TIP3    H145415   5.848   4.743  13.519  3.7450 -0.5209  0.7504
 8000TIP3    H245416   5.860   4.828  13.394  0.2501 -1.0488 -0.0468
 8001TIP3   OH245417   2.234   3.340  14.138  0.0284  0.0487  0.2283
 8001TIP3    H145418   2.296   3.412  14.141 -1.1609  1.1351 -0.5469
 8001TIP3    H245419   2.278   3.273  14.086  1.3584 -0.0443  1.3973
 8002TIP3   OH245420   1.590   1.803  15.761  0.5188 -0.1963  0.4035
 8002TIP3    H145421   1.632   1.765  15.683 -0.4449 -1.5435  0.4956
 8002TIP3    H245422   1.546   1.729  15.802 -0.3309  0.8064  1.3551
 8003TIP3   OH245423   6.185   6.585   1.792  0.1987 -0.2636 -0.6519
 8003TIP3    H145424   6.242   6.568   1.868 -0.6524  0.4539  0.1799
 8003TIP3    H245425   6.131   6.659   1.820  0.5751  0.7080 -2.3679
 8004TIP3   OH245426   4.075   1.624  12.319  0.4700  0.2948  0.2849
 8004TIP3    H145427   4.091   1.589  12.231  0.8440  0.3756  0.3201
 8004TIP3    H245428   3.980   1.630  12.325  0.4690  1.3343 -0.5297
 8005TIP3   OH245429   1.157   5.188  13.077  0.0377  0.7734 -0.3458
 8005TIP3    H145430   1.220   5.250  13.113  0.9668 -0.3085 -0.0552
 8005TIP3    H245431   1.072   5.221  13.106  0.2491  3.2616 -2.2368
 8006TIP3   OH245432   2.112   1.443  12.640 -0.5885  0.6682  0.0168
 8006TIP3    H145433   2.040   1.456  12.578 -1.1768 -0.0801  0.5155
 8006TIP3    H245434   2.184   1.409  12.587 -1.0475  0.1425 -0.2791
 8007TIP3   OH245435   6.537   3.337   6.674  0.0438  0.1446 -0.3048
 8007TIP3    H145436   6.510   3.342   6.583  0.5609 -1.0093 -0.5441
 8007TIP3    H245437   6.470   3.284   6.717  0.3044 -0.1286 -0.2293
 8008TIP3   OH245438   6.257   5.853  15.907 -0.6127 -0.3290  0.4535
 8008TIP3    H145439   6.345   5.836  15.875 -0.3697  2.8442 -0.9445
 8008TIP3    H245440   6.200   5.819  15.838 -0.3149  0.7276 -0.3351
 8009TIP3   OH245441   6.532   3.214  12.822 -0.0289  0.9704 -0.5901
 8009TIP3    H145442   6.516   3.296  12.868  1.1604  0.9743 -0.1406
 8009TIP3    H245443   6.580   3.160  12.886  1.3591  0.8450 -1.7005
 8010TIP3   OH245444   1.450   6.545   0.397  0.4385 -0.3004 -0.3426
 8010TIP3    H145445   1.504   6.527   0.320  0.2665 -2.3056 -0.0634
 8010TIP3    H245446   1.360   6.527   0.368  0.0448  1.6008 -0.4015
 8011TIP3   OH245447   0.680   4.366   3.747  0.2941  0.3094 -0.2623
 8011TIP3    H145448   0.755   4.367   3.688  0.1125 -0.9976 -0.5568
 8011TIP3    H245449   0.678   4.277   3.781 -0.7756  0.4916  0.1848
 8012TIP3   OH245450   6.086   2.788   3.004 -0.0389 -0.5095  0.4557
 8012TIP3    H145451   6.159   2.849   3.016  1.2069 -1.7460 -0.4602
 8012TIP3    H245452   6.121   2.703   3.031 -1.3155 -1.0459  0.4772
 8013TIP3   OH245453   1.693   1.502   6.159  0.1443  0.1227  0.0951
 8013TIP3    H145454   1.686   1.584   6.110  1.3269  0.3884  0.3380
 8013TIP3    H245455   1.608   1.492   6.202 -0.3732  0.6739 -0.7652
 8014TIP3   OH245456   6.212   0.897   6.112  0.5568  0.9412 -0.2975
 8014TIP3    H145457   6.264   0.831   6.157 -3.2621 -2.3861 -0.2566
 8014TIP3    H245458   6.187   0.959   6.181 -0.8751 -1.1395  1.1456
 8015TIP3   OH245459   6.544   2.847   5.331 -0.0855  0.0223  0.7865
 8015TIP3    H145460   6.539   2.929   5.380  0.0046  0.8412 -0.5354
 8015TIP3    H245461   6.486   2.787   5.379 -2.0746  1.5552  0.4483
 8016TIP3   OH245462   3.407   2.260  17.259 -0.1773  0.0304 -0.0903
 8016TIP3    H145463   3.451   2.176  17.273 -1.9992 -1.4394 -2.4225
 8016TIP3    H245464   3.331   2.257  17.317 -0.9878 -0.5891 -1.1507
 8017TIP3   OH245465   4.184   0.505  14.884 -0.3235  0.2694  0.0906
 8017TIP3    H145466   4.275   0.531  14.901 -0.6232  0.8708  0.8516
 8017TIP3    H245467   4.171   0.426  14.936 -0.4602  0.6260  0.6074
 8018TIP3   OH245468   1.456   0.497  10.859  0.0795 -0.4606  0.2941
 8018TIP3    H145469   1.485   0.415  10.900 -1.4033 -0.7887  0.7449
 8018TIP3    H245470   1.462   0.481  10.765  0.1197 -0.9650  0.3810
 8019TIP3   OH245471   1.316   6.517  15.857  0.3097 -0.1246  0.0483
 8019TIP3    H145472   1.249   6.509  15.789  1.4278 -1.9220 -0.9181
 8019TIP3    H245473   1.311   6.609  15.884 -0.3634  0.6049 -2.2703
 8020TIP3   OH245474   1.995   1.030  14.473  0.4964  0.0165  0.7270
 8020TIP3    H145475   1.904   1.059  14.470  0.8420  1.0638 -0.3115
 8020TIP3    H245476   2.008   0.980  14.392  1.3972  1.6909 -0.2153
 8021TIP3   OH245477   3.762   3.896  13.122 -0.0595  0.0392 -0.5421
 8021TIP3    H145478   3.692   3.937  13.071 -0.5485 -0.7407 -0.5117
 8021TIP3    H245479   3.718   3.859  13.199  0.0627 -2.0443 -1.4057
 8022TIP3   OH245480   3.446   3.578  15.075  0.3251 -0.1872  0.3529
 8022TIP3    H145481   3.493   3.646  15.123  0.0408 -0.0576  0.4477
 8022TIP3    H245482   3.354   3.599  15.087  0.2264 -0.7368  0.5894
 8023TIP3   OH245483   0.527   6.650  17.029  0.1094  0.6122 -0.2866
 8023TIP3    H145484   0.520   6.736  17.071  0.5549  0.3032  0.4331
 8023TIP3    H245485   0.616   6.648  16.994 -0.1931  0.7895 -1.0963
 8024TIP3   OH245486   6.223   4.681   4.398  0.3349  0.2719 -0.5485
 8024TIP3    H145487   6.197   4.595   4.364 -0.9535  0.1037  0.7569
 8024TIP3    H245488   6.318   4.684   4.385  0.4906 -1.5429 -0.2133
 8025TIP3   OH245489   1.829   2.313  13.925 -0.0393 -0.4000  0.5230
 8025TIP3    H145490   1.912   2.296  13.880  0.3770 -2.7557  2.0268
 8025TIP3    H245491   1.855   2.355  14.007 -0.3034 -1.2111  1.0301
 8026TIP3   OH245492   3.977   6.235   2.891 -0.4524  0.0549 -0.3503
 8026TIP3    H145493   3.934   6.316   2.864 -2.6396  0.1576  2.8713
 8026TIP3    H245494   4.069   6.259   2.903 -0.9376  1.9305 -0.0542
 8027TIP3   OH245495   1.006   3.142   4.618 -0.8191 -0.3572 -0.0319
 8027TIP3    H145496   0.942   3.156   4.688 -0.3159 -2.0854  0.8186
 8027TIP3    H245497   0.974   3.197   4.546 -2.8125 -0.5255  0.6451
 8028TIP3   OH245498   2.551   3.951  15.218  0.5728  0.2350 -0.1102
 8028TIP3    H145499   2.522   3.865  15.188 -0.2108  0.2435  0.5811
 8028TIP3    H245500   2.629   3.932  15.270  0.4880 -0.0393 -0.0777
 8029TIP3   OH245501   3.411   1.577   6.324  0.1433  0.3171 -0.2960
 8029TIP3    H145502   3.381   1.587   6.414 -2.6632 -0.7112 -0.9943
 8029TIP3    H245503   3.369   1.497   6.293  0.9592  0.6689 -2.5304
 8030TIP3   OH245504   3.965   1.064  14.667 -0.3070  0.1563  0.0994
 8030TIP3    H145505   3.966   1.155  14.637  0.9943  0.0557 -0.2441
 8030TIP3    H245506   3.926   1.067  14.754  0.4454  1.1536  0.4107
 8031TIP3   OH245507   4.995   4.539   2.851 -0.1544  0.5506  0.6208
 8031TIP3    H145508   4.989   4.553   2.946  0.4462  0.3587  0.6936
 8031TIP3    H245509   5.073   4.485   2.840 -1.4767 -1.3672  0.2060
 8032TIP3   OH245510   2.858   6.602   5.220 -0.1550 -0.4072  0.3280
 8032TIP3    H145511   2.917   6.654   5.165  0.7032 -1.3758  0.3121
 8032TIP3    H245512   2.776   6.652   5.221  0.5929  0.8729  0.1906
 8033TIP3   OH245513   0.482   0.010  16.737 -0.3495 -0.1418  0.0780
 8033TIP3    H145514   0.403   0.012  16.791  1.0727  1.1154  2.2581
 8033TIP3    H245515   0.547   0.061  16.787  1.9820 -1.4858 -1.4008
 8034TIP3   OH245516   6.143   5.547  12.274 -0.4710 -0.5240  0.1857
 8034TIP3    H145517   6.233   5.518  12.264 -0.5904 -1.1288  0.8126
 8034TIP3    H245518   6.150   5.640  12.299  0.1275 -1.3067  3.3534
 8035TIP3   OH245519   0.377   2.106   4.285 -0.0184  0.9577 -0.3939
 8035TIP3    H145520   0.444   2.150   4.337 -0.6192  2.3267 -0.7076
 8035TIP3    H245521   0.425   2.061   4.216  0.6532  0.7594  0.1891
 8036TIP3   OH245522   0.141   2.494   4.898  0.2748  0.0099 -0.3915
 8036TIP3    H145523   0.149   2.398   4.900 -1.3739 -0.2554 -2.5904
 8036TIP3    H245524   0.048   2.510   4.916  0.6078  1.2542  0.3135
 8037TIP3   OH245525   5.689   0.649  15.027 -0.3809 -0.1918  0.1319
 8037TIP3    H145526   5.622   0.666  15.093 -1.4676 -3.9706  0.2600
 8037TIP3    H245527   5.772   0.663  15.072 -1.0908  0.5345  1.2518
 8038TIP3   OH245528   4.078   5.151   6.585 -0.2991 -0.1885  0.0859
 8038TIP3    H145529   4.018   5.208   6.634 -1.0975 -0.3192 -0.7193
 8038TIP3    H245530   4.149   5.209   6.559 -0.6920  0.2649 -0.0017
 8039TIP3   OH245531   5.964   2.466   5.014  0.3464  0.4047  0.1565
 8039TIP3    H145532   5.929   2.410   4.944 -0.1964  0.5783  0.2819
 8039TIP3    H245533   6.054   2.436   5.026 -0.0502 -0.6912  0.4742
 8040TIP3   OH245534   3.189   4.158   2.743  0.1588 -0.3702  0.3257
 8040TIP3    H145535   3.236   4.208   2.677  0.1839 -1.1903 -0.2939
 8040TIP3    H245536   3.199   4.067   2.716 -1.8942 -0.5709  0.1085
 8041TIP3   OH245537   0.669   0.440   3.231 -0.2204 -0.4926 -0.3893
 8041TIP3    H145538   0.602   0.507   3.215 -0.9921 -1.4024 -1.0151
 8041TIP3    H245539   0.723   0.442   3.152  1.6406  1.4709  0.8018
 8042TIP3   OH245540   1.219   5.778  16.983  0.1139 -0.6204 -0.6019
 8042TIP3    H145541   1.162   5.781  16.906 -1.8638  2.2453  0.8033
 8042TIP3    H245542   1.286   5.844  16.965  0.2937 -0.7326 -0.3372
 8043TIP3   OH245543   1.674   1.926  16.023  0.0766 -0.2485  0.2085
 8043TIP3    H145544   1.700   1.836  16.043  1.3368 -0.4160 -1.8448
 8043TIP3    H245545   1.656   1.925  15.929  1.7949  1.9864 -0.2399
 8044TIP3   OH245546   2.233   1.543  16.721  0.4843 -0.0316  0.0513
 8044TIP3    H145547   2.287   1.621  16.710 -1.1017  0.8858 -1.7921
 8044TIP3    H245548   2.158   1.572  16.772 -1.3856  0.4108 -2.7426
 8045TIP3   OH245549   4.014   4.360   0.911  1.0084 -0.0746 -0.4501
 8045TIP3    H145550   4.003   4.445   0.952  1.2837 -1.0063  1.7051
 8045TIP3    H245551   3.930   4.315   0.925  0.8781 -0.2002 -1.5225
 8046TIP3   OH245552   5.954   2.612   2.111 -0.6699 -0.4546 -0.0404
 8046TIP3    H145553   5.964   2.648   2.023  0.5238 -1.1275 -0.1894
 8046TIP3    H245554   6.003   2.530   2.110  1.1758  0.5469  1.8634
 8047TIP3   OH245555   0.976   1.031  17.062  0.6057 -0.8837  0.4681
 8047TIP3    H145556   1.068   1.009  17.050  0.7074 -1.0149  1.4392
 8047TIP3    H245557   0.973   1.127  17.055  0.8543 -0.8589  0.7091
 8048TIP3   OH245558   5.966   6.331   5.557 -0.2528 -0.2891 -0.3128
 8048TIP3    H145559   5.940   6.423   5.566  1.0147  0.1270 -0.7057
 8048TIP3    H245560   6.041   6.322   5.616  0.7156 -0.6006 -1.5475
 8049TIP3   OH245561   6.435   3.370   1.498 -0.4209  0.5362 -0.1211
 8049TIP3    H145562   6.455   3.308   1.428 -2.1953  1.8678 -1.9418
 8049TIP3    H245563   6.487   3.448   1.477  1.6883 -0.1607  2.0683
 8050TIP3   OH245564   4.079   5.242  12.483  0.2425 -0.2049  0.8914
 8050TIP3    H145565   4.116   5.329  12.498  0.5331  0.0873 -1.1560
 8050TIP3    H245566   4.154   5.182  12.489  1.0235  0.2645 -2.1489
 8051TIP3   OH245567   4.390   1.156   6.046  0.3785 -0.0416  0.7228
 8051TIP3    H145568   4.452   1.086   6.062  0.7787 -0.3157 -1.6264
 8051TIP3    H245569   4.403   1.179   5.953 -0.2080  2.6607  1.2052
 8052TIP3   OH245570   2.552   4.736   0.932  0.7790  0.0008  0.0782
 8052TIP3    H145571   2.562   4.760   0.840  2.5074 -1.9050 -0.3051
 8052TIP3    H245572   2.457   4.723   0.943  0.7057 -2.6521 -2.3046
 8053TIP3   OH245573   2.076   2.316  15.327 -0.4110 -0.3406 -0.0429
 8053TIP3    H145574   2.099   2.297  15.236  0.0300 -0.5474  0.1103
 8053TIP3    H245575   2.083   2.232  15.372  1.4792  0.1305  0.6266
 8054TIP3   OH245576   2.179   5.234   1.055 -0.1522 -0.1192  0.0584
 8054TIP3    H145577   2.156   5.143   1.036 -1.0005 -0.2783  1.6353
 8054TIP3    H245578   2.180   5.238   1.151  0.6877  1.3383  0.0108
 8055TIP3   OH245579   3.954   0.462  13.799  0.8642 -0.0913 -0.3493
 8055TIP3    H145580   4.049   0.470  13.808  0.8204 -1.3421  1.9419
 8055TIP3    H245581   3.941   0.375  13.761  0.6177 -0.1629 -0.1014
 8056TIP3   OH245582   0.488   1.272  15.733 -0.2163  0.5662 -0.4646
 8056TIP3    H145583   0.475   1.260  15.827 -0.7977  1.0475 -0.4721
 8056TIP3    H245584   0.536   1.194  15.705  0.0545  0.4714  0.2485
 8057TIP3   OH245585   4.586   1.854   0.221 -0.5123  0.4643  0.4195
 8057TIP3    H145586   4.556   1.935   0.261 -3.0052  0.4412 -1.1712
 8057TIP3    H245587   4.505   1.803   0.206  0.6056 -0.8692 -1.6068
 8058TIP3   OH245588   0.168   5.401   5.706  0.2351  0.1261  0.3673
 8058TIP3    H145589   0.257   5.366   5.710  0.7920  0.9477 -2.4065
 8058TIP3    H245590   0.171   5.482   5.758  1.9556  1.5747 -1.7888
 8059TIP3   OH245591   3.317   1.103   3.600 -0.2081 -0.1553 -0.1388
 8059TIP3    H145592   3.311   1.170   3.668  1.1004 -0.3013  0.1465
 8059TIP3    H245593   3.272   1.027   3.637 -0.3859  0.0896  0.1503
 8060TIP3   OH245594   0.734   3.453   4.287  0.6863 -0.3578  0.1645
 8060TIP3    H145595   0.709   3.490   4.372 -1.0752 -0.8863 -0.0890
 8060TIP3    H245596   0.652   3.448   4.238  1.5896 -0.6195 -1.3551
 8061TIP3   OH245597   4.614   0.259  15.326 -0.4410  0.2884 -0.1408
 8061TIP3    H145598   4.628   0.179  15.378 -1.4044  0.8063  0.9599
 8061TIP3    H245599   4.628   0.232  15.236 -1.5143 -1.3089  0.1413
 8062TIP3   OH245600   4.391   0.037   5.713 -0.2181  0.4480 -0.6642
 8062TIP3    H145601   4.467   0.095   5.720  0.6436 -0.3013 -2.7464
 8062TIP3    H245602   4.363   0.022   5.803  2.2943  0.5447  0.2155
 8063TIP3   OH245603   0.851   0.878   5.046 -0.8351  0.1354 -0.0190
 8063TIP3    H145604   0.852   0.959   4.995  0.6690  1.0818  1.4276
 8063TIP3    H245605   0.778   0.889   5.107  0.8727  1.5816  1.8778
 8064TIP3   OH245606   0.489   0.477   4.564 -0.2303 -0.5276  0.4539
 8064TIP3    H145607   0.464   0.433   4.645 -0.0914  0.9833  1.3621
 8064TIP3    H245608   0.495   0.570   4.588 -1.6007  0.1599 -1.6145
 8065TIP3   OH245609   3.064   0.698  14.293  0.6449 -0.1091 -0.1144
 8065TIP3    H145610   3.076   0.778  14.343  1.8372 -0.4476  0.1799
 8065TIP3    H245611   3.138   0.696  14.232  0.5397 -0.8892 -0.2317
 8066TIP3   OH245612   5.729   4.717  16.644 -0.3146 -0.0215  0.2102
 8066TIP3    H145613   5.745   4.797  16.594  0.4438  0.5584  1.3315
 8066TIP3    H245614   5.783   4.651  16.601 -0.4503  0.2165 -0.3378
 8067TIP3   OH245615   1.586   1.739  10.269  0.3807  0.3046  0.1108
 8067TIP3    H145616   1.493   1.718  10.267  0.1082  1.4877 -0.4359
 8067TIP3    H245617   1.628   1.659  10.302 -0.9221  0.1555  1.5029
 8068TIP3   OH245618   4.377   5.616  15.405  0.1537 -0.0627  0.1243
 8068TIP3    H145619   4.314   5.589  15.473  1.5535 -0.1197  1.4542
 8068TIP3    H245620   4.435   5.540  15.395  1.2358  0.7019  0.4104
 8069TIP3   OH245621   5.842   0.625   6.631  0.5637 -0.1868 -0.4656
 8069TIP3    H145622   5.805   0.541   6.603  0.5561  0.1527 -1.5292
 8069TIP3    H245623   5.800   0.643   6.715  2.3463 -2.3972  1.0219
 8070TIP3   OH245624   1.018   0.602  14.899 -0.1574 -0.3791  0.9812
 8070TIP3    H145625   0.997   0.509  14.892  0.9457 -0.5759 -0.1725
 8070TIP3    H245626   1.066   0.609  14.981 -0.5724 -0.7584  1.2606
 8071TIP3   OH245627   2.248   5.788  11.022  0.1920  0.3951 -0.5332
 8071TIP3    H145628   2.306   5.845  10.971  0.9448 -0.2247 -0.3850
 8071TIP3    H245629   2.171   5.841  11.038 -0.4301  0.3822 -2.9892
 8072TIP3   OH245630   6.166   1.307  11.951 -0.0468 -0.0935 -0.2595
 8072TIP3    H145631   6.130   1.225  11.917 -1.5993  0.9060 -1.2114
 8072TIP3    H245632   6.140   1.309  12.043 -2.2255  0.4290 -0.8353
 8073TIP3   OH245633   2.447   2.969   0.202  0.1606 -0.0721 -0.1397
 8073TIP3    H145634   2.390   2.897   0.231 -1.7908  1.3920 -0.1771
 8073TIP3    H245635   2.482   2.939   0.118  1.5119 -2.0488  1.0436
 8074TIP3   OH245636   0.975   0.860  10.373  0.4751  0.1165 -0.0379
 8074TIP3    H145637   1.054   0.829  10.329  1.3159  0.7086  1.0138
 8074TIP3    H245638   0.966   0.951  10.344 -0.5920 -0.3244 -1.1850
 8075TIP3   OH245639   4.812   1.488   6.008 -0.2336  0.6329  0.2598
 8075TIP3    H145640   4.808   1.398   6.042  0.8488  0.1614 -0.7715
 8075TIP3    H245641   4.852   1.538   6.078  0.8912 -0.0939  0.1743
 8076TIP3   OH245642   3.263   4.575   1.412  0.2372  0.7376 -0.1443
 8076TIP3    H145643   3.226   4.646   1.465  0.6301  0.1027  1.0041
 8076TIP3    H245644   3.308   4.519   1.475 -2.0213 -1.8335 -0.6523
 8077TIP3   OH245645   1.314   6.363  12.476 -0.3601 -0.3270 -0.3356
 8077TIP3    H145646   1.368   6.286  12.460 -0.6004 -0.8010  1.0638
 8077TIP3    H245647   1.243   6.355  12.412  0.6905 -0.1790 -1.5550
 8078TIP3   OH245648   3.794   1.494   0.166  0.1435  0.1869 -0.0117
 8078TIP3    H145649   3.741   1.574   0.173  1.8686  1.3345  0.7923
 8078TIP3    H245650   3.764   1.439   0.238 -0.1945  0.6640  0.2174
 8079TIP3   OH245651   6.748   3.382  11.397 -0.2454  0.3782  0.3021
 8079TIP3    H145652   6.789   3.358  11.480  0.3763  1.5625  0.3561
 8079TIP3    H245653   6.817   3.425  11.348 -0.4626 -0.7688 -1.0608
 8080TIP3   OH245654   1.658   0.792  15.771  0.2926 -0.1454  0.4234
 8080TIP3    H145655   1.568   0.821  15.780 -0.3208 -1.7410 -0.2646
 8080TIP3    H245656   1.701   0.861  15.720 -0.1714  1.2453  1.8349
 8081TIP3   OH245657   5.854   3.153   1.176  0.9554  0.1499  0.0268
 8081TIP3    H145658   5.807   3.178   1.255 -0.7193 -0.9277 -0.5836
 8081TIP3    H245659   5.907   3.230   1.154  0.0640  1.1195  1.1527
 8082TIP3   OH245660   5.647   2.259  11.489 -0.2323 -0.2820  0.0062
 8082TIP3    H145661   5.707   2.191  11.520 -1.3191 -0.2479  2.3685
 8082TIP3    H245662   5.690   2.341  11.513 -0.7385 -0.2424  0.8207
 8083TIP3   OH245663   4.196   4.697   1.173  0.2145  0.0741 -0.2752
 8083TIP3    H145664   4.108   4.670   1.149  0.4603 -0.9599 -0.0818
 8083TIP3    H245665   4.241   4.616   1.197  1.2493  0.5646 -0.4554
 8084TIP3   OH245666   6.387   0.537  16.913  0.1512 -0.3467  0.4121
 8084TIP3    H145667   6.473   0.498  16.929  0.1667  0.3407  2.2332
 8084TIP3    H245668   6.326   0.462  16.918  0.5840 -0.7744 -0.4981
 8085TIP3   OH245669   1.284   2.294  13.934  0.2289  0.2331  0.1448
 8085TIP3    H145670   1.347   2.345  13.985 -1.1389  2.7679 -0.4857
 8085TIP3    H245671   1.221   2.262  13.998 -0.3044  1.5833  0.3312
 8086TIP3   OH245672   2.166   3.362   0.291  0.0107  0.1670  0.4364
 8086TIP3    H145673   2.210   3.390   0.371 -0.3894  2.0897  0.0381
 8086TIP3    H245674   2.214   3.407   0.221 -0.1557 -0.8412 -0.3314
 8087TIP3   OH245675   4.620   6.246  17.021 -0.0379  0.0849 -0.1141
 8087TIP3    H145676   4.536   6.290  17.009  0.2672  0.7008 -0.0218
 8087TIP3    H245677   4.671   6.268  16.943  0.3197  0.3631  0.1973
 8088TIP3   OH245678   6.251   2.157   4.331  0.4676 -0.3217 -0.2347
 8088TIP3    H145679   6.253   2.170   4.236  0.9668  0.4789 -0.1276
 8088TIP3    H245680   6.249   2.062   4.342  3.7519 -0.6347 -1.0339
 8089TIP3   OH245681   2.745   2.988  15.430  0.4127  0.0802 -0.3117
 8089TIP3    H145682   2.807   3.041  15.481 -0.7760  0.8603  0.3820
 8089TIP3    H245683   2.659   3.024  15.452 -0.2686 -0.6653 -1.6050
 8090TIP3   OH245684   3.350   0.981   3.371  0.5503 -0.2390 -0.1309
 8090TIP3    H145685   3.285   0.913   3.391 -0.9552  0.4822 -2.1642
 8090TIP3    H245686   3.353   1.035   3.450 -0.5064 -0.9485  0.4232
 8091TIP3   OH245687   0.861   1.711   4.125 -0.2008 -0.1440  0.5989
 8091TIP3    H145688   0.939   1.661   4.102  0.1996 -0.2823  2.1397
 8091TIP3    H245689   0.814   1.655   4.188 -0.2889  0.9334  1.5306
 8092TIP3   OH245690   5.520   4.209  14.960  0.1178 -0.4006  0.5123
 8092TIP3    H145691   5.482   4.164  14.885 -1.1137 -0.3264  1.0755
 8092TIP3    H245692   5.615   4.201  14.947 -0.0578 -2.4309  0.1732
 8093TIP3   OH245693   1.715   6.318  14.541 -0.3237 -0.6591  0.4810
 8093TIP3    H145694   1.740   6.408  14.519  0.5559 -0.9716  0.1276
 8093TIP3    H245695   1.674   6.285  14.461 -0.4101 -0.6534  0.5230
 8094TIP3   OH245696   1.812   5.716  11.754  0.1685  0.2835 -0.2919
 8094TIP3    H145697   1.723   5.680  11.755  0.6261 -0.9502 -0.9403
 8094TIP3    H245698   1.845   5.700  11.842 -0.4640  1.3455  0.1507
 8095TIP3   OH245699   4.574   4.111   1.890  0.2563 -0.6933  0.6940
 8095TIP3    H145700   4.484   4.081   1.876 -0.1836  1.0948 -0.6658
 8095TIP3    H245701   4.580   4.124   1.985 -1.1377 -0.2912  0.7522
 8096TIP3   OH245702   6.731   4.879  16.254  0.5303 -0.1428  0.3312
 8096TIP3    H145703   6.699   4.820  16.322  0.2770 -0.9304 -0.4562
 8096TIP3    H245704   6.670   4.953  16.255  1.5515  0.7388  2.1518
 8097TIP3   OH245705   0.275   0.048   4.009 -0.0226 -0.7879 -0.0971
 8097TIP3    H145706   0.222  -0.012   4.060  1.3126 -0.0785  2.2792
 8097TIP3    H245707   0.361   0.047   4.052  0.3588  1.9845 -0.5930
 8098TIP3   OH245708   6.121   1.565  14.297 -0.1405 -0.0362 -0.1814
 8098TIP3    H145709   6.078   1.603  14.220  0.3055  0.6533 -0.0991
 8098TIP3    H245710   6.051   1.557  14.362 -0.6245 -1.0613 -0.7952
 8099TIP3   OH245711   5.736   1.578  16.315  0.8626 -0.1647 -0.1036
 8099TIP3    H145712   5.701   1.648  16.371  1.6380  0.1701 -0.0324
 8099TIP3    H245713   5.745   1.503  16.374  0.8448 -0.0709  0.0185
 8100TIP3   OH245714   1.958   6.496   1.553 -0.6151 -0.2895 -0.2489
 8100TIP3    H145715   1.948   6.434   1.626 -1.9908  0.1565 -0.0255
 8100TIP3    H245716   1.947   6.442   1.475  0.6379 -0.7312 -0.1425
 8101TIP3   OH245717   5.941   3.155   5.582  0.1789 -0.1480  0.1309
 8101TIP3    H145718   5.882   3.217   5.624 -0.2013  0.4324 -1.2018
 8101TIP3    H245719   5.975   3.202   5.506 -0.2934 -1.6061 -1.0521
 8102TIP3   OH245720   0.555   4.700  16.866  0.1131  0.0899 -0.5267
 8102TIP3    H145721   0.567   4.771  16.930 -1.0062  0.7782 -1.0366
 8102TIP3    H245722   0.473   4.723  16.821 -0.5204 -1.7671 -0.4010
 8103TIP3   OH245723   5.182   1.661  17.064 -0.1989 -0.4155  0.7145
 8103TIP3    H145724   5.269   1.676  17.026  0.0697 -0.7230  1.1950
 8103TIP3    H245725   5.188   1.574  17.104 -1.6274 -1.7456 -1.7360
 8104TIP3   OH245726   4.123   5.413   0.041  0.4558 -0.2048  0.1651
 8104TIP3    H145727   4.199   5.444  -0.010  1.1865 -0.7289  0.9086
 8104TIP3    H245728   4.114   5.478   0.111 -1.4473  1.3251 -1.3939
 8105TIP3   OH245729   4.381   1.655  13.955 -0.3856  0.1630  0.2622
 8105TIP3    H145730   4.427   1.689  14.032 -1.9034  1.7944  0.5277
 8105TIP3    H245731   4.327   1.584  13.988 -0.0824  0.0272  0.4666
 8106TIP3   OH245732   0.731   1.110   3.290 -0.5326  0.0247  0.1121
 8106TIP3    H145733   0.710   1.158   3.210 -0.8578  2.0385  1.3276
 8106TIP3    H245734   0.668   1.142   3.355  2.2416  1.6524  2.2453
 8107TIP3   OH245735   4.664   6.590  14.935  0.8319 -0.5135 -0.2019
 8107TIP3    H145736   4.693   6.629  15.017  0.4980 -0.8555  0.0785
 8107TIP3    H245737   4.741   6.594  14.878  0.7603  0.7142 -0.2466
 8108TIP3   OH245738   3.329   3.108  11.861 -0.3338  0.2766  0.5402
 8108TIP3    H145739   3.367   3.180  11.912  0.7094 -0.0444  0.2540
 8108TIP3    H245740   3.267   3.066  11.920  0.1901  0.4660  1.2382
 8109TIP3   OH245741   3.522   3.347  16.175  0.9435  0.2123  0.2369
 8109TIP3    H145742   3.527   3.252  16.184 -3.3586 -0.2264  0.1799
 8109TIP3    H245743   3.515   3.361  16.080  3.0456  0.8027  0.1267
 8110TIP3   OH245744   0.939   5.690  14.322  0.0770  0.0850  0.4772
 8110TIP3    H145745   1.024   5.734  14.321 -0.0621  0.3738 -1.1959
 8110TIP3    H245746   0.875   5.760  14.307 -0.2347 -0.4817 -1.0030
 8111TIP3   OH245747   1.941   1.555   4.736  0.1823 -0.1964  0.3714
 8111TIP3    H145748   1.854   1.592   4.745  0.3423  0.2341  0.1464
 8111TIP3    H245749   1.933   1.466   4.771 -0.8007 -0.8302 -1.3156
 8112TIP3   OH245750   2.616   0.583  16.746 -0.6268  0.1839 -0.2171
 8112TIP3    H145751   2.694   0.610  16.697 -2.0217  0.4294 -2.4308
 8112TIP3    H245752   2.609   0.489  16.729 -0.1385 -0.0983  1.0336
 8113TIP3   OH245753   0.883   4.891  11.564  0.1131  0.5873  0.3447
 8113TIP3    H145754   0.855   4.954  11.497 -1.0919  2.3416  2.3738
 8113TIP3    H245755   0.978   4.898  11.565  0.3158 -0.5927 -2.1358
 8114TIP3   OH245756   4.129   3.118   5.773 -0.0697 -0.1971 -0.3106
 8114TIP3    H145757   4.202   3.174   5.746 -1.0648  1.0046 -0.6591
 8114TIP3    H245758   4.152   3.088   5.860  1.2891 -0.6738 -0.8058
 8115TIP3   OH245759   5.210   1.916   3.672  0.0202  0.4009 -0.3818
 8115TIP3    H145760   5.281   1.968   3.709 -1.4022  1.6003  0.8109
 8115TIP3    H245761   5.138   1.927   3.734 -1.0890 -1.0818 -1.3465
 8116TIP3   OH245762   5.610   0.371  14.904  0.3217  0.8841 -0.1340
 8116TIP3    H145763   5.598   0.391  14.811  1.7448  1.4173 -0.2303
 8116TIP3    H245764   5.654   0.448  14.939  0.5140  0.3557  0.8154
 8117TIP3   OH245765   2.760   2.585   2.800  0.1914 -0.1822 -0.1808
 8117TIP3    H145766   2.804   2.590   2.884  0.2257  0.1591 -0.2165
 8117TIP3    H245767   2.693   2.518   2.811 -1.1217  1.2204  0.7300
 8118TIP3   OH245768   0.302   4.709  14.945 -0.0943 -0.1028  0.1829
 8118TIP3    H145769   0.263   4.625  14.967  0.2519 -0.6123 -1.0601
 8118TIP3    H245770   0.383   4.712  14.996 -0.8526  0.1939  1.4259
 8119TIP3   OH245771   2.004   5.167  10.370  0.1735  0.2482  0.2026
 8119TIP3    H145772   2.081   5.199  10.324  0.2916 -0.2314  0.0586
 8119TIP3    H245773   2.038   5.125  10.449  0.0490  0.1544  0.2071
 8120TIP3   OH245774   0.732   4.027  16.375  0.0979  0.0320  0.2154
 8120TIP3    H145775   0.655   3.975  16.400 -0.2129 -0.3149 -1.3424
 8120TIP3    H245776   0.740   4.093  16.444 -0.7592 -0.7836  1.1327
 8121TIP3   OH245777   1.692   2.743  12.619  0.0001 -0.2210  0.0697
 8121TIP3    H145778   1.786   2.738  12.636  0.1258  1.3198 -0.0821
 8121TIP3    H245779   1.652   2.733  12.706  0.4040  1.2636  0.4534
 8122TIP3   OH245780   3.453   6.689  10.684  0.1659 -0.4020 -0.0585
 8122TIP3    H145781   3.487   6.653  10.765  0.8025 -3.6286 -1.5831
 8122TIP3    H245782   3.408   6.616  10.642 -1.0127  1.3936 -2.1937
 8123TIP3   OH245783   1.893   3.792  15.803 -0.1084 -0.0702 -0.1494
 8123TIP3    H145784   1.836   3.745  15.742  0.3306 -0.3920 -0.3215
 8123TIP3    H245785   1.895   3.737  15.881  1.1941 -0.8742 -0.7089
 8124TIP3   OH245786   0.784   2.283  16.189 -0.0445  0.1397  0.5041
 8124TIP3    H145787   0.715   2.219  16.210 -0.8805  0.3310 -1.4643
 8124TIP3    H245788   0.783   2.344  16.263 -0.5342 -1.0430  1.5058
 8125TIP3   OH245789   3.768   1.083  12.909 -0.4788  0.9179  0.2474
 8125TIP3    H145790   3.780   1.148  12.978 -1.2955  0.7737  0.5294
 8125TIP3    H245791   3.719   1.128  12.840 -1.0196  0.6190  0.4298
 8126TIP3   OH245792   4.290   5.047  13.097  0.0996 -0.6785 -0.5254
 8126TIP3    H145793   4.352   5.074  13.030 -0.1119  0.3173 -0.3378
 8126TIP3    H245794   4.209   5.093  13.074 -0.3363 -1.3342 -0.3142
 8127TIP3   OH245795   0.784   2.473  12.995  0.4956  0.1284 -0.1842
 8127TIP3    H145796   0.711   2.411  12.991 -0.6804  0.8899  4.3498
 8127TIP3    H245797   0.861   2.418  13.006  0.2604 -0.5812 -1.7451
 8128TIP3   OH245798   0.048   3.874  14.461 -0.2577 -0.0706 -0.2313
 8128TIP3    H145799   0.016   3.790  14.428  2.2639 -0.0875 -2.9806
 8128TIP3    H245800   0.001   3.939  14.409  0.7031  0.0491 -0.9685
 8129TIP3   OH245801   5.884   4.247   4.410  0.0071 -0.1958  0.9104
 8129TIP3    H145802   5.890   4.254   4.314  1.0254  0.6184  1.0237
 8129TIP3    H245803   5.974   4.234   4.438 -0.4231 -1.8524  1.6792
 8130TIP3   OH245804   2.816   6.020  12.687 -0.1684 -0.0956  0.4325
 8130TIP3    H145805   2.751   6.088  12.706  1.1675  1.0226  1.2252
 8130TIP3    H245806   2.834   6.029  12.594  0.9673  1.6159  0.7544
 8131TIP3   OH245807   4.258   1.093   1.803 -0.0203 -0.6531  0.2967
 8131TIP3    H145808   4.320   1.021   1.811  1.3678  0.4997  0.3319
 8131TIP3    H245809   4.194   1.078   1.873  0.5634 -1.5308  0.6558
 8132TIP3   OH245810   0.163   3.798  11.846 -0.1075  0.2774 -0.0782
 8132TIP3    H145811   0.243   3.746  11.857 -0.3380 -0.0441  0.0856
 8132TIP3    H245812   0.194   3.882  11.812  0.2677  0.0350 -0.3469
 8133TIP3   OH245813   5.191   1.333   2.066 -0.1039  0.1611  0.0469
 8133TIP3    H145814   5.170   1.373   2.151 -0.1277  0.0143  0.1097
 8133TIP3    H245815   5.256   1.392   2.027 -1.0385  0.9253 -0.3901
 8134TIP3   OH245816   2.175   0.901  12.364 -0.3325 -0.4273  0.2030
 8134TIP3    H145817   2.207   0.991  12.373  0.8231 -0.5485 -2.0670
 8134TIP3    H245818   2.211   0.855  12.440  0.3862  0.6626  0.5400
 8135TIP3   OH245819   4.216   4.138  14.739 -0.3757 -0.2072  0.1689
 8135TIP3    H145820   4.298   4.175  14.772 -0.0494 -1.4759  0.8614
 8135TIP3    H245821   4.156   4.141  14.814 -1.1460  1.1693 -0.4724
 8136TIP3   OH245822   2.892   5.147   6.641  0.0761  0.0966  0.3145
 8136TIP3    H145823   2.939   5.185   6.715  1.1134  0.3966 -0.4643
 8136TIP3    H245824   2.930   5.060   6.630  0.2044  0.2002 -0.0901
 8137TIP3   OH245825   0.947   1.582   3.775 -0.0607 -0.1913 -0.1622
 8137TIP3    H145826   0.923   1.665   3.733 -0.2316 -1.3686 -2.5820
 8137TIP3    H245827   0.878   1.521   3.748  1.0144 -1.5508  0.0501
 8138TIP3   OH245828   2.099   6.168   6.237 -0.0333  0.0616 -0.2054
 8138TIP3    H145829   2.072   6.088   6.283  0.1218  0.4760  0.6235
 8138TIP3    H245830   2.194   6.158   6.227 -0.1029 -0.1490 -0.6839
 8139TIP3   OH245831   5.797   3.422  15.719  0.4616  0.4410  0.3508
 8139TIP3    H145832   5.748   3.456  15.793  1.4531  1.3682  0.5863
 8139TIP3    H245833   5.872   3.377  15.757 -0.0044 -0.7114 -0.0242
 8140TIP3   OH245834   4.250   5.705  16.246  0.8020 -0.0820 -0.2479
 8140TIP3    H145835   4.160   5.678  16.265  0.9609 -1.0917 -0.8504
 8140TIP3    H245836   4.283   5.736  16.330 -1.1633  3.7039 -0.6258
 8141TIP3   OH245837   3.530   4.867   0.723  0.9124 -0.6031 -0.2518
 8141TIP3    H145838   3.532   4.962   0.736  1.7600 -0.3604 -1.8932
 8141TIP3    H245839   3.438   4.844   0.735  0.6753  0.4436  0.0785
 8142TIP3   OH245840   4.235   6.055  16.384  0.2437 -0.4279  0.1381
 8142TIP3    H145841   4.307   6.061  16.321 -0.6650 -1.6609 -1.0931
 8142TIP3    H245842   4.158   6.040  16.330 -0.8693  0.3132  1.4624
 8143TIP3   OH245843   4.543   5.425  15.316 -0.4970 -0.1998  0.0372
 8143TIP3    H145844   4.627   5.444  15.273 -1.7203  0.6548 -2.1635
 8143TIP3    H245845   4.518   5.339  15.281 -1.1374  0.1535 -0.4101
 8144TIP3   OH245846   4.020   0.202  12.524  0.4242  0.0036  0.1057
 8144TIP3    H145847   3.984   0.290  12.531 -0.6563 -0.3826 -0.3536
 8144TIP3    H245848   3.970   0.162  12.453  2.3265 -0.2978 -1.1337
 8145TIP3   OH245849   3.696   5.854  17.118 -0.1677  1.0333  0.0314
 8145TIP3    H145850   3.733   5.939  17.142  2.4800  0.0771 -0.3148
 8145TIP3    H245851   3.759   5.790  17.151 -2.7089 -0.9517  1.4582
 8146TIP3   OH245852   3.258   5.858   3.296 -0.0385 -0.4460  0.0741
 8146TIP3    H145853   3.213   5.862   3.381 -0.6105 -0.1610 -0.2376
 8146TIP3    H245854   3.351   5.856   3.319 -0.1018  1.3841  0.6961
 8147TIP3   OH245855   0.940   4.754   5.246 -0.5814 -0.4134  0.3378
 8147TIP3    H145856   0.849   4.754   5.217 -0.8107 -1.3574  1.0145
 8147TIP3    H245857   0.934   4.760   5.342  0.0148 -1.4499  0.4594
 8148TIP3   OH245858   0.745   3.711   1.506  0.6554  1.0009 -0.0486
 8148TIP3    H145859   0.685   3.643   1.537 -0.4070  1.8656 -0.1639
 8148TIP3    H245860   0.740   3.780   1.572 -0.4319  2.1769 -1.3116
 8149TIP3   OH245861   3.359   4.665  16.623 -0.9029  0.0934  0.3032
 8149TIP3    H145862   3.391   4.623  16.702  0.4890  1.0061  0.2628
 8149TIP3    H245863   3.433   4.661  16.562 -1.3702  0.9194 -0.3346
 8150TIP3   OH245864   3.016   4.320  13.170 -0.0969 -0.5243 -0.0704
 8150TIP3    H145865   2.986   4.354  13.086 -3.1464  0.4329  1.2656
 8150TIP3    H245866   3.077   4.387  13.202 -0.6078  0.1994 -0.5733
 8151TIP3   OH245867   2.137   2.948   5.529  0.2975 -0.3928 -0.3181
 8151TIP3    H145868   2.080   2.875   5.550  0.7700 -0.6214  0.1836
 8151TIP3    H245869   2.215   2.934   5.582 -1.0395  2.4466  2.8226
 8152TIP3   OH245870   4.271   1.493   1.977  0.5776 -0.2030  0.5511
 8152TIP3    H145871   4.193   1.545   1.997  1.0543  0.2416  1.3035
 8152TIP3    H245872   4.280   1.499   1.882 -0.4991 -0.5561  0.4084
 8153TIP3   OH245873   2.864   1.824   2.035  0.2928 -0.1800  0.6780
 8153TIP3    H145874   2.890   1.737   2.063  1.7147 -0.0568 -0.1449
 8153TIP3    H245875   2.807   1.856   2.105 -0.0317 -1.6480  1.1181
 8154TIP3   OH245876   4.883   0.007   1.240 -0.1449 -0.4688 -0.0751
 8154TIP3    H145877   4.822   0.067   1.198 -0.9868 -0.6316  0.8571
 8154TIP3    H245878   4.855  -0.080   1.211 -1.1904 -0.6364  1.3240
 8155TIP3   OH245879   2.807   5.000   2.536  0.6391 -0.3977 -0.1345
 8155TIP3    H145880   2.861   5.071   2.570  1.1014 -0.6983 -0.2344
 8155TIP3    H245881   2.858   4.962   2.465 -0.2005  0.0536 -1.0007
 8156TIP3   OH245882   3.266   3.573  13.675  0.1226  0.2734 -0.1046
 8156TIP3    H145883   3.342   3.626  13.651 -0.4271  1.5095  0.8088
 8156TIP3    H245884   3.199   3.597  13.611 -1.1951  3.2319  2.1471
 8157TIP3   OH245885   0.016   3.557  15.688  0.1650  0.5071 -0.4453
 8157TIP3    H145886  -0.003   3.494  15.619  0.0576 -0.1910  0.2106
 8157TIP3    H245887   0.069   3.624  15.645 -0.2418  0.2969 -1.2961
 8158TIP3   OH245888   1.620   4.927   5.434  0.1920 -0.4534  0.6960
 8158TIP3    H145889   1.604   5.009   5.387 -2.6734 -1.9434 -1.2182
 8158TIP3    H245890   1.712   4.907   5.415  0.1931  0.9597 -1.1420
 8159TIP3   OH245891   2.841   5.984  11.527  0.2509 -0.3231 -0.1304
 8159TIP3    H145892   2.839   6.075  11.558  2.5016 -0.4720  0.6572
 8159TIP3    H245893   2.892   5.938  11.594 -0.3012 -2.0303 -0.8526
 8160TIP3   OH245894   4.626   4.369   3.399  0.2410  0.0561  0.2144
 8160TIP3    H145895   4.656   4.454   3.430  1.3460  0.0938 -0.8744
 8160TIP3    H245896   4.582   4.388   3.316  1.1478 -0.5036 -0.4083
 8161TIP3   OH245897   0.097   5.275  16.612  0.4721  0.3751  0.0944
 8161TIP3    H145898   0.088   5.278  16.516 -0.5342  0.9130  0.1916
 8161TIP3    H245899   0.007   5.270  16.644  0.3853  4.6215  1.1379
 8162TIP3   OH245900   6.317   0.296  15.010 -0.7978  0.4891 -0.5250
 8162TIP3    H145901   6.235   0.346  15.007 -1.8913 -0.9553  1.8895
 8162TIP3    H245902   6.385   0.362  15.003 -2.1755  2.0447 -0.0454
 8163TIP3   OH245903   0.766   5.933   3.561 -0.2283 -0.8423 -0.5742
 8163TIP3    H145904   0.812   6.009   3.598  0.5714 -1.7175  0.2896
 8163TIP3    H245905   0.676   5.942   3.592 -0.2808  0.0343 -0.9407
 8164TIP3   OH245906   5.486   5.994  16.253  0.2608  1.4201 -0.2925
 8164TIP3    H145907   5.470   6.057  16.322 -0.6694 -0.8030  1.6523
 8164TIP3    H245908   5.555   5.937  16.288 -0.6816 -0.1396 -0.8729
 8165TIP3   OH245909   2.178   3.685   1.624  0.2247  0.2889 -0.1340
 8165TIP3    H145910   2.200   3.777   1.613 -2.6927  1.0765 -0.3986
 8165TIP3    H245911   2.176   3.650   1.534 -0.0221  0.3377 -0.1480
 8166TIP3   OH245912   3.913   6.193  13.324 -0.1602 -1.0791  0.1695
 8166TIP3    H145913   3.991   6.173  13.272 -1.8038 -1.7830 -2.1784
 8166TIP3    H245914   3.891   6.283  13.300  0.5997 -0.4165  1.8154
 8167TIP3   OH245915   5.651   6.604   6.403  0.2585  0.1903 -0.0407
 8167TIP3    H145916   5.607   6.663   6.342  0.1743 -0.7992 -0.9518
 8167TIP3    H245917   5.729   6.651   6.430 -0.6613  1.4287  0.5930
 8168TIP3   OH245918   3.483   3.493   1.682  0.1939  0.7716 -0.3877
 8168TIP3    H145919   3.407   3.436   1.693  0.3391  0.3410 -1.4638
 8168TIP3    H245920   3.543   3.468   1.752 -0.1268  0.2257 -0.3051
 8169TIP3   OH245921   1.945   0.526   1.968  0.4240  0.2004 -0.1500
 8169TIP3    H145922   2.024   0.581   1.969  1.2952 -1.0203 -0.0623
 8169TIP3    H245923   1.947   0.482   1.883 -0.4008  0.4758 -0.3204
 8170TIP3   OH245924   1.580   4.487   0.553  0.4423 -0.2822 -0.9012
 8170TIP3    H145925   1.668   4.489   0.515 -0.0774  1.0613 -2.1125
 8170TIP3    H245926   1.522   4.474   0.478 -0.4539 -0.0554 -0.2582
 8171TIP3   OH245927   3.759   0.113  14.066 -0.4200 -0.3410  0.2085
 8171TIP3    H145928   3.794   0.034  14.107 -1.4525 -0.5834  0.6550
 8171TIP3    H245929   3.675   0.128  14.110 -0.3564  0.8705 -0.0321
 8172TIP3   OH245930   6.075   4.676  12.788  0.2091  0.2045  0.3253
 8172TIP3    H145931   6.047   4.588  12.815  1.3646 -0.1664  0.3821
 8172TIP3    H245932   6.032   4.690  12.703  0.9876 -0.9484 -0.2903
 8173TIP3   OH245933   0.063   4.919  11.480  0.5270  0.2327 -0.2568
 8173TIP3    H145934   0.099   4.952  11.398 -0.2225 -0.0006 -0.7002
 8173TIP3    H245935  -0.017   4.873  11.453  2.6234 -4.0163 -0.0373
 8174TIP3   OH245936   0.287   3.423   3.237  0.6344 -0.0365 -0.4514
 8174TIP3    H145937   0.195   3.442   3.257  0.6465  0.9042 -1.2020
 8174TIP3    H245938   0.284   3.340   3.190  0.1603  0.0068 -0.5114
 8175TIP3   OH245939   2.023   1.254  13.824 -0.3417 -0.1177 -0.2860
 8175TIP3    H145940   1.960   1.254  13.896 -0.0882  0.8803 -0.0524
 8175TIP3    H245941   2.072   1.336  13.835 -0.1042 -0.0974 -1.4294
 8176TIP3   OH245942   3.811   0.677   1.594  0.2307 -0.4052 -0.0061
 8176TIP3    H145943   3.861   0.600   1.623 -0.6134 -1.0085 -0.1185
 8176TIP3    H245944   3.737   0.641   1.545 -1.4665  0.3510  1.8737
 8177TIP3   OH245945   6.335   0.832  13.349  0.1322 -0.3763 -0.0510
 8177TIP3    H145946   6.372   0.914  13.379  1.1224 -1.2210  1.1132
 8177TIP3    H245947   6.244   0.835  13.378 -0.6518  1.4201 -2.3544
 8178TIP3   OH245948   2.012   3.283  15.109 -0.5439  0.5299 -0.6619
 8178TIP3    H145949   2.054   3.337  15.042  0.0629 -0.4662 -1.1182
 8178TIP3    H245950   1.986   3.203  15.062 -1.0712  0.2615  0.0685
 8179TIP3   OH245951   0.752   1.145   4.142  0.0697  0.0709 -0.3807
 8179TIP3    H145952   0.700   1.222   4.119  1.2354  0.8134 -0.6296
 8179TIP3    H245953   0.819   1.139   4.074  0.7545 -0.4216  0.3046
 8180TIP3   OH245954   0.407   6.678   5.154  0.0987  0.3114 -0.8948
 8180TIP3    H145955   0.499   6.650   5.149  0.4858  1.5079 -0.6407
 8180TIP3    H245956   0.378   6.647   5.240  0.4541  0.4846 -0.7119
 8181TIP3   OH245957   3.923   5.318   3.239 -0.2210 -0.2098  0.1474
 8181TIP3    H145958   3.857   5.251   3.228  0.6759 -0.9970 -0.5838
 8181TIP3    H245959   3.956   5.335   3.151 -1.0876  1.8916  0.1713
 8182TIP3   OH245960   2.245   6.228   1.353  0.2472 -0.1068  0.2659
 8182TIP3    H145961   2.305   6.251   1.282  0.1490 -0.7647 -0.0344
 8182TIP3    H245962   2.169   6.190   1.309  0.3880 -0.9566  0.7446
 8183TIP3   OH245963   5.607   3.957  15.568  0.0604  0.2994 -0.7223
 8183TIP3    H145964   5.639   4.037  15.527  1.9731  0.1773  0.3989
 8183TIP3    H245965   5.526   3.983  15.612 -2.6779  0.2396 -5.1105
 8184TIP3   OH245966   2.238   2.043  17.243  0.0086 -0.3994 -0.9275
 8184TIP3    H145967   2.207   1.993  17.166  1.1189 -0.0982 -1.5847
 8184TIP3    H245968   2.315   2.090  17.212  0.8130 -0.7010  0.5305
 8185TIP3   OH245969   5.739   4.082   4.803  0.1184 -0.1292  0.1580
 8185TIP3    H145970   5.655   4.041   4.824 -0.0615  0.4737  0.6443
 8185TIP3    H245971   5.805   4.024   4.840 -0.1148 -0.2057  0.4510
 8186TIP3   OH245972   1.354   6.296  14.698 -0.1899 -0.3428 -0.2468
 8186TIP3    H145973   1.419   6.257  14.756 -0.0647 -1.1112 -0.8880
 8186TIP3    H245974   1.298   6.223  14.671 -0.3476  0.0294 -0.9596
 8187TIP3   OH245975   2.064   5.967  15.608 -0.1250 -0.1574 -0.4395
 8187TIP3    H145976   1.985   5.980  15.555 -0.1747 -1.7327 -0.7771
 8187TIP3    H245977   2.116   6.046  15.592 -0.9572  0.2248 -1.3824
 8188TIP3   OH245978   4.970   5.504   5.851 -0.2149 -0.7646 -0.4218
 8188TIP3    H145979   5.020   5.487   5.930  0.8813 -1.2088 -1.1917
 8188TIP3    H245980   5.034   5.536   5.788 -1.2500  0.6049 -0.8207
 8189TIP3   OH245981   6.690   5.564  15.765  0.3647 -0.3707 -0.2823
 8189TIP3    H145982   6.730   5.508  15.699 -0.6031 -0.7481 -0.5727
 8189TIP3    H245983   6.678   5.506  15.841 -0.8330 -0.6392 -0.6557
 8190TIP3   OH245984   1.849   2.321   2.875  0.5135  0.4229  0.2019
 8190TIP3    H145985   1.847   2.312   2.780 -1.4310 -1.8062  0.3640
 8190TIP3    H245986   1.777   2.382   2.895  0.9990  0.9875  0.2652
 8191TIP3   OH245987   1.457   0.900   0.388  0.2820 -0.1800  0.2205
 8191TIP3    H145988   1.531   0.901   0.449  1.9935  2.0039 -1.7579
 8191TIP3    H245989   1.480   0.834   0.323  0.1884  0.0699 -0.0678
 8192TIP3   OH245990   2.500   3.730  13.141 -0.2049 -0.0628 -0.0353
 8192TIP3    H145991   2.472   3.821  13.132  1.3507  0.3211 -1.2510
 8192TIP3    H245992   2.433   3.680  13.093  0.1245  0.6585 -1.2921
 8193TIP3   OH245993   4.898   6.355   4.806 -0.4126  0.4732  0.1948
 8193TIP3    H145994   4.804   6.363   4.790 -0.3460  1.0178  0.0251
 8193TIP3    H245995   4.930   6.446   4.803  0.4232  0.1681 -1.6461
 8194TIP3   OH245996   4.377   0.801   2.531  0.1235 -0.2921  0.1839
 8194TIP3    H145997   4.368   0.803   2.436  0.2872  1.2530  0.1886
 8194TIP3    H245998   4.327   0.876   2.562 -2.0646 -2.1643  1.5391
 8195TIP3   OH245999   5.126   4.538  11.147  0.6650 -0.2449  0.1894
 8195TIP3    H146000   5.105   4.630  11.159 -0.3157 -0.2584 -1.1432
 8195TIP3    H246001   5.100   4.519  11.057 -0.2557 -2.1039  0.7918
 8196TIP3   OH246002   0.668   4.946  11.964  0.0260  0.2524  0.3702
 8196TIP3    H146003   0.580   4.971  11.994 -0.7158 -0.9666 -0.6691
 8196TIP3    H246004   0.690   5.011  11.897 -0.3332  0.2386  0.2352
 8197TIP3   OH246005   4.023   5.291   1.437  0.1091 -0.0069  1.0576
 8197TIP3    H146006   4.088   5.358   1.457 -0.2824  0.3536  1.1543
 8197TIP3    H246007   4.067   5.230   1.378  0.9445 -0.4801  2.1364
 8198TIP3   OH246008   4.646   5.595   2.548  0.0525 -0.3359 -0.0514
 8198TIP3    H146009   4.608   5.597   2.635  0.5050  1.3975  0.1471
 8198TIP3    H246010   4.578   5.631   2.491 -0.5673 -2.2572 -0.5899
 8199TIP3   OH246011   1.267   2.999  13.131 -0.5928  0.4789  0.1558
 8199TIP3    H146012   1.202   3.057  13.091  0.3263 -0.4464 -2.9958
 8199TIP3    H246013   1.235   2.911  13.111  0.6734 -0.0061  0.2223
 8200TIP3   OH246014   5.253   4.964  15.352  0.1559 -0.5524  0.6152
 8200TIP3    H146015   5.313   4.889  15.344  0.7074 -0.2059  1.4019
 8200TIP3    H246016   5.261   4.992  15.443 -3.8457 -2.6802  1.8871
 8201TIP3   OH246017   2.254   6.141  15.526  0.6066 -0.7709  0.7093
 8201TIP3    H146018   2.270   6.075  15.459 -0.0781 -0.1175 -0.1390
 8201TIP3    H246019   2.229   6.219  15.476 -0.6936 -0.4862  1.7499
 8202TIP3   OH246020   6.244   6.526   0.557 -0.4822 -0.0044 -0.4683
 8202TIP3    H146021   6.215   6.593   0.619 -0.4849 -2.0700  1.9253
 8202TIP3    H246022   6.172   6.463   0.554  0.3766 -0.9972 -0.9622
 8203TIP3   OH246023   4.249   5.480   1.407  0.0503  0.1697  0.2560
 8203TIP3    H146024   4.286   5.519   1.328 -0.5042  1.6822  0.7060
 8203TIP3    H246025   4.316   5.418   1.436  2.0682  2.3891  0.7430
 8204TIP3   OH246026   1.432   6.679   2.310 -0.3490  0.2697  0.0988
 8204TIP3    H146027   1.489   6.749   2.278  1.3512 -0.3712  1.5977
 8204TIP3    H246028   1.343   6.713   2.299  0.2053  1.0363 -2.9532
 8205TIP3   OH246029   4.198   5.907   5.185 -0.2142  0.4517 -0.5341
 8205TIP3    H146030   4.199   6.002   5.195 -1.5676  0.4585 -0.2768
 8205TIP3    H246031   4.199   5.872   5.274 -3.0374  0.3335 -0.4527
 8206TIP3   OH246032   0.815   1.417  13.536 -0.2213  0.1712  0.3261
 8206TIP3    H146033   0.820   1.477  13.462  0.3779  2.5562  2.1904
 8206TIP3    H246034   0.849   1.334  13.502 -1.2656  0.7682 -2.3947
 8207TIP3   OH246035   1.233   3.669   6.089  0.0546 -0.0456  0.2714
 8207TIP3    H146036   1.272   3.589   6.054  0.5366  0.7923 -1.2034
 8207TIP3    H246037   1.140   3.663   6.068  0.4669  0.8597 -2.1533
 8208TIP3   OH246038   1.462   5.570   5.489 -0.2682 -0.3365 -0.4788
 8208TIP3    H146039   1.422   5.568   5.402  0.0746  0.1679 -0.6509
 8208TIP3    H246040   1.526   5.499   5.487 -0.8067 -0.8287 -0.3706
 8209TIP3   OH246041   1.427   0.109   3.308  0.2411 -0.1165 -0.4643
 8209TIP3    H146042   1.333   0.096   3.294  0.3510 -1.5217 -0.0742
 8209TIP3    H246043   1.460   0.142   3.225 -0.6060  0.4582 -0.5822
 8210TIP3   OH246044   1.451   4.652   1.717  0.3182 -0.5868 -0.5126
 8210TIP3    H146045   1.516   4.639   1.785  0.1891 -0.1793 -0.3105
 8210TIP3    H246046   1.380   4.698   1.760 -0.8625 -2.4838 -0.2846
 8211TIP3   OH246047   0.197   0.066  16.797  0.0913 -0.1226  0.4585
 8211TIP3    H146048   0.154   0.112  16.725 -0.1799  1.3646  1.5164
 8211TIP3    H246049   0.132   0.066  16.867  0.6668 -0.7406  0.9999
 8212TIP3   OH246050   5.319   5.906  14.261  0.1382  0.0198  0.6754
 8212TIP3    H146051   5.229   5.915  14.229  1.0321  0.4723 -1.9923
 8212TIP3    H246052   5.354   5.831  14.214  1.9106  1.4292 -0.4159
 8213TIP3   OH246053   0.460   2.453   0.444  0.2557  0.3812 -0.3857
 8213TIP3    H146054   0.452   2.530   0.387 -0.3895  1.6020  1.2802
 8213TIP3    H246055   0.370   2.424   0.458  0.3959  0.1594  0.0891
 8214TIP3   OH246056   1.976   1.805   4.301 -0.3737  0.0492 -0.2827
 8214TIP3    H146057   1.932   1.721   4.293 -1.9029  0.7337  0.5121
 8214TIP3    H246058   1.945   1.841   4.384 -0.7022  1.9165 -1.1605
 8215TIP3   OH246059   3.055   5.020   3.407  0.5173 -0.2443  0.1888
 8215TIP3    H146060   3.035   5.092   3.348 -0.4204 -1.3613 -0.9114
 8215TIP3    H246061   3.030   5.052   3.494  0.5709  0.9152 -0.2149
 8216TIP3   OH246062   6.137   5.381  15.749 -0.5441  0.2637 -0.2306
 8216TIP3    H146063   6.138   5.320  15.675  0.3840 -0.1837  0.1334
 8216TIP3    H246064   6.212   5.438  15.734  0.4006 -0.6027  0.9737
 8217TIP3   OH246065   3.427   1.523   2.428  0.2416 -0.7167  0.6241
 8217TIP3    H146066   3.488   1.586   2.391  0.9467  0.7287  3.8848
 8217TIP3    H246067   3.341   1.564   2.418  0.6899  0.8792  2.6801
 8218TIP3   OH246068   1.841   1.557  16.820  0.1660 -0.1142 -0.0909
 8218TIP3    H146069   1.801   1.516  16.897  0.9060 -1.3569 -0.3379
 8218TIP3    H246070   1.771   1.556  16.754 -0.4448  0.8738  0.5181
 8219TIP3   OH246071   0.357   5.388  12.596 -0.4581 -0.0624  0.2058
 8219TIP3    H146072   0.367   5.295  12.618 -1.6860 -0.0344  0.9800
 8219TIP3    H246073   0.440   5.412  12.554  0.2779 -1.2456  0.9332
 8220TIP3   OH246074   1.541   5.432  11.051 -0.9745  0.5127 -0.3188
 8220TIP3    H146075   1.621   5.441  10.999 -0.3781 -1.1286  0.2424
 8220TIP3    H246076   1.485   5.373  11.000 -1.4908  1.0043 -0.3279
 8221TIP3   OH246077   4.676   3.701  15.611 -0.1242  0.0656 -0.4473
 8221TIP3    H146078   4.621   3.681  15.535 -0.4119  0.2410 -0.2841
 8221TIP3    H246079   4.712   3.616  15.636  0.3849  0.0782 -1.0940
 8222TIP3   OH246080   4.234   2.850   5.218 -0.4674 -0.0392  0.1229
 8222TIP3    H146081   4.142   2.831   5.202 -0.4828 -0.3313  0.5545
 8222TIP3    H246082   4.236   2.894   5.303 -0.1202 -0.8314  0.5310
 8223TIP3   OH246083   2.385   5.030  11.314  0.7928 -0.3019 -0.2887
 8223TIP3    H146084   2.308   5.079  11.343  1.6936  0.3132  1.2003
 8223TIP3    H246085   2.353   4.976  11.241 -0.7842  0.7036 -0.3984
 8224TIP3   OH246086   2.385   2.360   4.555 -0.2702  0.3665 -0.1995
 8224TIP3    H146087   2.346   2.353   4.468  0.4646  0.4000 -0.5390
 8224TIP3    H246088   2.470   2.317   4.547 -0.8647 -1.1290  0.9467
 8225TIP3   OH246089   5.624   1.622   0.816  0.4912 -0.0285 -0.1196
 8225TIP3    H146090   5.545   1.568   0.804  0.3496  0.2893 -0.6384
 8225TIP3    H246091   5.696   1.565   0.790  0.4533 -0.3719  0.5003
 8226TIP3   OH246092   0.211   0.907  15.934  0.2472 -0.5625 -0.3394
 8226TIP3    H146093   0.195   0.883  15.843 -0.6209 -0.4193 -0.2349
 8226TIP3    H246094   0.243   0.826  15.975  1.4204 -0.4235 -0.9339
 8227TIP3   OH246095   1.174   6.086  13.033  0.3824  0.0232 -0.3072
 8227TIP3    H146096   1.236   6.020  13.065  0.5195 -0.1483 -0.9086
 8227TIP3    H246097   1.100   6.034  12.998  0.0504  0.2170  0.0955
 8228TIP3   OH246098   0.166   4.066   5.107 -0.1734 -0.6544  0.1491
 8228TIP3    H146099   0.113   3.986   5.101 -0.7883 -0.3533  1.2512
 8228TIP3    H246100   0.105   4.137   5.087 -0.1244 -0.3295  1.0831
 8229TIP3   OH246101   0.804   4.406  11.749  0.6127 -1.3296  0.2453
 8229TIP3    H146102   0.746   4.370  11.682 -1.6273  2.2148 -0.0412
 8229TIP3    H246103   0.875   4.446  11.699 -1.0952  1.3802 -0.2876
 8230TIP3   OH246104   4.467   2.305  11.632  0.2133 -0.5101  0.3156
 8230TIP3    H146105   4.406   2.378  11.620 -0.1151 -0.8042  0.1797
 8230TIP3    H246106   4.481   2.302  11.727 -0.5414 -0.8863  0.4212
 8231TIP3   OH246107   0.723   2.701   5.394  0.4819 -0.0669 -0.0884
 8231TIP3    H146108   0.628   2.695   5.397  0.4609  0.0640 -0.5167
 8231TIP3    H246109   0.752   2.615   5.362  0.4812  0.0632 -0.4421
 8232TIP3   OH246110   1.769   3.446  16.530  0.4371  0.4965 -0.0831
 8232TIP3    H146111   1.677   3.465  16.516 -0.2812 -0.7446  2.4394
 8232TIP3    H246112   1.801   3.417  16.444 -0.8700  3.0427 -1.5684
 8233TIP3   OH246113   2.328   5.184  15.367 -0.0491  0.2715 -0.0535
 8233TIP3    H146114   2.270   5.185  15.290  0.0871 -2.9039 -0.3361
 8233TIP3    H246115   2.382   5.262  15.358 -1.0276  0.7536 -2.3835
 8234TIP3   OH246116   5.373   1.702  11.813  0.1321 -0.0005  0.3029
 8234TIP3    H146117   5.347   1.769  11.875  1.4898  1.2544 -0.4032
 8234TIP3    H246118   5.346   1.620  11.853  0.4721  0.7942  2.2845
 8235TIP3   OH246119   4.926   2.697  15.799  0.7705  0.3565  0.1111
 8235TIP3    H146120   4.993   2.752  15.839  1.2270 -1.8446  2.6496
 8235TIP3    H246121   4.843   2.732  15.833  1.0199 -0.0711  1.2044
 8236TIP3   OH246122   2.357   4.074   6.534 -0.4316  0.2819 -0.3341
 8236TIP3    H146123   2.354   4.169   6.525 -1.9365  0.4281  1.3084
 8236TIP3    H246124   2.374   4.058   6.627  2.1289 -1.1117 -0.9141
 8237TIP3   OH246125   3.455   0.930  11.969  0.8847 -0.4859 -0.3455
 8237TIP3    H146126   3.540   0.970  11.949  0.1870  1.0223 -0.4455
 8237TIP3    H246127   3.476   0.841  11.996  2.4323 -0.3843 -1.1106
 8238TIP3   OH246128   1.331   3.092   5.913  0.2284  0.0629 -0.3057
 8238TIP3    H146129   1.326   3.077   5.819 -1.0606  1.2179 -0.4545
 8238TIP3    H246130   1.388   3.169   5.922 -1.9805  1.8251 -0.4282
 8239TIP3   OH246131   4.541   3.695   5.838 -0.0352  0.3170 -0.1319
 8239TIP3    H146132   4.567   3.693   5.930 -1.8239 -0.3969  0.4170
 8239TIP3    H246133   4.576   3.613   5.802 -0.5616 -0.1134  0.3104
 8240TIP3   OH246134   5.056   1.827  13.472  0.2981 -0.3048 -0.0497
 8240TIP3    H146135   4.969   1.788  13.487  0.7514 -1.3956 -0.1974
 8240TIP3    H246136   5.039   1.899  13.411 -0.2865 -1.5403 -1.3935
 8241TIP3   OH246137   2.254   1.866  13.056 -0.1424  0.1938 -0.6562
 8241TIP3    H146138   2.294   1.805  13.118 -0.7362 -0.0902 -0.5505
 8241TIP3    H246139   2.269   1.826  12.970  1.0875  0.8127 -0.7553
 8242TIP3   OH246140   6.048   5.936   1.352  0.1380 -0.4124 -0.0060
 8242TIP3    H146141   6.141   5.921   1.334 -0.5869 -2.7876 -2.3599
 8242TIP3    H246142   6.030   5.884   1.431  0.3963 -1.8414 -0.8469
 8243TIP3   OH246143   0.373   1.651   5.297 -0.5525  0.4948  0.1689
 8243TIP3    H146144   0.403   1.737   5.323  0.3646  0.1983  0.1031
 8243TIP3    H246145   0.279   1.651   5.318 -0.8999  2.0179 -1.1832
 8244TIP3   OH246146   3.295   0.718   6.022  0.2945 -1.1996 -0.1291
 8244TIP3    H146147   3.269   0.786   6.083  0.3413  0.5460 -1.9438
 8244TIP3    H246148   3.389   0.706   6.037  0.7273  0.6308 -1.1080
 8245TIP3   OH246149   1.756   0.201   1.812  0.4472  0.1164  0.5985
 8245TIP3    H146150   1.776   0.125   1.868 -1.3162 -0.9024 -0.0520
 8245TIP3    H246151   1.751   0.165   1.724  0.0571  1.0869  0.2150
 8246TIP3   OH246152   0.028   1.230  16.575  0.4880 -0.5228  0.4508
 8246TIP3    H146153   0.091   1.177  16.623  1.2674 -0.1635 -0.1662
 8246TIP3    H246154   0.038   1.318  16.611  1.4428 -0.1405 -0.7073
 8247TIP3   OH246155   2.866   4.592  16.672 -0.7003 -0.9955  0.2509
 8247TIP3    H146156   2.792   4.549  16.715 -1.0634  0.0577  0.7017
 8247TIP3    H246157   2.830   4.672  16.636  0.1950 -0.5245  0.3641
 8248TIP3   OH246158   4.286   0.245   5.934 -0.1197  0.1699 -0.0693
 8248TIP3    H146159   4.303   0.190   6.011  1.1015 -1.6137 -1.5196
 8248TIP3    H246160   4.191   0.255   5.932 -0.3165 -1.2865  0.6780
 8249TIP3   OH246161   2.495   4.755  16.064 -0.3750  0.2794  0.0946
 8249TIP3    H146162   2.585   4.765  16.030 -0.2770  1.9459  0.7957
 8249TIP3    H246163   2.507   4.725  16.154 -0.5355  0.0600  0.0435
 8250TIP3   OH246164   0.588   5.382  13.813  0.0550 -0.0301 -0.1016
 8250TIP3    H146165   0.661   5.415  13.761 -1.8971  1.0875 -2.3544
 8250TIP3    H246166   0.557   5.305  13.765 -0.8398  0.1166  0.2151
 8251TIP3   OH246167   3.878   4.704  14.126 -0.3644  0.0157  0.7070
 8251TIP3    H146168   3.878   4.621  14.174  1.5549 -0.0415  0.6698
 8251TIP3    H246169   3.936   4.689  14.051 -1.6677  0.7540 -0.4981
 8252TIP3   OH246170   0.248   4.397  16.753 -0.2998  0.0313  0.3482
 8252TIP3    H146171   0.232   4.371  16.844 -1.4196 -0.4428  0.0313
 8252TIP3    H246172   0.329   4.351  16.730  0.0382  0.2164  1.1185
 8253TIP3   OH246173   3.531   6.123   1.507  0.5357  0.3415  0.5679
 8253TIP3    H146174   3.441   6.093   1.495  0.5311  0.9640 -1.1682
 8253TIP3    H246175   3.559   6.150   1.420  2.3691  0.2902  1.1077
 8254TIP3   OH246176   6.105   5.344   0.384 -0.6651 -0.3484 -0.2243
 8254TIP3    H146177   6.077   5.397   0.310 -0.7560  0.4400  0.3564
 8254TIP3    H246178   6.173   5.287   0.349  1.0029  1.6502 -0.4215
 8255TIP3   OH246179   0.364   3.762  15.871 -0.0398  0.0014 -0.5021
 8255TIP3    H146180   0.352   3.718  15.956  0.8656  0.9514  0.1506
 8255TIP3    H246181   0.449   3.805  15.879  0.4573 -0.5780 -2.2236
 8256TIP3   OH246182   1.968   5.478  17.312 -0.3115 -0.0109 -0.1869
 8256TIP3    H146183   1.968   5.561  17.264  0.0156 -0.2818 -0.6786
 8256TIP3    H246184   1.932   5.499  17.398  2.2107  1.2324  0.6887
 8257TIP3   OH246185   3.558   4.024  12.947 -0.5330 -0.6431  0.1603
 8257TIP3    H146186   3.537   4.038  12.855  0.3213 -0.2170  0.0170
 8257TIP3    H246187   3.528   4.104  12.991  0.1655 -0.3172  0.0562
 8258TIP3   OH246188   5.335   4.048  13.073 -0.0580 -0.1331  0.0700
 8258TIP3    H146189   5.312   4.073  13.162 -1.2922  0.7623 -0.4745
 8258TIP3    H246190   5.417   3.999  13.082 -1.1802 -1.8590  1.9302
 8259TIP3   OH246191   2.999   6.424  13.294 -0.1264  0.2555 -0.2456
 8259TIP3    H146192   2.938   6.486  13.335 -1.0621 -0.4684 -0.4926
 8259TIP3    H246193   3.074   6.477  13.268 -1.0352  1.3430 -0.7268
 8260TIP3   OH246194   3.574   6.630  14.315  0.0546 -0.0988 -1.0357
 8260TIP3    H146195   3.568   6.707  14.258 -1.0791  3.2287  3.0413
 8260TIP3    H246196   3.491   6.585  14.305 -0.7982  1.3768 -0.9280
 8261TIP3   OH246197   2.603   5.121  11.409 -0.1588  0.3668 -0.2379
 8261TIP3    H146198   2.564   5.119  11.496 -1.3649 -2.1291 -0.7227
 8261TIP3    H246199   2.529   5.116  11.349  0.7070 -1.0356 -1.2807
 8262TIP3   OH246200   3.655   1.200   3.271  0.3795  0.1467 -0.4312
 8262TIP3    H146201   3.584   1.206   3.334  0.4907  0.1491 -0.3050
 8262TIP3    H246202   3.617   1.229   3.188  0.7867  2.2203  0.0587
 8263TIP3   OH246203   5.931   2.012  16.363  0.4374 -1.0294  0.2418
 8263TIP3    H146204   5.884   1.995  16.282 -0.1041  2.3503 -0.3119
 8263TIP3    H246205   6.009   2.060  16.335  0.4131 -0.1051  1.6785
 8264TIP3   OH246206   1.011   0.603  12.730 -0.4988  0.0669  0.2369
 8264TIP3    H146207   0.963   0.599  12.813 -0.3647 -0.7505  0.2865
 8264TIP3    H246208   0.968   0.673  12.681 -0.3834  0.7769  1.1116
 8265TIP3   OH246209   0.602   1.397  14.360  0.3737  0.6551 -0.2941
 8265TIP3    H146210   0.570   1.470  14.308  1.3049 -0.0306 -1.8920
 8265TIP3    H246211   0.549   1.322  14.333  1.5792  0.0621 -1.1054
 8266TIP3   OH246212   5.544   5.558  15.459  0.5935 -0.6521  0.4703
 8266TIP3    H146213   5.454   5.552  15.428  0.9083  1.9662 -1.3456
 8266TIP3    H246214   5.536   5.579  15.552 -0.8312  1.4887 -0.0467
 8267TIP3   OH246215   2.033   1.403  15.847  0.2120  0.8155  0.1703
 8267TIP3    H146216   1.996   1.491  15.839  1.7488  1.6440  1.6131
 8267TIP3    H246217   2.079   1.389  15.765  0.9791  1.8745  0.4057
 8268TIP3   OH246218   4.391   2.756  14.500  0.2807  0.8595  0.8366
 8268TIP3    H146219   4.452   2.735  14.570 -0.1575  0.9136  1.2397
 8268TIP3    H246220   4.347   2.836  14.530 -0.2565  0.6064  0.7253
 8269TIP3   OH246221   0.580   1.944  11.259  0.0915 -0.0946  0.4436
 8269TIP3    H146222   0.589   1.929  11.164  1.3734 -0.4977  0.6166
 8269TIP3    H246223   0.511   1.884  11.286  0.3372 -0.6247 -0.0828
 8270TIP3   OH246224   5.184   5.210  14.544  0.4003 -0.3204 -0.6573
 8270TIP3    H146225   5.149   5.139  14.491  2.7662 -1.3121 -1.0002
 8270TIP3    H246226   5.267   5.233  14.503  0.1112  2.1077 -0.0591
 8271TIP3   OH246227   1.023   5.242  11.531  0.3090 -0.4112 -0.3535
 8271TIP3    H146228   1.002   5.177  11.464 -0.2308 -1.6426  0.9502
 8271TIP3    H246229   0.955   5.308  11.522  1.4278  0.5597 -2.3551
 8272TIP3   OH246230   3.766   1.883  16.604  0.0487  0.0694 -0.4925
 8272TIP3    H146231   3.823   1.902  16.678  0.7199 -0.8829 -0.7457
 8272TIP3    H246232   3.732   1.969  16.577  2.9966  1.0094 -1.6537
 8273TIP3   OH246233   3.740   3.105   2.725 -0.3447 -0.0459  0.3551
 8273TIP3    H146234   3.817   3.122   2.670 -0.0550 -0.3458  0.6680
 8273TIP3    H246235   3.739   3.010   2.736 -2.2855 -0.3770 -1.8711
 8274TIP3   OH246236   0.736   2.064  11.041  0.6510 -0.5522  0.0733
 8274TIP3    H146237   0.677   2.138  11.055  1.4107  0.1082 -0.1730
 8274TIP3    H246238   0.718   2.037  10.950 -0.6025 -1.5697  0.5835
 8275TIP3   OH246239   0.354   6.034   3.745 -0.1477 -0.0250  0.2120
 8275TIP3    H146240   0.291   5.978   3.790 -0.2378 -0.7504 -0.7908
 8275TIP3    H246241   0.365   6.109   3.804 -0.3852 -0.8540  1.3521
 8276TIP3   OH246242   0.711   5.500   1.487 -0.3445  0.2322  0.0701
 8276TIP3    H146243   0.779   5.564   1.467 -0.0387 -0.4372 -1.1843
 8276TIP3    H246244   0.641   5.551   1.528  0.5258  1.0834  0.5514
 8277TIP3   OH246245   4.217   2.983   2.130  0.2413 -0.2132  0.5430
 8277TIP3    H146246   4.265   2.965   2.211  0.6239  1.0697  0.6366
 8277TIP3    H246247   4.175   3.068   2.145  0.7423  0.3116 -0.7615
 8278TIP3   OH246248   2.259   4.986   5.008  0.4939  1.1944 -0.1824
 8278TIP3    H146249   2.344   4.944   4.994  1.1902  2.3847  0.2692
 8278TIP3    H246250   2.216   4.934   5.075 -0.0772 -0.6793 -1.9011
 8279TIP3   OH246251   5.034   4.886  16.716 -0.2628  0.0809  0.2257
 8279TIP3    H146252   5.055   4.979  16.724 -0.7968  0.2685 -0.4845
 8279TIP3    H246253   5.069   4.847  16.797  1.0947  0.6768 -0.0445
 8280TIP3   OH246254   2.712   3.929   1.535  0.1276  0.4481 -0.1626
 8280TIP3    H146255   2.644   3.941   1.601 -0.2132  0.4673 -0.5135
 8280TIP3    H246256   2.664   3.916   1.453  0.5192 -0.7716 -0.2193
 8281TIP3   OH246257   5.445   5.206  16.050  1.0190 -0.1255 -0.1021
 8281TIP3    H146258   5.471   5.261  16.124 -1.1984  1.0670 -0.1282
 8281TIP3    H246259   5.358   5.173  16.074  1.2378 -1.5904 -1.1956
 8282TIP3   OH246260   2.430   0.617   3.588 -0.5576 -0.0508 -0.5864
 8282TIP3    H146261   2.363   0.624   3.656  1.7013  2.0779  1.6453
 8282TIP3    H246262   2.416   0.694   3.533 -0.4718 -0.0769 -0.6454
 8283TIP3   OH246263   0.561   6.246  13.542 -0.3282 -0.7016  0.4909
 8283TIP3    H146264   0.566   6.337  13.513 -1.7220 -0.7810 -0.0986
 8283TIP3    H246265   0.556   6.252  13.637  0.3148 -0.2017  0.4977
 8284TIP3   OH246266   4.239   0.190  15.804 -0.3526  0.4833  0.8205
 8284TIP3    H146267   4.322   0.199  15.851 -0.5079  0.8277  1.0347
 8284TIP3    H246268   4.187   0.130  15.858  1.0290 -2.7195 -1.0774
 8285TIP3   OH246269   1.083   5.722   5.269  0.0835 -0.1635  0.2037
 8285TIP3    H146270   1.030   5.642   5.272 -0.0348 -0.0616  2.2317
 8285TIP3    H246271   1.023   5.789   5.236 -0.9088 -0.1852  1.8823
 8286TIP3   OH246272   3.184   4.226   0.773 -0.5223 -0.2040  0.4731
 8286TIP3    H146273   3.259   4.270   0.731 -0.1845 -0.3248  0.9349
 8286TIP3    H246274   3.221   4.145   0.810 -0.7950 -0.0825  1.0323
 8287TIP3   OH246275   5.962   0.054   0.369 -0.0347  0.5548 -0.2050
 8287TIP3    H146276   6.015   0.133   0.373 -0.0345  0.5151  1.1369
 8287TIP3    H246277   5.871   0.085   0.374 -0.0312  0.4757  0.4349
 8288TIP3   OH246278   4.439   3.873  11.380 -0.2378 -0.4407  0.4884
 8288TIP3    H146279   4.508   3.818  11.417  2.5270  1.5717 -1.2678
 8288TIP3    H246280   4.486   3.939  11.330 -3.4351  2.2174  0.6835
 8289TIP3   OH246281   4.952   3.013  12.282 -0.1094 -0.1704  0.2088
 8289TIP3    H146282   5.015   3.066  12.233  1.2380 -1.1326  0.8572
 8289TIP3    H246283   4.964   3.039  12.373 -1.3090  0.2830  0.2581
 8290TIP3   OH246284   2.429   3.491  16.806 -0.4457  0.3381 -0.3619
 8290TIP3    H146285   2.365   3.535  16.750 -1.1196 -0.5030 -0.2800
 8290TIP3    H246286   2.470   3.427  16.748 -1.1357 -0.5284  0.0751
 8291TIP3   OH246287   2.512   4.731   4.068 -0.6758  0.2219 -0.3594
 8291TIP3    H146288   2.427   4.748   4.110  0.7563  2.2133  2.0309
 8291TIP3    H246289   2.532   4.812   4.021 -0.3371 -0.4584 -1.4138
 8292TIP3   OH246290   6.511   3.869   4.777  0.0579 -0.2077  0.1690
 8292TIP3    H146291   6.591   3.912   4.746  0.5783 -0.9057  0.5199
 8292TIP3    H246292   6.454   3.942   4.804  1.3091  0.2585  1.6847
 8293TIP3   OH246293   5.626   3.599  14.519  0.0140  0.0179  0.0929
 8293TIP3    H146294   5.665   3.513  14.535  0.5138  0.3722  0.8468
 8293TIP3    H246295   5.616   3.603  14.424 -2.8091 -2.0758  0.1819
 8294TIP3   OH246296   3.256   0.840  14.786  0.0639  0.3577  0.5213
 8294TIP3    H146297   3.348   0.860  14.803 -0.0197  1.8517 -0.5571
 8294TIP3    H246298   3.255   0.794  14.703 -0.3147  2.9369 -1.0083
 8295TIP3   OH246299   3.286   4.586   0.079 -0.0734 -0.0500 -0.3705
 8295TIP3    H146300   3.267   4.534   0.001  1.8681  0.2069 -1.0563
 8295TIP3    H246301   3.225   4.660   0.073 -0.7399 -0.6333 -1.0198
 8296TIP3   OH246302   1.905   5.399  12.548  0.3070  0.3117 -0.2395
 8296TIP3    H146303   1.954   5.375  12.627 -1.2310 -1.1776  0.3256
 8296TIP3    H246304   1.888   5.493  12.558 -2.0548 -0.2642  2.6046
 8297TIP3   OH246305   3.437   0.324   4.136 -0.1005  0.2613 -0.5188
 8297TIP3    H146306   3.401   0.360   4.217 -0.2209 -1.3258  0.1778
 8297TIP3    H246307   3.393   0.373   4.066  0.8949  2.5051  0.3340
 8298TIP3   OH246308   0.046   4.874   3.488 -0.2200  0.0993  0.4057
 8298TIP3    H146309   0.103   4.942   3.523 -0.0908  0.1352  0.1326
 8298TIP3    H246310   0.092   4.792   3.506  0.0566  0.1452 -0.0575
 8299TIP3   OH246311   1.801   1.266   2.181 -0.1097 -0.3416  0.3649
 8299TIP3    H146312   1.865   1.334   2.201 -0.4014 -0.1715  0.7282
 8299TIP3    H246313   1.849   1.184   2.188 -0.1283 -0.2630  1.4452
 8300TIP3   OH246314   2.334   4.624  16.915  0.4603  0.6088  0.0368
 8300TIP3    H146315   2.422   4.612  16.879 -0.0022  1.4881 -1.4892
 8300TIP3    H246316   2.295   4.691  16.859 -1.3601 -0.1185  0.3850
 8301TIP3   OH246317   2.753   1.735   3.995  0.4047  0.0055 -0.7368
 8301TIP3    H146318   2.726   1.649   3.962 -1.7649  0.9213 -1.5668
 8301TIP3    H246319   2.717   1.739   4.084  0.4507  0.0665 -0.7209
 8302TIP3   OH246320   0.718   5.126   6.355  0.4294  0.5690 -0.1552
 8302TIP3    H146321   0.655   5.195   6.377  0.9611  0.7081  1.0225
 8302TIP3    H246322   0.728   5.132   6.260 -0.2819  1.4557 -0.1883
 8303TIP3   OH246323   1.524   2.571   0.319 -0.1161  0.8559  0.3000
 8303TIP3    H146324   1.567   2.625   0.253 -1.5706  0.9424 -0.6359
 8303TIP3    H246325   1.548   2.481   0.295  1.1093  0.9843  0.9758
 8304TIP3   OH246326   3.936   4.319  11.656  0.3795  0.1582  0.0283
 8304TIP3    H146327   3.976   4.344  11.740  1.5818 -0.0334 -0.4696
 8304TIP3    H246328   3.980   4.374  11.591  0.7667 -0.9725 -0.6903
 8305TIP3   OH246329   3.208   4.047   5.375  0.0203 -0.6042  0.2385
 8305TIP3    H146330   3.196   4.084   5.463  0.4810 -0.8292  0.3971
 8305TIP3    H246331   3.292   4.082   5.345 -0.3187 -0.2147 -0.2745
 8306TIP3   OH246332   3.479   4.039  15.085  0.6273 -0.5271 -0.3699
 8306TIP3    H146333   3.404   4.042  15.025  0.8920  0.5190 -0.6663
 8306TIP3    H246334   3.527   3.961  15.060 -0.4997 -1.3795 -0.0012
 8307TIP3   OH246335   1.632   2.168  12.952  0.3486 -0.1259  0.3786
 8307TIP3    H146336   1.631   2.165  12.856  0.3755  0.9518  0.3353
 8307TIP3    H246337   1.573   2.097  12.979  0.0169 -0.1709 -0.4382
 8308TIP3   OH246338   4.927   0.901  14.257  0.0130 -0.6773 -0.0807
 8308TIP3    H146339   4.883   0.863  14.334 -0.1154 -1.1670 -0.3937
 8308TIP3    H246340   4.882   0.984  14.243  0.4470 -0.2841  0.7498
 8309TIP3   OH246341   0.244   4.120   2.553 -0.2538 -0.0855  0.6285
 8309TIP3    H146342   0.277   4.068   2.480 -1.5644  0.5323 -0.4493
 8309TIP3    H246343   0.153   4.092   2.563 -1.2489  2.4569 -0.4968
 8310TIP3   OH246344   1.866   0.514   3.089 -0.3046 -0.0732 -0.1718
 8310TIP3    H146345   1.955   0.549   3.096  0.0003 -0.8864  0.2310
 8310TIP3    H246346   1.830   0.555   3.011  0.4317  0.2533 -0.3522
 8311TIP3   OH246347   4.512   4.579   0.318 -0.2330  0.3224  0.6593
 8311TIP3    H146348   4.541   4.641   0.250 -1.4283  0.5212  0.3077
 8311TIP3    H246349   4.485   4.635   0.391  0.7585  0.1194  1.1953
 8312TIP3   OH246350   6.182   1.366  11.248  0.4763 -0.0991  0.9301
 8312TIP3    H146351   6.143   1.334  11.330 -0.0745 -2.0107 -0.0271
 8312TIP3    H246352   6.108   1.398  11.197  0.6555 -0.1309  0.6477
 8313TIP3   OH246353   6.186   3.003   0.655  0.3106 -0.1875 -0.0889
 8313TIP3    H146354   6.187   3.095   0.682  1.0409 -1.1220  3.7240
 8313TIP3    H246355   6.272   2.988   0.616 -0.2782  0.9828 -1.9259
 8314TIP3   OH246356   5.677   3.098   5.363  0.1625 -0.1033  0.4321
 8314TIP3    H146357   5.595   3.143   5.343  1.1447  1.5368 -0.0647
 8314TIP3    H246358   5.700   3.127   5.451  1.6761  1.8261 -0.5354
 8315TIP3   OH246359   0.241   1.077  17.113  0.3274  0.2300  0.2013
 8315TIP3    H146360   0.182   1.009  17.082 -1.2662  0.8536  1.6929
 8315TIP3    H246361   0.303   1.031  17.170  0.9940 -0.3451 -0.9499
 8316TIP3   OH246362   4.390   1.074  13.953 -0.4925 -0.0205  0.1738
 8316TIP3    H146363   4.378   1.102  13.862  2.9047  0.0167 -0.3843
 8316TIP3    H246364   4.387   0.979  13.950  0.2295 -0.0383 -0.1079
 8317TIP3   OH246365   6.534   4.590  16.212  0.3322 -0.2915 -0.6951
 8317TIP3    H146366   6.579   4.543  16.282 -2.6186 -2.1219  0.2132
 8317TIP3    H246367   6.575   4.676  16.209  2.0031 -0.9022  1.8086
 8318TIP3   OH246368   4.658   1.215   5.847  0.0160  0.2717 -0.5333
 8318TIP3    H146369   4.707   1.233   5.926  0.0762  3.5222 -1.1714
 8318TIP3    H246370   4.710   1.150   5.800  0.9807 -0.2318  1.1659
 8319TIP3   OH246371   6.123   5.193  16.877  0.6884 -0.2246 -0.4750
 8319TIP3    H146372   6.166   5.154  16.953  1.0816  1.6025  0.2845
 8319TIP3    H246373   6.030   5.178  16.892  0.7687  0.0405  0.3386
 8320TIP3   OH246374   4.849   5.166   4.464 -0.9889  0.1594 -0.0578
 8320TIP3    H146375   4.876   5.083   4.425 -3.1893 -0.3735 -0.5854
 8320TIP3    H246376   4.786   5.141   4.532 -0.6636  1.3242  0.6859
 8321TIP3   OH246377   2.346   1.331   3.098 -0.1513 -0.0166 -0.0412
 8321TIP3    H146378   2.429   1.284   3.091 -0.0293  0.3225 -1.0082
 8321TIP3    H246379   2.291   1.292   3.030 -1.0156 -0.6603  0.9810
 8322TIP3   OH246380   3.822   1.259  15.016  0.1836 -0.1984  0.2614
 8322TIP3    H146381   3.861   1.334  15.061 -0.3095  1.1401 -1.4652
 8322TIP3    H246382   3.731   1.259  15.044  0.4802 -1.0186  1.3132
 8323TIP3   OH246383   1.299   1.257  13.691  0.3706  0.4156 -0.7612
 8323TIP3    H146384   1.254   1.221  13.615 -1.9380  0.9242  0.2859
 8323TIP3    H246385   1.369   1.194  13.709 -2.3331 -2.7166 -0.1120
 8324TIP3   OH246386   5.237   2.051   5.486 -0.0396  0.7979  0.0425
 8324TIP3    H146387   5.244   1.960   5.456  0.8391  0.2946  1.6661
 8324TIP3    H246388   5.310   2.062   5.547 -0.5713  2.3733  0.4458
 8325TIP3   OH246389   5.174   4.961  14.401 -0.0227  0.3489 -0.0212
 8325TIP3    H146390   5.263   4.939  14.370 -0.2848  0.4241 -0.8642
 8325TIP3    H246391   5.140   5.020  14.334 -0.4069  0.9951  0.7280
 8326TIP3   OH246392   6.590   3.270   3.274  0.0866 -0.4563  0.4532
 8326TIP3    H146393   6.565   3.229   3.191 -1.6952 -0.8984  1.1448
 8326TIP3    H246394   6.656   3.334   3.250 -2.2733  1.3795 -1.7880
 8327TIP3   OH246395   2.705   4.179  15.932  0.0322 -0.3877  0.4236
 8327TIP3    H146396   2.659   4.246  15.881 -2.4920 -2.4612 -0.2468
 8327TIP3    H246397   2.787   4.165  15.884 -0.5047  0.4866 -0.8172
 8328TIP3   OH246398   0.479   1.846   3.246 -0.5020 -0.0387  0.1315
 8328TIP3    H146399   0.483   1.922   3.304  1.3497  1.2188 -1.5362
 8328TIP3    H246400   0.428   1.875   3.171 -1.3490 -1.0695  0.2856
 8329TIP3   OH246401   1.873   4.204  11.587 -0.1151  0.3960  0.6876
 8329TIP3    H146402   1.931   4.178  11.516 -1.6039  0.6118 -0.6704
 8329TIP3    H246403   1.894   4.144  11.659 -0.5159 -1.7954 -0.9017
 8330TIP3   OH246404   3.158   2.470  12.360 -0.1117 -0.6055 -0.0628
 8330TIP3    H146405   3.102   2.546  12.379 -1.2975 -1.6762  0.8834
 8330TIP3    H246406   3.247   2.506  12.361 -0.4647  0.4352  2.4875
 8331TIP3   OH246407   4.525   0.090   5.312 -0.1072 -0.4998  0.1630
 8331TIP3    H146408   4.458   0.139   5.265 -0.8570 -1.6137  0.0402
 8331TIP3    H246409   4.602   0.148   5.311 -0.8424  0.5047 -0.2915
 8332TIP3   OH246410   5.861   4.570  13.506 -0.0486  0.1335  0.1737
 8332TIP3    H146411   5.887   4.521  13.584 -1.4977  0.3793  0.8527
 8332TIP3    H246412   5.916   4.535  13.436 -1.4288 -3.0125  0.4609
 8333TIP3   OH246413   2.986   5.588  14.617 -0.4554  0.7093 -0.0143
 8333TIP3    H146414   2.954   5.564  14.703 -3.1809 -0.9484 -1.3415
 8333TIP3    H246415   2.912   5.632  14.575 -0.3029 -1.1591 -2.4796
 8334TIP3   OH246416   6.076   5.647  11.734 -0.4985 -0.3313  0.1228
 8334TIP3    H146417   6.071   5.678  11.643  1.4216 -0.5218 -0.1089
 8334TIP3    H246418   6.168   5.621  11.744 -0.4142  0.6922  2.4704
 8335TIP3   OH246419   1.414   2.008  11.602 -0.0017 -0.3536  0.5890
 8335TIP3    H146420   1.380   1.993  11.514 -1.3006  1.7924  0.6600
 8335TIP3    H246421   1.451   2.096  11.599  0.2526 -0.3801  2.1014
 8336TIP3   OH246422   6.746   3.326   5.255  0.3538 -0.2055 -0.0751
 8336TIP3    H146423   6.667   3.274   5.239  0.7652 -1.3140  1.3306
 8336TIP3    H246424   6.814   3.283   5.204  0.5684 -0.7123  0.6301
 8337TIP3   OH246425   4.857   4.946   5.423  0.0029  0.0234  0.0733
 8337TIP3    H146426   4.801   4.869   5.432 -0.8737  0.8285  2.1839
 8337TIP3    H246427   4.808   5.004   5.364  0.0959 -0.5369 -0.5615
 8338TIP3   OH246428   2.680   2.059  12.455 -0.3371  0.6009 -0.1628
 8338TIP3    H146429   2.612   2.007  12.413 -0.7405 -0.2030  1.3783
 8338TIP3    H246430   2.709   2.004  12.529  1.8806  0.9791 -0.6789
 8339TIP3   OH246431   1.163   2.035  16.268  0.6262 -0.4328  0.6424
 8339TIP3    H146432   1.252   2.051  16.238 -0.0963  0.7924 -0.9816
 8339TIP3    H246433   1.130   1.966  16.211  0.3857 -0.5570  0.9280
 8340TIP3   OH246434   6.086   2.856   4.373 -0.0619  0.0077  0.5471
 8340TIP3    H146435   6.000   2.897   4.369 -0.2645 -0.4332  0.3453
 8340TIP3    H246436   6.135   2.897   4.301 -0.0504  0.3683  0.7558
 8341TIP3   OH246437   1.055   1.767   1.601  0.1560 -0.4939  0.0136
 8341TIP3    H146438   1.142   1.792   1.572  0.4504  0.6988  1.8048
 8341TIP3    H246439   1.065   1.748   1.694 -1.9813  2.7036  1.0751
 8342TIP3   OH246440   2.484   0.213  14.669 -0.1558 -0.1085  0.3632
 8342TIP3    H146441   2.542   0.284  14.643  0.0501 -0.5141 -0.3038
 8342TIP3    H246442   2.541   0.136  14.673 -0.1043 -0.0215  2.3319
 8343TIP3   OH246443   5.577   5.300   1.539 -0.9237  0.3725  0.0018
 8343TIP3    H146444   5.498   5.250   1.517 -0.6303  0.6626 -1.9236
 8343TIP3    H246445   5.647   5.236   1.534 -0.8704  0.4181  0.1978
 8344TIP3   OH246446   3.486   4.204  12.722 -1.0500  0.8441  0.0450
 8344TIP3    H146447   3.406   4.212  12.774 -1.6634 -0.6419 -0.6174
 8344TIP3    H246448   3.458   4.165  12.640  0.4883 -0.6469  0.1730
 8345TIP3   OH246449   2.841   5.262  14.223  0.3423  0.2332 -0.4190
 8345TIP3    H146450   2.781   5.257  14.149  0.7315  2.4498 -0.9591
 8345TIP3    H246451   2.821   5.185  14.276 -1.6865 -0.0540 -1.5183
 8346TIP3   OH246452   0.892   3.936   3.245  0.1312 -0.2832 -0.4477
 8346TIP3    H146453   0.875   3.879   3.170  1.2265 -0.9707 -0.1885
 8346TIP3    H246454   0.807   3.947   3.287 -0.5862  0.4320 -1.9995
 8347TIP3   OH246455   1.348   4.865  14.611 -0.3925 -0.0301  0.1549
 8347TIP3    H146456   1.360   4.955  14.579 -0.8071  0.1181  0.4082
 8347TIP3    H246457   1.299   4.822  14.541 -1.7109  0.4216  0.7626
 8348TIP3   OH246458   3.783   4.118  15.536  0.3127  0.6874  0.0519
 8348TIP3    H146459   3.718   4.058  15.501  0.2760  0.0477  1.1757
 8348TIP3    H246460   3.847   4.128  15.465 -0.2896  0.2463 -0.5615
 8349TIP3   OH246461   4.031   0.192  12.921 -0.2829  0.0762 -0.1685
 8349TIP3    H146462   4.111   0.141  12.935 -0.4705 -0.2681 -0.3184
 8349TIP3    H246463   4.035   0.262  12.985 -0.7392 -1.0075  1.0917
 8350TIP3   OH246464   0.801   6.584   4.733  1.1028  0.5607  0.4315
 8350TIP3    H146465   0.749   6.559   4.809  1.9601 -2.7417  0.0833
 8350TIP3    H246466   0.862   6.650   4.766 -0.2197  1.0947  1.9330
 8351TIP3   OH246467   4.832   0.921   0.425 -0.0234  0.8006 -0.9043
 8351TIP3    H146468   4.920   0.955   0.440  0.3061 -0.5860  0.5233
 8351TIP3    H246469   4.778   0.960   0.494 -0.2380  0.6004 -0.9557
 8352TIP3   OH246470   1.937   1.053   2.270  0.2087 -0.8120  0.1443
 8352TIP3    H146471   1.904   1.052   2.360  2.0434 -1.0902  0.8598
 8352TIP3    H246472   1.980   0.969   2.258 -0.1365 -0.8434 -1.0730
 8353TIP3   OH246473   4.200   5.629  13.444 -0.3359 -0.0629  0.0240
 8353TIP3    H146474   4.274   5.568  13.445  0.2161  0.5696  1.3872
 8353TIP3    H246475   4.172   5.631  13.353  2.1416  0.6086 -0.8249
 8354TIP3   OH246476   0.110   1.454   4.806 -0.0124  0.2468  0.3986
 8354TIP3    H146477   0.102   1.403   4.725  1.4390 -1.4054  1.2169
 8354TIP3    H246478   0.122   1.544   4.776 -0.9801 -0.1085 -1.1673
 8355TIP3   OH246479   4.984   2.333   2.557 -0.4288  0.5759 -0.1085
 8355TIP3    H146480   4.911   2.327   2.619 -0.7584  0.0967 -0.5387
 8355TIP3    H246481   4.998   2.427   2.546 -0.9565  0.6702  0.0067
 8356TIP3   OH246482   5.545   0.807   6.341  0.0777 -0.5947  0.0065
 8356TIP3    H146483   5.466   0.808   6.287  0.8935  0.3686 -1.2339
 8356TIP3    H246484   5.576   0.897   6.339  1.7572 -1.1454 -0.4122
 8357TIP3   OH246485   1.622   2.352  10.798 -0.1048  0.7700 -0.2097
 8357TIP3    H146486   1.650   2.283  10.858  0.9583  0.2815 -1.2183
 8357TIP3    H246487   1.531   2.369  10.822  0.0309 -0.0054  0.9641
 8358TIP3   OH246488   2.746   1.185   1.661  0.7262 -0.1016  0.2469
 8358TIP3    H146489   2.806   1.178   1.735  0.2943 -2.1013  0.4864
 8358TIP3    H246490   2.698   1.266   1.677  1.3773  0.0551  1.5947
 8359TIP3   OH246491   3.801   0.381   5.138  0.4845  0.0065  0.0203
 8359TIP3    H146492   3.768   0.352   5.223  1.7700 -0.3595  0.4203
 8359TIP3    H246493   3.738   0.346   5.075 -0.6512  0.5459  0.8256
 8360TIP3   OH246494   5.108   4.684   0.633 -0.1671 -1.1533 -0.3155
 8360TIP3    H146495   5.114   4.604   0.685 -1.5278 -0.8290  0.3942
 8360TIP3    H246496   5.052   4.659   0.559 -1.7290 -0.5553  0.6125
 8361TIP3   OH246497   3.305   4.335  11.631  0.1635 -0.0220  0.0135
 8361TIP3    H146498   3.362   4.300  11.562  0.5437  0.4844  0.0753
 8361TIP3    H246499   3.243   4.391  11.584 -0.0157 -0.2232  0.0036
 8362TIP3   OH246500   5.743   0.970   0.051  0.2757 -0.1582  0.4497
 8362TIP3    H146501   5.706   0.883   0.035  1.1496 -0.5468  0.4856
 8362TIP3    H246502   5.698   1.002   0.128 -0.1774 -0.5066  0.3330
 8363TIP3   OH246503   2.569   4.600  16.752 -0.1514 -0.5115  0.4846
 8363TIP3    H146504   2.636   4.638  16.810  0.5135 -0.3261 -0.3811
 8363TIP3    H246505   2.613   4.525  16.711 -0.4792 -0.3911 -0.0914
 8364TIP3   OH246506   0.704   3.592   5.593 -0.2850 -0.3986 -0.2298
 8364TIP3    H146507   0.757   3.534   5.538 -0.7501 -0.4075 -0.6771
 8364TIP3    H246508   0.683   3.666   5.536  0.8846  0.5664  0.5397
 8365TIP3   OH246509   5.474   5.803   6.144 -0.1005 -0.0673  0.3694
 8365TIP3    H146510   5.567   5.782   6.148 -0.3636 -1.5687 -0.3931
 8365TIP3    H246511   5.431   5.717   6.138 -1.5534  0.5806  0.9961
 8366TIP3   OH246512   1.533   3.458   4.451  0.1398 -0.3990 -0.1415
 8366TIP3    H146513   1.554   3.469   4.544 -1.2187 -0.9974  0.2624
 8366TIP3    H246514   1.455   3.403   4.451 -2.8897  3.4913 -1.4169
 8367TIP3   OH246515   6.741   2.765  10.994  0.4472  0.9625  0.2522
 8367TIP3    H146516   6.727   2.687  10.941  1.4179  0.7178  0.3343
 8367TIP3    H246517   6.732   2.838  10.933 -1.4807  0.8833  0.3656
 8368TIP3   OH246518   2.440   6.241  11.396 -0.1017 -0.7081 -0.8006
 8368TIP3    H146519   2.369   6.300  11.370  0.4472 -0.3669 -1.5532
 8368TIP3    H246520   2.486   6.289  11.464 -0.3928 -0.7949 -0.5385
 8369TIP3   OH246521   1.811   4.755  11.805  0.8543 -0.2269  0.3013
 8369TIP3    H146522   1.824   4.726  11.715  0.9068 -0.4356  0.3752
 8369TIP3    H246523   1.885   4.813  11.823  0.7321 -0.0217  0.1407
 8370TIP3   OH246524   4.166   0.142   3.091 -0.3133 -0.0222 -0.2819
 8370TIP3    H146525   4.141   0.053   3.116 -1.4122  0.0801 -0.9503
 8370TIP3    H246526   4.092   0.197   3.118  0.4290  0.7291  0.2933
 8371TIP3   OH246527   2.225   6.618  12.410  0.5370 -0.2067  0.0080
 8371TIP3    H146528   2.243   6.628  12.503 -0.2834 -0.0369  0.1533
 8371TIP3    H246529   2.132   6.598  12.405  0.9019 -1.8954 -0.6704
 8372TIP3   OH246530   4.107   4.483  15.091  0.4530  0.2616  0.0694
 8372TIP3    H146531   4.157   4.484  15.010 -1.4133 -0.5497 -1.1546
 8372TIP3    H246532   4.047   4.557  15.084 -0.5570 -0.5212  0.1089
 8373TIP3   OH246533   0.142   6.322   4.242  0.1946 -0.1946 -0.1723
 8373TIP3    H146534   0.198   6.393   4.276  0.3366  0.9189 -2.5337
 8373TIP3    H246535   0.060   6.332   4.290  0.7122  0.6172  0.5859
 8374TIP3   OH246536   0.756   1.631   1.640 -0.2863 -0.0127  0.2092
 8374TIP3    H146537   0.810   1.636   1.719 -0.6348 -1.0014  0.5281
 8374TIP3    H246538   0.805   1.575   1.581 -0.0219  0.7363 -0.2998
 8375TIP3   OH246539   5.219   5.735  12.285 -0.3591 -0.1868  0.3248
 8375TIP3    H146540   5.260   5.806  12.335 -0.5377 -0.5420  0.9876
 8375TIP3    H246541   5.178   5.780  12.210  0.3861  0.2834  0.1811
 8376TIP3   OH246542   2.318   6.124  14.841 -0.0460  0.5396  0.0693
 8376TIP3    H146543   2.226   6.098  14.831 -0.7217  2.1598  1.4639
 8376TIP3    H246544   2.362   6.045  14.874 -0.5718 -0.6876 -1.9642
 8377TIP3   OH246545   5.030   3.510  11.809  1.0045  0.1518  0.5803
 8377TIP3    H146546   5.121   3.503  11.839  0.9296 -0.4954  0.6698
 8377TIP3    H246547   5.036   3.513  11.714  1.1408  0.5364  0.5968
 8378TIP3   OH246548   4.528   0.153  13.271  0.1052 -0.2581  0.0896
 8378TIP3    H146549   4.579   0.082  13.309 -0.0251  0.2120  1.1766
 8378TIP3    H246550   4.438   0.135  13.297 -0.1611 -0.5410 -0.9723
 8379TIP3   OH246551   2.387   2.797   0.680  0.0485 -0.5543  0.0734
 8379TIP3    H146552   2.373   2.771   0.771 -0.8112 -0.5332 -0.0422
 8379TIP3    H246553   2.426   2.884   0.686  0.3352 -0.7040  0.4226
 8380TIP3   OH246554   4.018   1.332  11.637  0.0714 -0.5679 -0.3228
 8380TIP3    H146555   3.980   1.260  11.586  0.2084 -1.2453  0.5030
 8380TIP3    H246556   4.112   1.313  11.638  0.2457  0.2392 -1.0367
 8381TIP3   OH246557   3.096   5.484  16.548  0.0672  0.0789  0.0085
 8381TIP3    H146558   3.095   5.580  16.552  0.1592  0.1882 -1.9336
 8381TIP3    H246559   3.049   5.457  16.627  1.7928  1.6539  1.6784
 8382TIP3   OH246560   0.198   3.453  10.957  0.2113  0.3547  0.1424
 8382TIP3    H146561   0.165   3.365  10.941 -0.1678  0.4939  0.1349
 8382TIP3    H246562   0.120   3.504  10.981  0.2142  1.0083 -1.1680
 8383TIP3   OH246563   5.852   2.014   5.348 -0.0341  0.3740 -0.1417
 8383TIP3    H146564   5.860   2.025   5.253  1.1818  0.3263 -0.0588
 8383TIP3    H246565   5.919   2.071   5.385 -0.0356 -0.1222  0.6645
 8384TIP3   OH246566   6.106   2.502  15.092 -0.2590 -0.5855  0.5311
 8384TIP3    H146567   6.068   2.476  15.008 -1.3217  0.9016  0.4943
 8384TIP3    H246568   6.156   2.581  15.072 -0.7634 -0.0473  1.3345
 8385TIP3   OH246569   0.870   4.807   2.178 -0.4556 -1.1093  0.1446
 8385TIP3    H146570   0.810   4.880   2.187 -2.2170 -2.4679  0.0257
 8385TIP3    H246571   0.841   4.743   2.243  1.0309 -1.7191  0.2555
 8386TIP3   OH246572   5.504   6.177   2.904  0.5329 -0.4577 -0.2769
 8386TIP3    H146573   5.415   6.210   2.888  0.7536  0.8980  1.1259
 8386TIP3    H246574   5.503   6.149   2.995  1.7484  0.2723 -0.0267
 8387TIP3   OH246575   4.529   3.236   6.624 -0.1929 -0.1465  0.0464
 8387TIP3    H146576   4.615   3.274   6.634  0.5966 -2.0728  1.1198
 8387TIP3    H246577   4.469   3.311   6.625  1.1809  1.0584  2.6608
 8388TIP3   OH246578   5.217   0.814  15.939  0.2099  0.1394  0.4736
 8388TIP3    H146579   5.285   0.800  16.006  0.0442 -1.1385  0.3897
 8388TIP3    H246580   5.249   0.766  15.862  0.3318  1.4771 -0.3528
 8389TIP3   OH246581   5.918   1.038  14.786 -0.0940 -0.4900  0.3799
 8389TIP3    H146582   5.967   1.090  14.850  0.2318 -0.7725  0.3646
 8389TIP3    H246583   5.846   1.000  14.835 -0.7532  0.5477  0.2405
 8390TIP3   OH246584   1.723   2.987  11.722  1.0514  0.2625  0.1556
 8390TIP3    H146585   1.753   2.979  11.632  0.2508  0.2511 -0.1212
 8390TIP3    H246586   1.660   2.915  11.733 -1.8757  2.5072 -0.5416
 8391TIP3   OH246587   4.997   5.310  15.495 -0.1714  0.0993 -0.2592
 8391TIP3    H146588   4.997   5.274  15.583  2.3136 -0.5056 -0.4227
 8391TIP3    H246589   4.912   5.286  15.459 -0.1938 -2.0552  1.0611
 8392TIP3   OH246590   6.577   6.028  15.840  1.0859 -0.1101 -0.4007
 8392TIP3    H146591   6.669   6.053  15.848  0.4371  2.5228 -0.2328
 8392TIP3    H246592   6.556   6.045  15.748 -0.0223  2.7446  0.2636
 8393TIP3   OH246593   0.417   2.712  17.192  0.1654 -0.3036  0.1678
 8393TIP3    H146594   0.469   2.648  17.142  1.3339  1.2116 -0.6154
 8393TIP3    H246595   0.482   2.765  17.239 -0.8729 -1.1730  2.7703
 8394TIP3   OH246596   4.249   4.061  14.474  0.0894  0.1067  0.5606
 8394TIP3    H146597   4.226   4.109  14.554  0.1477  0.2295  0.5044
 8394TIP3    H246598   4.332   4.100  14.446 -0.8291  1.3269 -0.5628
 8395TIP3   OH246599   2.555   1.040  17.260  0.1432 -0.4809 -0.2098
 8395TIP3    H146600   2.596   0.954  17.269  0.9256 -0.2101 -1.0055
 8395TIP3    H246601   2.615   1.089  17.203 -0.3219  0.5682  0.1752
 8396TIP3   OH246602   5.099   0.988   5.729  0.0501  0.3261 -0.1868
 8396TIP3    H146603   5.185   1.000   5.769  0.6442  0.6164 -1.4995
 8396TIP3    H246604   5.108   0.907   5.679 -0.2532  0.6743 -0.8057
 8397TIP3   OH246605   4.778   1.672  15.457 -0.1690 -0.3338 -0.1812
 8397TIP3    H146606   4.793   1.591  15.408 -0.5849 -0.8783  0.5642
 8397TIP3    H246607   4.683   1.684  15.454 -0.0308  0.6682 -1.1064
 8398TIP3   OH246608   2.933   6.637   2.238  0.0028 -0.3884 -0.3500
 8398TIP3    H146609   2.844   6.601   2.232 -1.0193  2.0398 -0.7442
 8398TIP3    H246610   2.979   6.599   2.162 -0.8998 -1.0901 -0.5701
 8399TIP3   OH246611   3.028   4.917   1.995 -0.4175 -0.0026 -0.0431
 8399TIP3    H146612   2.993   4.995   2.037 -0.9970  1.0091 -2.2721
 8399TIP3    H246613   3.122   4.931   1.992 -0.6595  1.7763 -2.4191
 8400TIP3   OH246614   1.495   3.813  11.821  0.1669 -0.6346 -0.8250
 8400TIP3    H146615   1.522   3.730  11.861  0.1966  0.4921  1.6318
 8400TIP3    H246616   1.577   3.859  11.804  0.0662  0.3818  1.2495
 8401TIP3   OH246617   5.622   0.069   2.006 -0.3267  0.4341  0.3809
 8401TIP3    H146618   5.551   0.131   2.019 -0.3332  0.3171  0.9243
 8401TIP3    H246619   5.689   0.095   2.069 -0.5353 -0.4138  0.9703
 8402TIP3   OH246620   0.376   0.425  15.428 -0.0311  0.0080  0.1070
 8402TIP3    H146621   0.444   0.481  15.464  0.5087  0.0277 -0.9305
 8402TIP3    H246622   0.367   0.354  15.491 -0.9194  1.3687  1.5889
 8403TIP3   OH246623   2.262   4.738   4.793  0.2865  0.3564  0.0018
 8403TIP3    H146624   2.173   4.774   4.800  1.2422  2.5577  1.6240
 8403TIP3    H246625   2.304   4.791   4.726  0.8406  0.3492  0.3392
 8404TIP3   OH246626   3.943   1.849   5.508 -0.6773  0.4727  0.2546
 8404TIP3    H146627   4.033   1.865   5.537 -0.6176  0.3731  0.1192
 8404TIP3    H246628   3.924   1.760   5.537 -0.9910  0.7616  0.9549
 8405TIP3   OH246629   5.823   2.388   1.417  0.4230  0.3276 -0.2107
 8405TIP3    H146630   5.797   2.444   1.490  0.4925  1.9983 -1.4233
 8405TIP3    H246631   5.918   2.391   1.417  0.5297 -1.5617  1.0116
 8406TIP3   OH246632   4.181   4.041  10.863  0.1327 -0.5311  0.0324
 8406TIP3    H146633   4.203   4.048  10.956  0.4815  0.5427 -0.1167
 8406TIP3    H246634   4.169   3.948  10.848 -0.7908 -0.6498  1.3500
 8407TIP3   OH246635   4.156   6.732  11.909  0.4200  0.2688 -0.3954
 8407TIP3    H146636   4.245   6.720  11.875 -0.1171  2.3766 -2.8809
 8407TIP3    H246637   4.103   6.669  11.860  0.3804 -0.3315  0.4034
 8408TIP3   OH246638   6.325   6.354  14.693 -0.0985  0.1262 -0.2307
 8408TIP3    H146639   6.286   6.330  14.777  0.3098 -0.8521 -0.3136
 8408TIP3    H246640   6.311   6.449  14.687 -1.7113 -0.0527  0.1251
 8409TIP3   OH246641   6.676   2.955   1.719 -0.8487 -1.0011  0.2442
 8409TIP3    H146642   6.749   2.930   1.663 -0.0669 -0.5587  1.0393
 8409TIP3    H246643   6.603   2.969   1.659 -0.3983 -1.8334 -0.5304
 8410TIP3   OH246644   6.363   0.977  12.213  0.3990  0.4277 -0.3201
 8410TIP3    H146645   6.305   0.922  12.161 -0.1520 -0.9561  1.6267
 8410TIP3    H246646   6.437   0.920  12.235  0.4234  0.8408  0.7159
 8411TIP3   OH246647   3.261   3.058  14.658 -0.0777 -0.2188  0.4878
 8411TIP3    H146648   3.295   3.099  14.738  0.1395 -0.9561  0.7787
 8411TIP3    H246649   3.270   3.126  14.591  1.6921 -0.2677  0.6215
 8412TIP3   OH246650   3.150   5.576   3.515  0.3355 -0.2828 -0.1766
 8412TIP3    H146651   3.218   5.508   3.508  0.3015 -0.3047 -0.2996
 8412TIP3    H246652   3.165   5.616   3.600 -0.5046 -1.3702  0.4996
 8413TIP3   OH246653   1.424   6.723   5.015  0.1754  0.2846 -0.0310
 8413TIP3    H146654   1.422   6.762   5.103  0.1014 -0.7855  0.4528
 8413TIP3    H246655   1.332   6.717   4.989 -0.0054 -1.6953  0.8848
 8414TIP3   OH246656   3.832   6.143   5.095 -0.1455 -0.5775  0.0428
 8414TIP3    H146657   3.795   6.121   5.010 -0.3520 -0.3030  0.0590
 8414TIP3    H246658   3.926   6.128   5.086  0.1297  1.3841 -0.8675
 8415TIP3   OH246659   1.336   1.935  15.591 -0.1912 -0.1379 -0.1844
 8415TIP3    H146660   1.270   1.981  15.643 -1.2739  0.6703 -2.1498
 8415TIP3    H246661   1.344   1.849  15.632 -0.8534  0.5155  1.3802
 8416TIP3   OH246662   1.324   1.680   2.401 -0.1977 -0.1482 -0.1553
 8416TIP3    H146663   1.289   1.763   2.371  1.1330  0.6555  0.4254
 8416TIP3    H246664   1.319   1.683   2.496 -0.6466 -0.9763 -0.1383
 8417TIP3   OH246665   6.004   3.885   1.531  0.0666 -0.2204  0.1462
 8417TIP3    H146666   6.076   3.910   1.589  1.4430  0.4998 -1.7718
 8417TIP3    H246667   5.981   3.965   1.485 -0.8786 -0.8039 -0.4375
 8418TIP3   OH246668   5.598   6.193   1.219  0.4599  0.4452  0.4421
 8418TIP3    H146669   5.643   6.115   1.250  0.3046  0.7958  1.6122
 8418TIP3    H246670   5.506   6.167   1.212  0.8257 -0.3786 -2.3089
 8419TIP3   OH246671   0.957   0.010   3.403 -0.0331 -0.5660 -0.4185
 8419TIP3    H146672   0.960  -0.013   3.311 -0.9589  0.9014 -0.8494
 8419TIP3    H246673   0.873   0.056   3.414 -0.0334 -0.8732  1.1891
 8420TIP3   OH246674   2.343   2.909  15.024  0.0379 -0.2359  0.3533
 8420TIP3    H146675   2.323   2.955  15.105  0.1485  2.7740 -1.1673
 8420TIP3    H246676   2.259   2.905  14.977  0.5192  0.9058 -0.6611
 8421TIP3   OH246677   5.860   5.495   5.584  0.6215  0.5542 -0.0220
 8421TIP3    H146678   5.842   5.528   5.672  0.9948 -0.7579  0.5723
 8421TIP3    H246679   5.908   5.566   5.541 -3.1823  3.0109 -0.6875
 8422TIP3   OH246680   2.114   2.106   2.203 -0.1797  0.0183  0.6394
 8422TIP3    H146681   2.149   2.107   2.292  0.9487 -3.6669  0.4188
 8422TIP3    H246682   2.030   2.060   2.211  0.0989 -0.6617 -0.2297
 8423TIP3   OH246683   3.043   4.178   3.663  0.3974 -0.2053 -0.5704
 8423TIP3    H146684   3.106   4.106   3.655  0.6621 -0.0326 -0.0325
 8423TIP3    H246685   2.995   4.177   3.580 -0.2386 -1.6051 -0.2176
 8424TIP3   OH246686   4.835   1.484  17.296  0.7026  0.0929 -0.0316
 8424TIP3    H146687   4.826   1.427  17.372 -0.6461  0.1438 -0.1303
 8424TIP3    H246688   4.881   1.431  17.231 -0.8955 -1.0582 -0.2713
 8425TIP3   OH246689   2.742   1.905  10.676  0.2249  0.1653 -0.2765
 8425TIP3    H146690   2.694   1.825  10.657 -2.3145  1.3164  0.7503
 8425TIP3    H246691   2.727   1.961  10.600 -0.9635  0.8968  0.4725
 8426TIP3   OH246692   0.772   5.203   1.164  0.6967 -0.0540 -0.4304
 8426TIP3    H146693   0.679   5.179   1.158  1.0352 -1.6058  0.0769
 8426TIP3    H246694   0.787   5.259   1.088 -0.6412  0.1940 -0.5456
 8427TIP3   OH246695   3.286   4.001  13.543  0.2945  0.2781  0.0796
 8427TIP3    H146696   3.203   4.047  13.550  0.3186  0.4301 -0.5599
 8427TIP3    H246697   3.352   4.069  13.556  0.3271  0.3898 -0.6237
 8428TIP3   OH246698   5.574   3.771   3.673 -0.5489  0.2326 -0.4901
 8428TIP3    H146699   5.669   3.784   3.675 -0.5633  0.3551  1.3644
 8428TIP3    H246700   5.540   3.835   3.736 -1.9981  0.9723 -1.9312
 8429TIP3   OH246701   5.206   3.488  14.020 -0.0140  0.1120  0.4335
 8429TIP3    H146702   5.168   3.568  14.056 -1.6258  0.0886 -1.0752
 8429TIP3    H246703   5.233   3.438  14.097 -0.6764  1.2868  1.4807
 8430TIP3   OH246704   3.600   2.806  16.323 -0.0990  0.1577  0.2102
 8430TIP3    H146705   3.533   2.808  16.391  0.3187  0.5419  0.6195
 8430TIP3    H246706   3.553   2.782  16.243 -0.3399 -2.1251  0.9401
 8431TIP3   OH246707   3.141   0.562  17.104  0.2543  0.4025  0.4659
 8431TIP3    H146708   3.218   0.603  17.065 -0.0770  0.8876  0.3065
 8431TIP3    H246709   3.073   0.571  17.037 -0.0900  0.4776  0.8219
 8432TIP3   OH246710   1.785   1.853   3.503  0.9359 -0.3443  0.2748
 8432TIP3    H146711   1.763   1.835   3.411  0.0501  0.0842  0.3950
 8432TIP3    H246712   1.802   1.948   3.505 -0.0144 -0.1721  0.7341
 8433TIP3   OH246713   5.628   6.486  14.419  0.1794 -0.3140 -0.3525
 8433TIP3    H146714   5.640   6.518  14.508 -1.8281  2.1961 -0.8842
 8433TIP3    H246715   5.684   6.541  14.365 -0.3881 -0.2462 -0.8886
 8434TIP3   OH246716   0.896   0.659  12.047  0.1305  0.0501  0.5683
 8434TIP3    H146717   0.820   0.683  12.101 -0.0544  1.5253 -0.3001
 8434TIP3    H246718   0.885   0.710  11.967  0.7471 -1.5985 -0.6083
 8435TIP3   OH246719   6.634   0.685   2.874  0.3431  0.5228  0.1627
 8435TIP3    H146720   6.542   0.659   2.883  1.0036 -2.0744  0.1419
 8435TIP3    H246721   6.672   0.667   2.959  0.8145  1.9030  0.2719
 8436TIP3   OH246722   5.751   4.098  16.340 -0.1903 -0.3766  0.7178
 8436TIP3    H146723   5.801   4.151  16.278 -1.2420  0.3032  0.4173
 8436TIP3    H246724   5.748   4.011  16.301  1.5000 -0.6645  1.1787
 8437TIP3   OH246725   2.784   0.664   3.886  0.0889 -0.1153  0.1833
 8437TIP3    H146726   2.771   0.577   3.848 -0.6017  0.6765 -1.4617
 8437TIP3    H246727   2.696   0.700   3.896  0.3607  0.3744  0.9640
 8438TIP3   OH246728   5.258   4.436   2.851  0.0950 -0.0504 -0.1951
 8438TIP3    H146729   5.301   4.507   2.899  0.2384 -1.5261  1.9631
 8438TIP3    H246730   5.316   4.361   2.861 -1.2930 -1.1600 -0.1980
 8439TIP3   OH246731   0.433   4.282   6.155 -0.5007  0.0327  0.5175
 8439TIP3    H146732   0.502   4.215   6.157  0.2914  0.8408  0.8177
 8439TIP3    H246733   0.472   4.358   6.198 -0.8859  1.1724 -1.0733
 8440TIP3   OH246734   2.729   1.689  11.831 -0.0052 -0.2217  0.3364
 8440TIP3    H146735   2.741   1.663  11.923 -1.1803  0.1523  0.6112
 8440TIP3    H246736   2.711   1.783  11.835 -0.6562 -0.3119 -0.2151
 8441TIP3   OH246737   2.477   4.825  11.918  0.4196  0.1414 -0.3708
 8441TIP3    H146738   2.567   4.807  11.891  1.1000  0.2789  1.6551
 8441TIP3    H246739   2.480   4.912  11.957 -0.4934 -0.0125  0.0765
 8442TIP3   OH246740   2.184   5.177  15.126 -0.5123 -0.1059 -0.3287
 8442TIP3    H146741   2.132   5.222  15.060  0.6494  0.9528 -0.5363
 8442TIP3    H246742   2.194   5.088  15.093  0.1824  0.4504 -1.6611
 8443TIP3   OH246743   2.457   4.293   0.965 -0.3739 -0.3979  0.2283
 8443TIP3    H146744   2.495   4.223   0.912  1.0913  1.7715 -1.7587
 8443TIP3    H246745   2.524   4.360   0.969 -2.0699  1.3595  1.1958
 8444TIP3   OH246746   2.688   2.984   0.416 -0.0593 -0.3732 -0.2736
 8444TIP3    H146747   2.778   2.958   0.396 -0.0055 -0.4438  0.0543
 8444TIP3    H246748   2.636   2.950   0.343  0.4428  1.4258 -1.5492
 8445TIP3   OH246749   0.205   4.472  11.649 -0.2194 -0.1095 -0.8046
 8445TIP3    H146750   0.158   4.543  11.694  1.6452  1.1621 -0.7408
 8445TIP3    H246751   0.222   4.507  11.562 -0.1303 -0.8730 -1.0909
 8446TIP3   OH246752   0.397   5.717   4.977 -0.0665 -0.1605 -0.5481
 8446TIP3    H146753   0.306   5.745   4.976 -1.6969 -4.5698  0.5608
 8446TIP3    H246754   0.413   5.686   4.888  0.1099 -0.1319 -0.5277
 8447TIP3   OH246755   5.963   6.133  15.197  0.0840 -0.6660  0.4798
 8447TIP3    H146756   5.888   6.153  15.141  0.7578 -0.4978 -0.3875
 8447TIP3    H246757   5.925   6.115  15.283 -0.9642 -0.8412 -0.0062
 8448TIP3   OH246758   3.268   2.407  15.269 -0.4381  0.2291  0.1898
 8448TIP3    H146759   3.356   2.369  15.267 -1.1893 -1.5480 -0.9213
 8448TIP3    H246760   3.249   2.420  15.362  1.7305  2.5822  0.4481
 8449TIP3   OH246761   5.422   1.058   5.234 -0.6245 -0.3988 -0.1570
 8449TIP3    H146762   5.381   1.023   5.155 -1.7064  0.5081 -0.0375
 8449TIP3    H246763   5.448   0.981   5.284 -1.0963 -1.0035 -0.8185
 8450TIP3   OH246764   3.243   2.558   4.861 -0.8964  0.4790 -0.6829
 8450TIP3    H146765   3.308   2.493   4.836 -0.6054  0.3159  0.4487
 8450TIP3    H246766   3.284   2.642   4.841  0.2817  0.4399  1.2917
 8451TIP3   OH246767   3.229   5.433   4.249 -0.1040  0.2819  0.4035
 8451TIP3    H146768   3.137   5.410   4.234 -0.4679  1.0622  1.3364
 8451TIP3    H246769   3.278   5.360   4.212 -1.0060  0.7814 -2.0237
 8452TIP3   OH246770   4.057   0.958   2.434 -0.1545  0.1701  0.2734
 8452TIP3    H146771   4.046   1.025   2.502 -0.5054  0.3626  0.0284
 8452TIP3    H246772   3.970   0.948   2.396  0.0724  0.1859 -0.2590
 8453TIP3   OH246773   6.696   3.692  11.766  0.2306 -0.4709 -0.2264
 8453TIP3    H146774   6.723   3.604  11.742  1.2802  0.3930 -2.5603
 8453TIP3    H246775   6.777   3.742  11.770 -0.4515  0.7385 -0.6842
 8454TIP3   OH246776   6.479   2.261  12.628 -0.1294 -0.4106 -0.4283
 8454TIP3    H146777   6.445   2.328  12.688  0.4178 -0.3617 -0.1654
 8454TIP3    H246778   6.488   2.307  12.544 -0.9491 -0.4944 -0.5674
 8455TIP3   OH246779   1.381   6.608   1.493  0.3841 -0.0678  1.1556
 8455TIP3    H146780   1.450   6.634   1.555  0.7228 -0.0262  0.7664
 8455TIP3    H246781   1.310   6.669   1.511  0.3738 -0.2263  1.6887
 8456TIP3   OH246782   3.474   0.882   6.222  0.4586 -0.3992 -0.5398
 8456TIP3    H146783   3.445   0.850   6.307  0.1608 -0.5265 -0.6909
 8456TIP3    H246784   3.516   0.807   6.180  1.8999  0.0342  0.0756
 8457TIP3   OH246785   0.267   5.669   0.130  0.0670 -0.4414  0.4635
 8457TIP3    H146786   0.175   5.688   0.111 -0.1991 -2.1332 -0.1073
 8457TIP3    H246787   0.293   5.603   0.065  2.4825  1.8215 -1.0593
 8458TIP3   OH246788   5.592   2.298   1.297 -0.0290 -0.1583 -0.3556
 8458TIP3    H146789   5.555   2.250   1.370 -0.2737  0.0189 -0.3613
 8458TIP3    H246790   5.673   2.336   1.332 -0.2618  0.1145 -0.1102
 8459TIP3   OH246791   3.007   0.813  11.633  0.3814  0.0446 -0.3511
 8459TIP3    H146792   3.044   0.865  11.561 -1.3932  0.4734 -0.9838
 8459TIP3    H246793   2.995   0.726  11.595  1.4277 -0.3152  0.0973
 8460TIP3   OH246794   4.467   4.327   2.245 -0.5197 -0.7829  0.0988
 8460TIP3    H146795   4.500   4.291   2.327 -0.6831 -0.4918  0.2952
 8460TIP3    H246796   4.376   4.348   2.263 -0.8046 -1.5332 -0.4257
 8461TIP3   OH246797   4.443   2.451  12.353  0.2130  0.2665 -0.1195
 8461TIP3    H146798   4.461   2.489  12.439  0.0084 -1.5915  0.7985
 8461TIP3    H246799   4.447   2.356  12.368 -0.8602 -0.1027 -1.9419
 8462TIP3   OH246800   5.682   0.105   5.706 -0.3816  0.2410 -0.0477
 8462TIP3    H146801   5.654   0.061   5.786  0.8249 -0.4727 -0.0062
 8462TIP3    H246802   5.724   0.037   5.654  1.1231  1.2322 -0.1852
 8463TIP3   OH246803   0.543   1.543  16.228 -0.2415  0.3367  0.1069
 8463TIP3    H146804   0.623   1.496  16.254 -0.6912 -0.1873  0.5847
 8463TIP3    H246805   0.574   1.619  16.179  0.4977 -0.6485 -0.9974
 8464TIP3   OH246806   1.983   5.485  13.767  0.1223  0.2228  0.5062
 8464TIP3    H146807   1.964   5.414  13.829  0.1865  0.7419  1.1310
 8464TIP3    H246808   1.915   5.477  13.700 -0.2854 -0.0022  0.9406
 8465TIP3   OH246809   2.560   2.711   1.588  0.2184  0.3918 -0.1118
 8465TIP3    H146810   2.492   2.748   1.531 -0.5571 -1.3145 -0.3420
 8465TIP3    H246811   2.554   2.617   1.575  1.5881  0.1073  1.0771
 8466TIP3   OH246812   5.626   2.252   3.256  0.0331  0.0925 -0.1321
 8466TIP3    H146813   5.592   2.238   3.345  0.2829  0.7483  0.0729
 8466TIP3    H246814   5.588   2.181   3.205  0.7979 -0.9891  0.7417
 8467TIP3   OH246815   6.345   3.002   5.882  0.1199 -0.4434  0.8160
 8467TIP3    H146816   6.347   3.069   5.950  0.3305  0.4894 -0.0823
 8467TIP3    H246817   6.258   3.010   5.843  0.6473  0.3310 -0.2613
 8468TIP3   OH246818   5.524   2.024  17.006  0.1449  0.1619  0.7713
 8468TIP3    H146819   5.594   2.027  17.070 -1.5326  0.0190  2.7293
 8468TIP3    H246820   5.519   2.113  16.971  0.4784  0.5010  1.5672
 8469TIP3   OH246821   1.617   1.190  16.967 -0.3639  0.4715 -0.0644
 8469TIP3    H146822   1.529   1.171  16.935  0.0704  0.9459 -1.6148
 8469TIP3    H246823   1.611   1.178  17.062 -2.0029  0.1679 -0.1789
 8470TIP3   OH246824   2.721   2.222   2.800  0.1121  0.0812  0.5118
 8470TIP3    H146825   2.643   2.262   2.762 -0.0833  0.0365  0.8597
 8470TIP3    H246826   2.688   2.167   2.871  0.3640 -0.7516  0.0085
 8471TIP3   OH246827   4.440   4.093   3.764 -0.4425 -0.6630 -0.7791
 8471TIP3    H146828   4.430   4.183   3.733  0.2502  0.1795  1.2706
 8471TIP3    H246829   4.372   4.083   3.830  0.5549 -1.0485  0.2192
 8472TIP3   OH246830   2.662   5.373  10.779  0.6703  0.4413 -0.1668
 8472TIP3    H146831   2.567   5.377  10.779  0.6055 -0.3666  1.4792
 8472TIP3    H246832   2.686   5.351  10.689 -0.8238 -1.6843 -0.0861
 8473TIP3   OH246833   4.811   3.484   0.918  0.0485  0.0748  0.2997
 8473TIP3    H146834   4.846   3.527   0.840 -0.3007  1.1446  0.7081
 8473TIP3    H246835   4.734   3.437   0.886  0.8566 -0.8825 -0.2872
 8474TIP3   OH246836   2.611   6.452   4.332  0.0109 -1.3434  0.2240
 8474TIP3    H146837   2.599   6.488   4.420 -1.2676 -2.2630  0.4439
 8474TIP3    H246838   2.703   6.423   4.331  1.5121  2.7284 -0.3211
 8475TIP3   OH246839   2.533   3.954  14.601  0.0079  0.6631 -0.0468
 8475TIP3    H146840   2.612   4.007  14.588 -0.6470  1.2745 -2.0182
 8475TIP3    H246841   2.554   3.896  14.674  2.0179  1.2881 -0.0634
 8476TIP3   OH246842   2.434   0.938  16.351 -0.1172 -0.3969  0.3947
 8476TIP3    H146843   2.485   0.880  16.408  0.1773  1.1532  1.7778
 8476TIP3    H246844   2.447   1.025  16.389 -2.4489  0.2644 -0.2157
 8477TIP3   OH246845   2.758   5.756  12.232 -0.1788  0.3920 -0.0440
 8477TIP3    H146846   2.671   5.720  12.249  0.3689 -1.7125 -1.2926
 8477TIP3    H246847   2.750   5.799  12.147 -0.0480  0.3127 -0.0974
 8478TIP3   OH246848   6.359   3.822  16.100 -0.1912 -0.2918  0.0178
 8478TIP3    H146849   6.426   3.878  16.063 -0.1240 -0.9090 -0.8191
 8478TIP3    H246850   6.370   3.831  16.195  0.0519  0.8048 -0.1043
 8479TIP3   OH246851   3.818   4.248  13.267 -0.2223  0.3643 -0.3619
 8479TIP3    H146852   3.872   4.232  13.344  0.0625 -0.4631 -0.7142
 8479TIP3    H246853   3.865   4.203  13.196 -0.3726  1.2776 -1.0549
 8480TIP3   OH246854   5.819   1.325  11.578 -0.9244  0.7706 -0.3818
 8480TIP3    H146855   5.753   1.263  11.548  0.0439 -0.4836 -0.0623
 8480TIP3    H246856   5.798   1.340  11.671 -1.4351  1.3004 -0.5789
 8481TIP3   OH246857   5.028   1.149  15.511  0.7297  0.2912 -0.7732
 8481TIP3    H146858   5.072   1.065  15.525  0.5778 -0.1201 -2.5368
 8481TIP3    H246859   4.935   1.129  15.519  0.7381  0.8216  1.2398
 8482TIP3   OH246860   2.493   3.854  12.290  0.1565  0.0228  0.2696
 8482TIP3    H146861   2.479   3.906  12.369 -0.2736 -0.5175  0.5601
 8482TIP3    H246862   2.407   3.849  12.249  0.2956 -0.0408 -0.0193
 8483TIP3   OH246863   2.551   4.889  13.876  0.8710  0.0807 -0.0472
 8483TIP3    H146864   2.631   4.917  13.832  1.2551  0.3103  0.7731
 8483TIP3    H246865   2.580   4.867  13.965  0.9125 -4.2550 -0.9108
 8484TIP3   OH246866   3.413   4.925   3.472 -0.6184 -0.0342  0.4164
 8484TIP3    H146867   3.377   4.838   3.488  0.2783 -0.4136  0.4200
 8484TIP3    H246868   3.413   4.968   3.557 -0.4489 -0.2710  0.5360
 8485TIP3   OH246869   5.784   6.062  16.061 -0.1165 -0.9814  0.0725
 8485TIP3    H146870   5.748   6.086  16.147  1.9861 -1.8087  1.2674
 8485TIP3    H246871   5.756   6.133  16.003  0.9657  1.3131  2.1457
 8486TIP3   OH246872   2.519   3.115   2.212  0.0128  0.1543 -0.4984
 8486TIP3    H146873   2.458   3.046   2.185 -1.0702  1.1370 -0.6558
 8486TIP3    H246874   2.526   3.172   2.136 -0.0834  0.8787  0.0249
 8487TIP3   OH246875   4.683   3.408   2.373  0.9456 -0.0945  0.5471
 8487TIP3    H146876   4.678   3.495   2.332 -1.8195  0.2342  1.3693
 8487TIP3    H246877   4.701   3.348   2.300  0.1446  0.8993 -0.5030
 8488TIP3   OH246878   4.179   3.790   5.629 -0.5797 -0.0607  0.4136
 8488TIP3    H146879   4.267   3.821   5.609  0.4982 -1.7055  2.2400
 8488TIP3    H246880   4.137   3.864   5.673 -0.2065  0.8081 -0.6582
 8489TIP3   OH246881   2.545   0.517  14.716 -0.2686 -0.2786  0.1197
 8489TIP3    H146882   2.457   0.520  14.680 -0.4022 -2.0887  0.1988
 8489TIP3    H246883   2.592   0.456  14.660  1.4171  1.7766 -0.8369
 8490TIP3   OH246884   0.834   5.745   2.218  0.2164  0.4472 -0.4757
 8490TIP3    H146885   0.877   5.684   2.278 -1.4737 -0.1031  0.2411
 8490TIP3    H246886   0.887   5.824   2.223  1.6982 -0.5042 -0.4014
 8491TIP3   OH246887   5.973   3.985   1.979  0.1673 -0.2793  0.3302
 8491TIP3    H146888   6.049   4.034   2.011  0.4887 -1.3304  1.2268
 8491TIP3    H246889   5.936   4.041   1.911  0.8206  0.9737  0.9694
 8492TIP3   OH246890   1.855   3.729   6.594  0.2628 -0.3323 -0.5250
 8492TIP3    H146891   1.884   3.693   6.510  0.8392 -0.8067 -0.1281
 8492TIP3    H246892   1.935   3.757   6.638 -0.0691  0.2901 -0.2898
 8493TIP3   OH246893   1.059   0.349  14.569 -0.1536  0.3543  0.3255
 8493TIP3    H146894   0.987   0.289  14.547 -1.4164  1.3649  1.5732
 8493TIP3    H246895   1.037   0.431  14.525  1.1020  0.2324 -0.6110
 8494TIP3   OH246896   2.113   5.696   0.185 -0.0523 -0.1026 -0.1564
 8494TIP3    H146897   2.193   5.722   0.140 -1.4218 -0.5037 -3.0639
 8494TIP3    H246898   2.127   5.604   0.208  0.8446  0.2289  0.6488
 8495TIP3   OH246899   5.398   0.631   0.564  0.3624  0.1838 -0.4859
 8495TIP3    H146900   5.440   0.546   0.577  0.7031  0.4144 -0.0420
 8495TIP3    H246901   5.304   0.613   0.575  0.3618 -0.2831 -1.2233
 8496TIP3   OH246902   0.796   0.391   5.754  0.0553 -0.5146 -0.7323
 8496TIP3    H146903   0.805   0.479   5.788  4.7546 -1.3395  0.9598
 8496TIP3    H246904   0.836   0.395   5.667  0.0731 -0.9095 -0.7448
 8497TIP3   OH246905   5.744   3.846  14.220 -0.3318 -0.3614  0.4957
 8497TIP3    H146906   5.780   3.775  14.273 -0.1288 -0.7504 -0.1508
 8497TIP3    H246907   5.803   3.852  14.145  0.4630  1.4136  1.1913
 8498TIP3   OH246908   1.736   0.402  11.426  0.5280  0.3781 -0.6751
 8498TIP3    H146909   1.697   0.416  11.340 -0.5570  0.5898 -0.1664
 8498TIP3    H246910   1.679   0.338  11.469 -0.2218  1.8316  0.6528
 8499TIP3   OH246911   1.491   6.565  15.634 -0.1834  0.5907 -0.5725
 8499TIP3    H146912   1.482   6.476  15.601  1.3352  0.6440 -1.1863
 8499TIP3    H246913   1.509   6.555  15.728  0.5350  0.2224 -0.7450
 8500TIP3   OH246914   2.758   2.555  13.790 -0.0063 -0.3477 -0.5316
 8500TIP3    H146915   2.845   2.527  13.763  0.8851  0.1896  1.5713
 8500TIP3    H246916   2.770   2.587  13.880 -2.6337 -1.6840  0.4024
 8501TIP3   OH246917   6.013   6.180  15.755 -0.3298  0.2051 -0.2464
 8501TIP3    H146918   5.949   6.109  15.753  1.4873 -1.4877 -0.5405
 8501TIP3    H246919   6.031   6.194  15.847  1.4470 -1.7884 -0.2332
 8502TIP3   OH246920   2.345   1.766   2.661  0.1917 -0.3904 -0.2974
 8502TIP3    H146921   2.279   1.709   2.622  0.4411  0.2889 -1.7815
 8502TIP3    H246922   2.421   1.756   2.603 -0.3416  2.8132 -1.7727
 8503TIP3   OH246923   5.217   1.488   3.140 -0.3288 -0.4429 -0.2508
 8503TIP3    H146924   5.198   1.553   3.071  0.3751  0.2759  0.2136
 8503TIP3    H246925   5.142   1.429   3.138  0.0314 -0.9194 -2.1887
 8504TIP3   OH246926   3.364   2.708  11.237  0.8658 -0.6219 -0.2582
 8504TIP3    H146927   3.364   2.794  11.278  0.6376 -0.3267 -0.8545
 8504TIP3    H246928   3.372   2.727  11.143  1.5470 -1.2806 -0.3443
 8505TIP3   OH246929   0.509   2.160   6.558  0.5769  0.0272  0.2721
 8505TIP3    H146930   0.538   2.161   6.466  2.3196 -0.6346  0.7669
 8505TIP3    H246931   0.572   2.103   6.602  0.0591  0.7112  1.9837
 8506TIP3   OH246932   3.588   4.632  13.587 -0.6188  0.5055 -0.1628
 8506TIP3    H146933   3.530   4.605  13.516  0.3955 -1.0693 -0.4512
 8506TIP3    H246934   3.647   4.557  13.600 -0.4451  0.9440  2.0028
 8507TIP3   OH246935   3.319   2.449   1.608 -0.4571 -0.3301 -0.6392
 8507TIP3    H146936   3.304   2.539   1.635  2.2406 -0.0294  0.1436
 8507TIP3    H246937   3.356   2.455   1.520 -0.3117 -0.6451 -0.6046
 8508TIP3   OH246938   5.934   1.715  16.582 -0.8375 -0.4306 -0.2164
 8508TIP3    H146939   5.882   1.695  16.660 -0.2696 -2.2301 -0.2617
 8508TIP3    H246940   5.903   1.802  16.555 -0.3617  0.7135  2.5561
 8509TIP3   OH246941   0.483   1.136   5.775  0.0954 -0.2118  0.5098
 8509TIP3    H146942   0.539   1.131   5.853 -0.1394 -1.7223  0.6186
 8509TIP3    H246943   0.403   1.089   5.800 -0.4604  0.3052 -0.2600
 8510TIP3   OH246944   1.076   0.707   5.000  0.3041  0.0494 -0.2179
 8510TIP3    H146945   0.998   0.750   5.035 -0.2485 -0.9101 -0.2331
 8510TIP3    H246946   1.050   0.677   4.913  1.6113  2.2465 -1.4714
 8511TIP3   OH246947   3.296   1.561   3.186  0.1133  0.6402  0.4651
 8511TIP3    H146948   3.342   1.513   3.254 -0.8899  1.3654  1.6874
 8511TIP3    H246949   3.204   1.536   3.196 -0.0562  0.7487 -0.6383
 8512TIP3   OH246950   1.046   3.255  15.366 -0.2315 -0.8447 -0.3606
 8512TIP3    H146951   1.014   3.170  15.397 -0.7881 -0.4567  0.1310
 8512TIP3    H246952   1.141   3.244  15.363 -0.3661 -2.0416 -1.9375
 8513TIP3   OH246953   5.663   2.485  16.882  1.0345  0.1712 -0.2522
 8513TIP3    H146954   5.689   2.516  16.795  2.6068 -0.9565 -0.2239
 8513TIP3    H246955   5.568   2.497  16.885  1.0559  0.9447 -1.8192
 8514TIP3   OH246956   5.617   2.446   4.154 -0.2116  0.1813 -0.0767
 8514TIP3    H146957   5.527   2.446   4.121 -0.4596  1.9903  0.4618
 8514TIP3    H246958   5.636   2.354   4.174 -1.6683 -0.3239 -0.8873
 8515TIP3   OH246959   6.715   0.225  12.045 -0.0024 -0.0267  0.1513
 8515TIP3    H146960   6.639   0.243  12.100 -0.4184  0.5470 -0.5921
 8515TIP3    H246961   6.772   0.302  12.056  0.3227 -0.3067  0.4526
 8516TIP3   OH246962   3.252   1.988   4.572 -0.6067 -0.0521  0.0450
 8516TIP3    H146963   3.345   1.987   4.595 -0.6232  1.5233  0.3187
 8516TIP3    H246964   3.210   2.032   4.646 -1.3323  0.7096 -0.7968
 8517TIP3   OH246965   1.750   2.860  14.677 -0.2759 -0.5786  0.0495
 8517TIP3    H146966   1.742   2.815  14.761  0.8442  0.1641  0.5863
 8517TIP3    H246967   1.720   2.797  14.612 -0.8791 -1.2705  0.9831
 8518TIP3   OH246968   2.218   6.134   2.657 -0.2847  0.1812  0.1435
 8518TIP3    H146969   2.311   6.143   2.637 -0.3610  1.0257  0.1257
 8518TIP3    H246970   2.214   6.133   2.753 -0.3045  0.7911  0.1534
 8519TIP3   OH246971   3.847   5.855   0.434 -0.1701  0.1694 -0.2311
 8519TIP3    H146972   3.881   5.789   0.494 -3.3560 -3.8639 -2.3475
 8519TIP3    H246973   3.869   5.822   0.347 -4.0810  0.2735 -1.4832
 8520TIP3   OH246974   2.310   4.020   1.962 -0.8168 -0.1886  0.3541
 8520TIP3    H146975   2.274   4.096   2.006 -1.1455 -0.7252  1.0286
 8520TIP3    H246976   2.239   3.956   1.963 -0.4594 -0.5981  0.0260
 8521TIP3   OH246977   5.692   6.390  14.858  0.1550 -0.4583 -0.5251
 8521TIP3    H146978   5.742   6.363  14.781  0.4414  0.4908 -0.6859
 8521TIP3    H246979   5.719   6.328  14.926  1.0705 -0.3609 -0.7817
 8522TIP3   OH246980   5.639   3.149  15.587 -0.1777  0.1684  0.1245
 8522TIP3    H146981   5.589   3.068  15.597  0.2709 -0.1392 -0.0671
 8522TIP3    H246982   5.725   3.120  15.558  0.5928  0.5872  1.8772
 8523TIP3   OH246983   3.631   5.032  14.813 -0.7468 -0.3522  0.2526
 8523TIP3    H146984   3.717   5.046  14.774 -1.6432  0.7494 -1.4992
 8523TIP3    H246985   3.599   5.120  14.831 -1.0712 -0.7925  1.9498
 8524TIP3   OH246986   2.056   5.351  12.774  0.5350  0.0739 -0.3924
 8524TIP3    H146987   2.108   5.280  12.812 -0.9908  0.3329  2.3906
 8524TIP3    H246988   2.114   5.428  12.779  0.5896 -0.0265  0.9658
 8525TIP3   OH246989   2.051   1.897  14.284  0.0656  0.3825 -0.0598
 8525TIP3    H146990   1.992   1.829  14.315  1.2644  0.1343  1.8534
 8525TIP3    H246991   2.101   1.856  14.213  0.4750 -0.6167  0.7871
 8526TIP3   OH246992   1.286   2.881  11.127  0.2518 -0.3196  0.3217
 8526TIP3    H146993   1.316   2.935  11.054 -1.0954  1.3393  0.9048
 8526TIP3    H246994   1.331   2.918  11.203  1.0976 -1.5655  0.4421
 8527TIP3   OH246995   2.249   4.897  15.064 -0.7607 -0.0810  0.6066
 8527TIP3    H146996   2.244   4.811  15.022  1.9824  0.1039 -0.3104
 8527TIP3    H246997   2.206   4.886  15.149 -1.9377 -1.8573 -0.1605
 8528TIP3   OH246998   3.803   6.616  12.060 -0.1886  0.0661 -0.0623
 8528TIP3    H146999   3.766   6.604  12.148 -0.4182  0.1408 -0.1486
 8528TIP3    H247000   3.896   6.596  12.071 -0.5307 -1.8732 -0.2026
 8529TIP3   OH247001   2.496   4.781   0.139 -0.3580 -0.4218  0.1147
 8529TIP3    H147002   2.433   4.837   0.093  0.7080  0.1835 -0.6849
 8529TIP3    H247003   2.513   4.709   0.078 -1.8558 -1.7735  1.2114
 8530TIP3   OH247004   0.964   0.351  12.930 -0.8732  0.4954 -0.4706
 8530TIP3    H147005   1.010   0.272  12.960  0.2585  0.7717 -1.4244
 8530TIP3    H247006   0.878   0.345  12.971 -0.6242 -0.9767 -0.1073
 8531TIP3   OH247007   0.380   4.096   3.342 -0.6968 -0.3144  0.0329
 8531TIP3    H147008   0.369   4.039   3.267  0.2498 -1.6546  0.8771
 8531TIP3    H247009   0.294   4.095   3.385 -0.9554 -0.3311 -0.4780
 8532TIP3   OH247010   4.790   3.812  14.680 -0.6466 -0.2012  0.1446
 8532TIP3    H147011   4.830   3.879  14.734  0.8651 -0.0884 -1.0492
 8532TIP3    H247012   4.815   3.729  14.721 -0.5512 -0.0947  0.3004
 8533TIP3   OH247013   2.637   3.149   2.932  0.2728 -0.3001  0.5886
 8533TIP3    H147014   2.635   3.132   2.838  0.4762  1.3160  0.2554
 8533TIP3    H247015   2.717   3.108   2.963  0.5823 -0.2185 -0.0924
 8534TIP3   OH247016   4.275   1.722  14.318 -0.0735 -0.2708 -0.2284
 8534TIP3    H147017   4.313   1.809  14.307 -0.0309 -0.3190 -0.4821
 8534TIP3    H247018   4.336   1.663  14.271  1.2991 -0.8002  2.0576
 8535TIP3   OH247019   2.488   5.827   6.651  0.1073  0.1290  0.0006
 8535TIP3    H147020   2.543   5.760   6.610  0.5976 -0.2821  1.2892
 8535TIP3    H247021   2.545   5.904   6.656 -0.0824  0.2975 -0.4552
 8536TIP3   OH247022   5.557   5.020  15.930 -0.3297 -0.3979  0.0417
 8536TIP3    H147023   5.513   5.092  15.973 -1.2350 -0.6469 -0.4559
 8536TIP3    H247024   5.536   4.943  15.983 -1.3554 -0.6875 -0.7486
 8537TIP3   OH247025   4.143   3.196   0.667 -0.2457  0.6279 -0.4093
 8537TIP3    H147026   4.076   3.128   0.669  0.9681 -0.6187 -0.6344
 8537TIP3    H247027   4.198   3.174   0.592  0.2361  1.8189 -0.4386
 8538TIP3   OH247028   4.848   4.247   0.927  0.0772 -0.3244 -0.2550
 8538TIP3    H147029   4.900   4.167   0.922  0.9233  0.2884 -3.2763
 8538TIP3    H247030   4.760   4.221   0.901  0.1130 -0.4558 -0.2442
 8539TIP3   OH247031   2.470   0.646   6.563 -0.3097  0.3814 -0.4047
 8539TIP3    H147032   2.542   0.646   6.626  1.0015 -2.3256 -1.7515
 8539TIP3    H247033   2.396   0.611   6.612  0.2713 -0.2408  0.0483
 8540TIP3   OH247034   4.970   1.455   1.701  0.3174 -0.3179 -0.2019
 8540TIP3    H147035   4.926   1.391   1.757 -0.5199  0.9947  0.7114
 8540TIP3    H247036   5.056   1.417   1.683 -0.0441 -1.5481  0.5630
 8541TIP3   OH247037   6.758   1.717   0.103 -0.1726 -0.0666 -0.1237
 8541TIP3    H147038   6.791   1.807   0.097 -1.7882  0.4894 -1.8926
 8541TIP3    H247039   6.689   1.720   0.169 -0.7238  0.2052 -0.6944
 8542TIP3   OH247040   0.621   0.266   5.034 -0.3860  0.0507  0.0833
 8542TIP3    H147041   0.619   0.327   5.109 -0.5581 -0.0082  0.1273
 8542TIP3    H247042   0.649   0.183   5.072 -0.6251 -0.0171  0.1086
 8543TIP3   OH247043   4.491   5.872  13.850  0.3361 -0.1314  0.3412
 8543TIP3    H147044   4.561   5.935  13.865  0.4267  0.3755 -1.8137
 8543TIP3    H247045   4.412   5.926  13.839  0.3258 -0.3802 -1.0272
 8544TIP3   OH247046   5.567   4.266  11.754  0.0338  0.7553  0.4330
 8544TIP3    H147047   5.618   4.340  11.721  2.5724 -0.5760  1.1163
 8544TIP3    H247048   5.519   4.301  11.830 -1.8122  2.5377 -1.4147
 8545TIP3   OH247049   3.480   4.676  11.286  0.3316  0.2169  0.9894
 8545TIP3    H147050   3.556   4.714  11.242 -0.4859  1.5518  0.6694
 8545TIP3    H247051   3.408   4.737  11.268 -1.1443 -1.6364  0.2096
 8546TIP3   OH247052   0.807   2.562  14.421  0.0317  0.5019 -0.9933
 8546TIP3    H147053   0.901   2.581  14.415  0.3288 -0.5971 -0.2700
 8546TIP3    H247054   0.773   2.628  14.480  0.9204 -0.7595  1.0268
 8547TIP3   OH247055   0.792   6.176   4.690 -0.1112  0.4778 -0.1509
 8547TIP3    H147056   0.723   6.165   4.755  0.5694 -0.2452  0.4808
 8547TIP3    H247057   0.763   6.126   4.614  0.5789 -1.5006  0.8243
 8548TIP3   OH247058   5.877   1.566   2.060 -0.3427 -0.0144 -0.3513
 8548TIP3    H147059   5.908   1.584   1.972  0.2404 -0.5087 -0.2570
 8548TIP3    H247060   5.876   1.651   2.104  0.1941  0.1119 -0.5796
 8549TIP3   OH247061   5.469   0.113   0.284 -0.1510  0.0386  0.3893
 8549TIP3    H147062   5.450   0.092   0.193 -0.4475  0.0692  0.4435
 8549TIP3    H247063   5.403   0.179   0.307 -0.1966 -0.1126  0.6840
 8550TIP3   OH247064   0.948   2.595   2.544  0.3155  0.3591  0.7565
 8550TIP3    H147065   1.037   2.590   2.511  0.9002 -0.4645  2.3449
 8550TIP3    H247066   0.910   2.508   2.527  0.1741  0.3650  1.0331
 8551TIP3   OH247067   1.937   6.378  13.513  0.8329  0.2506 -0.1424
 8551TIP3    H147068   1.903   6.467  13.521 -3.3499 -1.2856  2.3551
 8551TIP3    H247069   1.886   6.339  13.442  1.1961 -0.7194  0.1046
 8552TIP3   OH247070   2.949   4.494   0.416 -0.1878  0.1325  0.2351
 8552TIP3    H147071   3.039   4.462   0.407 -0.1308  0.4695 -0.4366
 8552TIP3    H247072   2.927   4.477   0.508  0.7795  0.6117  0.5661
 8553TIP3   OH247073   6.310   1.065   1.809 -0.3128  0.0062  0.1026
 8553TIP3    H147074   6.324   0.999   1.876 -1.2834 -1.5606 -1.1721
 8553TIP3    H247075   6.398   1.099   1.790  0.1762 -0.7388  0.9606
 8554TIP3   OH247076   4.119   2.120   4.119  0.3060  0.0312  0.2748
 8554TIP3    H147077   4.052   2.126   4.187  0.6458 -0.3213  0.6442
 8554TIP3    H247078   4.174   2.196   4.133 -0.9385  1.2249 -1.0408
 8555TIP3   OH247079   2.452   1.039  12.651 -0.1410 -0.2970  0.3228
 8555TIP3    H147080   2.367   1.005  12.626 -0.2794 -1.0013  1.6877
 8555TIP3    H247081   2.514   0.990  12.597 -0.5449 -0.2960 -0.1491
 8556TIP3   OH247082   3.382   2.145  15.790  0.3295 -0.2874  0.3141
 8556TIP3    H147083   3.450   2.212  15.787 -0.6444  0.7363 -2.1821
 8556TIP3    H247084   3.429   2.062  15.786  1.4831  0.3884 -1.0580
 8557TIP3   OH247085   5.169   1.236   3.995  0.0674 -0.2980 -0.0653
 8557TIP3    H147086   5.209   1.164   3.946  1.0703 -0.0332  0.3597
 8557TIP3    H247087   5.087   1.198   4.028  0.3657 -1.1075 -0.2196
 8558TIP3   OH247088   3.295   0.855  13.405  0.4378  0.1638  0.2597
 8558TIP3    H147089   3.223   0.793  13.394  0.1342  0.7010 -1.0141
 8558TIP3    H247090   3.264   0.935  13.362  0.7116  1.3164  2.0911
 8559TIP3   OH247091   2.745   2.509  14.088 -0.7859  0.2569  0.2437
 8559TIP3    H147092   2.786   2.490  14.172 -1.7832 -1.0079  0.4597
 8559TIP3    H247093   2.657   2.473  14.094 -1.5192  1.7700 -0.6934
 8560TIP3   OH247094   2.111   1.225  15.335 -0.0969  0.3944  0.2900
 8560TIP3    H147095   2.158   1.288  15.281 -0.2205  1.2552  1.1685
 8560TIP3    H247096   2.051   1.278  15.387 -2.3598 -0.6742 -1.0511
 8561TIP3   OH247097   1.934   3.614   5.863  0.1504  0.1465 -0.3670
 8561TIP3    H147098   1.975   3.618   5.776 -0.1333 -0.7752 -0.5607
 8561TIP3    H247099   1.876   3.690   5.865  2.1811  1.7858  0.1125
 8562TIP3   OH247100   3.432   1.165  11.582 -0.0461  0.2653 -0.0836
 8562TIP3    H147101   3.373   1.209  11.644  0.6113  1.0725 -0.0067
 8562TIP3    H247102   3.398   1.076  11.575  0.4856 -0.1691  2.2440
 8563TIP3   OH247103   4.954   2.352   2.278 -0.4621  0.0428 -0.1265
 8563TIP3    H147104   4.885   2.285   2.276  0.8844 -1.3770 -0.4055
 8563TIP3    H247105   4.967   2.369   2.371 -0.3825 -0.5309 -0.0315
 8564TIP3   OH247106   2.670   1.095  14.985  0.3901 -0.0496 -0.1617
 8564TIP3    H147107   2.594   1.082  14.928  0.4615  0.0208 -0.2710
 8564TIP3    H247108   2.726   1.155  14.937 -1.0268  2.6438  1.3130
 8565TIP3   OH247109   2.501   2.436   4.819  0.4597 -0.0864  0.3397
 8565TIP3    H147110   2.488   2.435   4.724  0.0639  0.5080  0.3853
 8565TIP3    H247111   2.414   2.452   4.855  0.9437  1.9724  0.7205
 8566TIP3   OH247112   1.135   3.168   3.835 -0.0455  0.2237  0.3572
 8566TIP3    H147113   1.177   3.139   3.916 -1.1265 -0.0503  0.8272
 8566TIP3    H247114   1.185   3.124   3.766 -0.7498 -1.6521  0.9917
 8567TIP3   OH247115   4.789   5.288   4.247  0.3691  0.6739  0.3498
 8567TIP3    H147116   4.816   5.258   4.334  0.3370  0.8284  0.4131
 8567TIP3    H247117   4.831   5.226   4.187  0.0728  0.3299  0.4924
 8568TIP3   OH247118   3.605   4.165   0.093 -0.0948  0.6014  0.0639
 8568TIP3    H147119   3.650   4.243   0.062  1.0071  0.2986  0.8159
 8568TIP3    H247120   3.676   4.105   0.116 -0.9005 -0.0954  0.7849
 8569TIP3   OH247121   4.253   2.871   1.297  0.3039 -0.7244 -0.2519
 8569TIP3    H147122   4.267   2.827   1.380 -3.5959  1.0967  1.6674
 8569TIP3    H247123   4.287   2.959   1.310 -1.9586  0.1426  0.2354
 8570TIP3   OH247124   6.237   6.576  16.409  0.6964  0.4678 -0.6146
 8570TIP3    H147125   6.174   6.647  16.410  0.9706  0.7176 -0.8824
 8570TIP3    H247126   6.218   6.525  16.488  0.4357  0.7809 -0.4762
 8571TIP3   OH247127   2.017   4.312   6.036  0.5191 -0.2095  0.2013
 8571TIP3    H147128   1.935   4.352   6.065  0.6017 -0.5514  0.9203
 8571TIP3    H247129   2.071   4.306   6.115  1.4002  0.3720 -0.3293
 8572TIP3   OH247130   3.039   2.530   5.775  0.1786  0.1321  0.0728
 8572TIP3    H147131   3.112   2.592   5.774  1.7248 -1.6002  0.7093
 8572TIP3    H247132   3.028   2.506   5.683 -1.0566  1.9568 -0.3198
 8573TIP3   OH247133   1.912   5.046   6.058  0.3252  0.6840  0.3375
 8573TIP3    H147134   1.926   5.137   6.032  1.1488  0.7112  0.8563
 8573TIP3    H247135   1.991   5.022   6.107  0.5363 -0.5861 -0.5584
 8574TIP3   OH247136   6.536   0.355   0.962  0.0765 -0.4212  0.1980
 8574TIP3    H147137   6.454   0.394   0.991 -0.3515 -3.0472  3.0697
 8574TIP3    H247138   6.599   0.377   1.031  0.6231 -1.9506  0.2262
 8575TIP3   OH247139   2.324   4.156  14.203 -0.0905 -0.5885  0.0180
 8575TIP3    H147140   2.400   4.107  14.171 -0.0508 -0.4990 -0.0254
 8575TIP3    H247141   2.248   4.108  14.170 -0.1285 -2.2624  2.3283
 8576TIP3   OH247142   2.335   6.495   5.148  0.1625 -0.0555  0.6830
 8576TIP3    H147143   2.256   6.449   5.121  1.1607 -0.8965 -0.9547
 8576TIP3    H247144   2.362   6.544   5.070  0.4902  1.3810  1.6478
 8577TIP3   OH247145   5.655   5.101  14.879 -0.5070 -0.0944 -0.7535
 8577TIP3    H147146   5.688   5.173  14.826  1.1165  0.9193  1.4845
 8577TIP3    H247147   5.567   5.128  14.906 -0.1375  0.7900 -0.4234
 8578TIP3   OH247148   5.993   6.550  14.725 -0.3598 -0.2839 -0.0577
 8578TIP3    H147149   5.960   6.472  14.680  1.5575 -0.5232 -1.1586
 8578TIP3    H247150   6.049   6.516  14.795  1.4161  0.0183 -1.2547
 8579TIP3   OH247151   6.720   6.269  11.805  0.1546  0.2982  0.1619
 8579TIP3    H147152   6.660   6.294  11.735 -0.7026  0.4323  0.9297
 8579TIP3    H247153   6.801   6.315  11.783 -0.0620  0.2617 -0.7863
 8580TIP3   OH247154   0.666   4.291   2.732  0.1520  0.0972  0.0270
 8580TIP3    H147155   0.677   4.326   2.643 -1.6576  1.1878  0.1888
 8580TIP3    H247156   0.655   4.368   2.787 -0.0321 -0.6152  1.0083
 8581TIP3   OH247157   5.530   1.127  16.923 -0.0679  0.4398  0.1222
 8581TIP3    H147158   5.485   1.153  16.843  0.0573 -1.5796 -0.6414
 8581TIP3    H247159   5.618   1.102  16.895  0.5458  1.3308  1.1571
 8582TIP3   OH247160   4.986   4.534   4.074 -0.6028 -0.0739 -0.7894
 8582TIP3    H147161   4.926   4.596   4.032  0.8898  3.0503  1.3261
 8582TIP3    H247162   4.937   4.501   4.150 -0.4838  0.6045 -0.4158
 8583TIP3   OH247163   6.724   4.327  15.975 -0.3128 -0.4090  0.2340
 8583TIP3    H147164   6.675   4.289  16.048 -1.8662 -0.6492 -0.8775
 8583TIP3    H247165   6.656   4.356  15.914  0.9132  0.9266 -0.5583
 8584TIP3   OH247166   2.487   3.698  15.098 -0.6525  0.7905  0.1664
 8584TIP3    H147167   2.399   3.699  15.059  0.4361  1.9330 -2.5528
 8584TIP3    H247168   2.518   3.609  15.083  0.2325  1.5038 -3.1474
 8585TIP3   OH247169   1.991   3.539   0.566 -0.0719 -0.3228 -0.8222
 8585TIP3    H147170   1.978   3.634   0.561 -1.0031 -0.2837  1.2599
 8585TIP3    H247171   1.912   3.507   0.609  1.0034 -1.8322  0.0992
 8586TIP3   OH247172   0.641   0.623  11.788 -0.4843  0.2338 -0.3413
 8586TIP3    H147173   0.649   0.528  11.796 -1.1466  0.1467 -0.6398
 8586TIP3    H247174   0.590   0.649  11.865  0.4452  0.4668  0.2155
 8587TIP3   OH247175   6.170   4.825   1.010 -0.3321 -0.3161  0.1455
 8587TIP3    H147176   6.227   4.894   1.045  0.3694  0.0503 -1.6357
 8587TIP3    H247177   6.219   4.744   1.023  0.5378 -0.0248 -1.1951
 8588TIP3   OH247178   3.419   6.272  16.011 -0.3357  0.3147  0.0395
 8588TIP3    H147179   3.503   6.258  16.055 -1.2768 -1.2970  1.4475
 8588TIP3    H247180   3.415   6.205  15.943 -0.7996 -0.1167  0.4851
 8589TIP3   OH247181   0.829   1.915  15.350  0.1656  0.2647  0.2142
 8589TIP3    H147182   0.878   1.863  15.285 -1.2585  0.3888 -1.0147
 8589TIP3    H247183   0.748   1.938  15.305 -0.8072  0.4901  2.0210
 8590TIP3   OH247184   3.245   4.262  14.517  0.1985  0.0111 -0.2203
 8590TIP3    H147185   3.196   4.192  14.474  0.3970  0.0235 -0.4736
 8590TIP3    H247186   3.271   4.320  14.445  0.5173  0.0435 -0.0806
 8591TIP3   OH247187   5.745   4.413   2.429  0.7132  0.4891  0.1322
 8591TIP3    H147188   5.725   4.335   2.480 -0.2764 -0.4716 -1.6411
 8591TIP3    H247189   5.767   4.380   2.341 -1.0633  2.2451 -1.0528
 8592TIP3   OH247190   3.610   6.404   4.514  0.3188 -0.1355 -0.6156
 8592TIP3    H147191   3.673   6.460   4.560 -1.3625  0.3740  1.2486
 8592TIP3    H247192   3.579   6.457   4.441  2.1659 -0.4913 -1.7207
 8593TIP3   OH247193   2.335   6.231   2.359 -0.3047  0.6276  0.0392
 8593TIP3    H147194   2.277   6.175   2.410 -0.3753 -1.8779 -2.5933
 8593TIP3    H247195   2.421   6.190   2.368 -0.2108  0.5055 -1.3208
 8594TIP3   OH247196   0.867   2.536   5.878 -0.0682 -0.2013 -0.5188
 8594TIP3    H147197   0.862   2.519   5.784  1.0852  1.5572 -0.9612
 8594TIP3    H247198   0.793   2.593   5.896 -0.7492 -1.1712 -0.1726
 8595TIP3   OH247199   0.762   2.423  16.439  0.2724  0.2344  0.5693
 8595TIP3    H147200   0.778   2.384  16.525  1.2120 -0.6321  0.0321
 8595TIP3    H247201   0.845   2.464  16.416 -0.3497  1.5435  0.5928
 8596TIP3   OH247202   2.036   1.613  11.190  0.4515  0.1009 -0.3837
 8596TIP3    H147203   2.047   1.537  11.248  1.1800 -0.0479 -0.7024
 8596TIP3    H247204   2.023   1.687  11.250  0.3708 -0.1793 -0.0522
 8597TIP3   OH247205   0.097   2.051  13.133  0.7183 -0.0910 -0.2994
 8597TIP3    H147206   0.038   2.025  13.062 -0.4866 -0.2064  0.6998
 8597TIP3    H247207   0.093   2.146  13.133 -0.4181 -0.1162  0.4931
 8598TIP3   OH247208   6.089   1.777  15.870  0.3078 -0.3054  0.4515
 8598TIP3    H147209   6.025   1.716  15.909  0.6417  0.4610  2.2992
 8598TIP3    H247210   6.046   1.862  15.874  0.0252 -0.2984 -1.7062
 8599TIP3   OH247211   3.024   2.574  16.266  0.4046 -0.0928 -0.2128
 8599TIP3    H147212   3.035   2.664  16.234  2.5291 -0.8847 -2.0149
 8599TIP3    H247213   2.932   2.553  16.250 -0.2656  1.8922  0.7471
 8600TIP3   OH247214   4.555   1.369  14.346 -0.3907  0.2875  0.5490
 8600TIP3    H147215   4.475   1.317  14.335  0.9268 -1.8155  0.3193
 8600TIP3    H247216   4.591   1.340  14.429  0.9600 -0.0039 -0.1220
 8601TIP3   OH247217   5.602   1.835  15.142 -0.8664 -0.5965  0.1506
 8601TIP3    H147218   5.522   1.866  15.099  0.5690  1.6410 -1.0563
 8601TIP3    H247219   5.599   1.875  15.229 -0.3706  0.7581 -0.4287
 8602TIP3   OH247220   2.944   3.826  12.313  0.4974 -0.0406 -0.6108
 8602TIP3    H147221   2.905   3.747  12.275  1.1584  0.2363 -1.9388
 8602TIP3    H247222   2.905   3.834  12.400 -1.6021 -0.3469 -1.4819
 8603TIP3   OH247223   5.115   1.088  12.156  0.2442  0.0303  0.2543
 8603TIP3    H147224   5.172   1.012  12.145  1.2877  0.4876  2.1798
 8603TIP3    H247225   5.039   1.054  12.204 -0.3461 -0.2032 -0.7904
 8604TIP3   OH247226   3.845   5.979  14.690  0.2884  0.1589  0.2893
 8604TIP3    H147227   3.903   5.908  14.662 -1.1026 -0.5180 -1.0649
 8604TIP3    H247228   3.824   6.025  14.609  2.0137  2.8572  1.2731
 8605TIP3   OH247229   4.226   1.352   3.244 -0.4240 -0.0818 -0.2569
 8605TIP3    H147230   4.197   1.350   3.153  1.1052  0.6266 -0.8014
 8605TIP3    H247231   4.146   1.362   3.295 -1.3526 -1.1106 -1.4800
 8606TIP3   OH247232   3.434   2.207   3.481  0.3201  0.1686 -0.0750
 8606TIP3    H147233   3.342   2.230   3.486  0.7179  1.5599  3.0101
 8606TIP3    H247234   3.442   2.126   3.532  0.6050 -1.0225 -1.8866
 8607TIP3   OH247235   5.252   5.046  16.150 -0.6938 -0.1245  1.0074
 8607TIP3    H147236   5.185   5.113  16.140  1.4055  1.9963  0.0797
 8607TIP3    H247237   5.213   4.966  16.114 -2.2266  1.3634 -0.8138
 8608TIP3   OH247238   1.536   3.380  12.694  0.7324  0.5246 -0.0601
 8608TIP3    H147239   1.583   3.334  12.624 -0.2731  0.1184 -0.4856
 8608TIP3    H247240   1.568   3.338  12.774 -0.3439 -1.1517 -0.4488
 8609TIP3   OH247241   5.163   5.400   4.348 -0.1759  0.0028  0.2570
 8609TIP3    H147242   5.216   5.461   4.399 -0.2504  0.2443  0.0508
 8609TIP3    H247243   5.112   5.352   4.413  0.0834 -0.0256  0.4377
 8610TIP3   OH247244   4.845   5.405  12.670 -0.7529  0.2575 -0.2938
 8610TIP3    H147245   4.852   5.369  12.582 -2.8129  0.0125 -0.4139
 8610TIP3    H247246   4.858   5.330  12.728  2.7878  0.7586 -0.2053
 8611TIP3   OH247247   1.855   5.399   2.727 -0.3291 -0.2589 -0.3500
 8611TIP3    H147248   1.823   5.481   2.690 -1.6150 -0.5659  0.0247
 8611TIP3    H247249   1.916   5.365   2.661  0.4484  1.1206 -0.3763
 8612TIP3   OH247250   2.041   2.469   4.094  0.1132 -0.3336  0.2917
 8612TIP3    H147251   1.949   2.491   4.104  0.1549  0.7379 -1.3200
 8612TIP3    H247252   2.086   2.553   4.094  0.8130 -0.6760 -1.3084
 8613TIP3   OH247253   5.423   3.994   5.447  0.5477  0.1582 -0.3488
 8613TIP3    H147254   5.514   4.016   5.429  0.1354  0.5073 -2.1406
 8613TIP3    H247255   5.422   3.898   5.454  1.5717  0.2359  3.0817
 8614TIP3   OH247256   5.259   3.763  12.131  0.4609  0.1175  0.3806
 8614TIP3    H147257   5.340   3.796  12.092  1.2170 -1.5725  0.4402
 8614TIP3    H247258   5.194   3.772  12.061  1.3250 -0.9078 -0.5977
 8615TIP3   OH247259   3.272   5.050  10.867 -0.0404  0.2332 -0.6491
 8615TIP3    H147260   3.359   5.029  10.901  0.1682 -0.5710 -1.6314
 8615TIP3    H247261   3.240   5.120  10.924  0.3591 -0.9348  1.0948
 8616TIP3   OH247262   0.191   5.962  14.200  0.0464 -0.0512  0.1333
 8616TIP3    H147263   0.224   5.879  14.235  1.7132 -0.0128 -1.2363
 8616TIP3    H247264   0.220   6.028  14.263  1.5456 -0.1708 -0.3959
 8617TIP3   OH247265   5.024   4.489  12.644 -0.5706  0.5108 -0.0697
 8617TIP3    H147266   5.010   4.483  12.549  1.5147 -0.6816 -0.3618
 8617TIP3    H247267   5.076   4.412  12.666  0.4939  1.6645  1.7478
 8618TIP3   OH247268   6.139   1.636   0.826  0.1389  0.0663 -0.2497
 8618TIP3    H147269   6.155   1.548   0.792  0.2467  0.4404 -1.2007
 8618TIP3    H247270   6.223   1.662   0.864  0.2783 -0.0207 -0.4938
 8619TIP3   OH247271   0.699   3.055   1.383  0.2450  0.7185 -0.2116
 8619TIP3    H147272   0.739   3.065   1.469  0.0400  1.4000 -0.1931
 8619TIP3    H247273   0.655   3.138   1.366  0.7195  0.7874 -1.2013
 8620TIP3   OH247274   5.462   4.586  16.454 -0.2206  0.3572 -0.3309
 8620TIP3    H147275   5.413   4.609  16.533 -0.6091 -0.3518 -0.3612
 8620TIP3    H247276   5.401   4.604  16.382  0.3159  1.5087 -0.5186
 8621TIP3   OH247277   4.691   1.633  16.235  0.0952  0.1107 -0.1409
 8621TIP3    H147278   4.650   1.704  16.185 -0.8876 -0.1444  0.2805
 8621TIP3    H247279   4.617   1.585  16.274  0.8153 -0.0220  1.1093
 8622TIP3   OH247280   6.160   4.724   3.709  0.3253  0.0611 -0.0452
 8622TIP3    H147281   6.198   4.810   3.693 -0.9553  1.2717  2.8012
 8622TIP3    H247282   6.066   4.737   3.700  0.0753 -0.8775  0.9797
 8623TIP3   OH247283   1.438   0.876  15.073  0.3522 -0.3210 -0.2927
 8623TIP3    H147284   1.504   0.818  15.110  0.7366  0.2654 -0.0401
 8623TIP3    H247285   1.485   0.927  15.007  0.3641  0.7012  0.4864
 8624TIP3   OH247286   0.544   1.575  14.129 -0.0179  0.1493 -0.1334
 8624TIP3    H147287   0.465   1.545  14.084 -0.8634  0.4356  1.1356
 8624TIP3    H247288   0.546   1.669  14.113  0.2123  0.1096 -0.3597
 8625TIP3   OH247289   6.442   3.426  14.546 -0.0470 -0.8021 -0.0301
 8625TIP3    H147290   6.504   3.493  14.574  1.3695 -2.2923  0.5954
 8625TIP3    H247291   6.384   3.470  14.484  0.1425  1.2426  1.1636
 8626TIP3   OH247292   4.696   4.835   2.809 -0.1492 -0.2417 -0.0833
 8626TIP3    H147293   4.675   4.816   2.717 -0.6270 -0.6842  0.1074
 8626TIP3    H247294   4.790   4.853   2.809 -0.6379  2.8442 -1.1401
 8627TIP3   OH247295   3.206   1.781  12.849 -0.0949 -0.3130 -0.1239
 8627TIP3    H147296   3.301   1.769  12.852 -0.2208 -1.3431  0.0864
 8627TIP3    H247297   3.171   1.708  12.900 -0.9820  0.3866  0.3011
 8628TIP3   OH247298   3.082   3.330   4.615 -0.1536 -0.2035  0.6024
 8628TIP3    H147299   2.994   3.358   4.590 -0.6145 -1.2970  0.9272
 8628TIP3    H247300   3.112   3.396   4.677 -1.3551 -0.5965  1.6486
 8629TIP3   OH247301   3.287   5.590   3.873 -0.1843  0.5798 -0.1541
 8629TIP3    H147302   3.290   5.494   3.872  1.9849  0.6016 -0.8571
 8629TIP3    H247303   3.286   5.613   3.966  0.9470 -0.1227  0.0486
 8630TIP3   OH247304   6.184   3.929   1.741  0.7294 -0.1533 -0.3467
 8630TIP3    H147305   6.112   3.922   1.804  0.3496 -0.3833 -0.8035
 8630TIP3    H247306   6.246   3.861   1.768  0.1180 -0.9048 -0.7966
 8631TIP3   OH247307   1.322   5.311   4.649  0.0717 -0.8702  0.1549
 8631TIP3    H147308   1.278   5.323   4.565 -0.0715  2.2185  0.5367
 8631TIP3    H247309   1.395   5.251   4.630 -0.2233 -0.6222 -2.0540
 8632TIP3   OH247310   3.344   4.406  13.835 -0.3146 -0.6836  0.0061
 8632TIP3    H147311   3.384   4.394  13.921  1.1535 -0.8193 -0.6656
 8632TIP3    H247312   3.410   4.376  13.773 -0.7765  0.7226 -1.2467
 8633TIP3   OH247313   5.409   1.994   5.118 -0.0984  0.2671 -0.0515
 8633TIP3    H147314   5.480   2.039   5.072 -0.9110  0.7078 -0.9200
 8633TIP3    H247315   5.443   1.977   5.205  1.1395  0.2962 -0.5178
 8634TIP3   OH247316   2.930   6.197  13.420  0.3217 -0.0111 -0.5580
 8634TIP3    H147317   2.877   6.241  13.487 -0.1686 -1.0929 -0.2127
 8634TIP3    H247318   2.973   6.269  13.373 -0.3044  0.8246  0.1015
 8635TIP3   OH247319   4.598   5.241   2.352  0.6579 -0.3257  0.1615
 8635TIP3    H147320   4.608   5.163   2.406 -0.2737  0.1922  1.1152
 8635TIP3    H247321   4.682   5.288   2.362  1.0035 -0.9083  0.0350
 8636TIP3   OH247322   3.690   5.655   1.887  0.0839  0.8458 -0.3023
 8636TIP3    H147323   3.698   5.598   1.963 -3.2540 -0.2670 -0.6351
 8636TIP3    H247324   3.699   5.744   1.923  1.1857  0.2788  0.9009
 8637TIP3   OH247325   5.233   0.966   4.595 -0.2911  0.2103  0.2685
 8637TIP3    H147326   5.180   0.886   4.600  0.5826 -0.8022 -3.5020
 8637TIP3    H247327   5.323   0.935   4.605 -0.0137  0.9774  0.2261
 8638TIP3   OH247328   2.497   4.561  15.027  0.4427  0.1508  0.0373
 8638TIP3    H147329   2.549   4.628  15.073 -1.3365  0.6048  1.5182
 8638TIP3    H247330   2.491   4.592  14.937 -0.8722  2.3869  0.8270
 8639TIP3   OH247331   4.751   3.483  16.800 -0.5699 -0.5286 -0.1035
 8639TIP3    H147332   4.665   3.443  16.817 -1.0834 -0.2393 -1.8253
 8639TIP3    H247333   4.792   3.425  16.736 -0.4548  0.5534 -1.0421
 8640TIP3   OH247334   6.417   1.448  14.344  0.1242 -0.2870  0.2905
 8640TIP3    H147335   6.336   1.424  14.390  0.6600 -1.0712  0.8621
 8640TIP3    H247336   6.393   1.447  14.251  0.0630 -3.0804  0.2500
 8641TIP3   OH247337   2.701   2.846   1.985 -0.3656  0.1742 -0.5536
 8641TIP3    H147338   2.628   2.809   2.035 -1.8822  1.5118 -1.6650
 8641TIP3    H247339   2.711   2.935   2.020  2.1933 -0.6350  1.0260
 8642TIP3   OH247340   5.663   4.353   3.053  0.1173  0.4112 -0.4213
 8642TIP3    H147341   5.604   4.282   3.025 -1.3088 -0.0275  3.1154
 8642TIP3    H247342   5.604   4.424   3.078  0.8262 -0.1212  3.4812
 8643TIP3   OH247343   4.502   4.149  14.907  0.5724 -0.0625 -0.1477
 8643TIP3    H147344   4.572   4.154  14.842 -0.2398  1.3857 -0.9743
 8643TIP3    H247345   4.534   4.088  14.973  2.0182 -0.4883 -1.1978
 8644TIP3   OH247346   4.706   3.648   2.239 -0.1486 -0.0078 -0.1871
 8644TIP3    H147347   4.647   3.723   2.228 -0.9085 -0.3931  0.9696
 8644TIP3    H247348   4.783   3.670   2.187  0.4846  2.4891  1.5783
 8645TIP3   OH247349   4.374   0.687  16.553  0.7236  0.6754 -0.4710
 8645TIP3    H147350   4.305   0.672  16.489  0.4336 -1.2285  0.2437
 8645TIP3    H247351   4.455   0.681  16.503  0.5313 -1.4442 -0.5908
 8646TIP3   OH247352   0.582   5.588   5.669  0.0259 -0.3751  0.2586
 8646TIP3    H147353   0.607   5.679   5.682  1.8702 -0.8280  0.1832
 8646TIP3    H247354   0.508   5.591   5.609  0.2884  1.0437 -0.0206
 8647TIP3   OH247355   6.083   4.023  15.625 -0.5392 -0.9348 -0.8774
 8647TIP3    H147356   6.162   4.076  15.636 -0.6419 -1.2178  2.0744
 8647TIP3    H247357   6.116   3.933  15.614 -0.4149 -1.0823  0.5639
 8648TIP3   OH247358   5.897   6.195  11.577  0.5731  0.0682  0.0190
 8648TIP3    H147359   5.864   6.180  11.666 -0.8315 -0.3863 -0.5525
 8648TIP3    H247360   5.829   6.246  11.535  0.9714 -0.2100 -0.9820
 8649TIP3   OH247361   0.251   2.445  11.295 -0.1882 -0.2835 -0.3636
 8649TIP3    H147362   0.200   2.525  11.283  0.0827  0.0432  0.5625
 8649TIP3    H247363   0.233   2.394  11.217 -1.8560 -0.1430 -0.1166
 8650TIP3   OH247364   4.629   3.563   0.279  0.0062  0.0165 -0.2301
 8650TIP3    H147365   4.615   3.599   0.191 -1.8363 -1.1123 -0.4529
 8650TIP3    H247366   4.705   3.505   0.270 -0.4414 -0.4385 -1.2067
 8651TIP3   OH247367   5.985   2.763  11.498  0.1669  0.3271 -0.3004
 8651TIP3    H147368   5.990   2.712  11.579 -1.7576  0.4778 -0.0642
 8651TIP3    H247369   5.987   2.854  11.526  1.9554  0.4335 -0.6257
 8652TIP3   OH247370   4.974   1.848  12.778 -0.0029  0.2391  0.3765
 8652TIP3    H147371   5.067   1.861  12.793 -0.4498  2.3203  1.7750
 8652TIP3    H247372   4.951   1.771  12.829  0.7510  0.3730  0.9296
 8653TIP3   OH247373   5.184   5.709  11.189  0.2824  0.0776 -0.2337
 8653TIP3    H147374   5.147   5.797  11.181  1.1378  0.7591  2.4007
 8653TIP3    H247375   5.187   5.692  11.283  3.7673 -1.1926 -0.4220
 8654TIP3   OH247376   5.627   5.805  16.444 -0.1898  0.5830  0.2445
 8654TIP3    H147377   5.629   5.726  16.497 -0.6449 -0.3201 -1.0479
 8654TIP3    H247378   5.703   5.856  16.474 -0.1950 -0.0793  1.4495
 8655TIP3   OH247379   2.794   1.736   0.543  0.2037  0.1639 -0.1356
 8655TIP3    H147380   2.800   1.821   0.501 -3.5613  1.5883  1.7304
 8655TIP3    H247381   2.835   1.749   0.629 -1.2324  0.5044  0.5372
 8656TIP3   OH247382   0.356   3.166   0.473  0.2491 -0.1506 -0.3523
 8656TIP3    H147383   0.301   3.164   0.551  2.0984  0.0463  1.0210
 8656TIP3    H247384   0.416   3.093   0.485  0.2049 -0.4679 -1.9011
 8657TIP3   OH247385   0.336   3.863   5.386  0.4280 -0.6573 -0.3819
 8657TIP3    H147386   0.332   3.931   5.453 -0.7068 -0.6622 -0.4348
 8657TIP3    H247387   0.422   3.875   5.345  1.6567 -1.3875  1.8102
 8658TIP3   OH247388   0.633   2.629  12.651 -0.0604 -0.6568 -0.1039
 8658TIP3    H147389   0.672   2.678  12.578  1.0316  0.4979  1.1961
 8658TIP3    H247390   0.682   2.547  12.653  1.4415  0.2108  0.6464
 8659TIP3   OH247391   4.700   5.084   4.678 -0.1560 -0.0682 -0.4312
 8659TIP3    H147392   4.782   5.075   4.727 -0.1626  1.6952 -0.0241
 8659TIP3    H247393   4.632   5.082   4.745 -0.5147 -1.9615 -0.8065
 8660TIP3   OH247394   1.181   6.258  12.231  0.2709 -0.2264 -0.7087
 8660TIP3    H147395   1.222   6.208  12.160 -0.2053  0.4425 -1.4671
 8660TIP3    H247396   1.096   6.217  12.245  0.0294  0.1364 -1.0853
 8661TIP3   OH247397   0.634   5.322   2.230  0.6478 -0.2786  0.3780
 8661TIP3    H147398   0.571   5.285   2.292  1.0311 -1.8090 -0.0948
 8661TIP3    H247399   0.717   5.283   2.254  1.3167  1.1720  0.5464
 8662TIP3   OH247400   4.559   6.686  16.551  0.2234 -0.5906 -0.3321
 8662TIP3    H147401   4.504   6.684  16.630  0.4129  1.0989 -0.1093
 8662TIP3    H247402   4.501   6.657  16.481 -1.4206  2.2058 -0.2986
 8663TIP3   OH247403   5.254   3.137   0.802 -0.2732  0.2409  0.4115
 8663TIP3    H147404   5.251   3.171   0.891  0.6016  1.6565 -0.0730
 8663TIP3    H247405   5.301   3.204   0.752  0.2601 -1.0464 -0.8812
 8664TIP3   OH247406   1.834   2.150  13.530 -0.1699 -0.1853 -0.2634
 8664TIP3    H147407   1.859   2.123  13.619 -0.2405  0.7088  0.0431
 8664TIP3    H247408   1.890   2.099  13.472  0.7871  0.1409  0.3458
 8665TIP3   OH247409   5.733   3.353  12.205  0.3199 -0.4236  0.2149
 8665TIP3    H147410   5.707   3.275  12.155  2.9181 -1.8395  0.9186
 8665TIP3    H247411   5.732   3.424  12.141  3.2110 -2.1064 -1.9056
 8666TIP3   OH247412   3.100   5.687  12.137  0.2569 -0.2088  0.4472
 8666TIP3    H147413   3.105   5.599  12.175 -0.4756 -0.4568 -0.0060
 8666TIP3    H247414   3.023   5.726  12.177 -0.1286 -0.2260 -0.2617
 8667TIP3   OH247415   0.382   4.739   1.595  0.0933  0.2002 -0.0898
 8667TIP3    H147416   0.461   4.789   1.576  1.3229 -1.1466  1.2189
 8667TIP3    H247417   0.366   4.688   1.516  0.5075  0.5297 -0.3910
 8668TIP3   OH247418   0.239   3.702   1.539  0.0379  0.6063 -0.4327
 8668TIP3    H147419   0.324   3.666   1.515 -0.6339 -1.2285 -0.1940
 8668TIP3    H247420   0.178   3.629   1.527 -1.4674  1.8103 -0.3578
 8669TIP3   OH247421   6.559   1.508   4.767  0.3623  0.7975  0.0218
 8669TIP3    H147422   6.612   1.528   4.690  0.8228 -0.4782 -0.0246
 8669TIP3    H247423   6.530   1.418   4.752  0.8824  0.3436  1.5741
 8670TIP3   OH247424   0.653   0.640   4.911  0.1680 -0.3358 -0.8168
 8670TIP3    H147425   0.732   0.694   4.899 -0.1509  0.1978 -0.5639
 8670TIP3    H247426   0.661   0.572   4.844  1.9660 -1.6659  0.6506
 8671TIP3   OH247427   1.864   4.595   3.886 -0.4376 -0.3801  0.0653
 8671TIP3    H147428   1.911   4.568   3.965 -1.0127 -2.5848 -0.3045
 8671TIP3    H247429   1.926   4.578   3.814 -1.2189 -1.8570 -0.2793
 8672TIP3   OH247430   3.412   2.251   5.263  0.1343 -0.0370  0.3780
 8672TIP3    H147431   3.481   2.297   5.215 -0.8868  0.2783 -0.8505
 8672TIP3    H247432   3.332   2.297   5.239 -0.9788 -2.6014 -1.1395
 8673TIP3   OH247433   3.236   2.626   1.383  0.1951 -0.1653 -0.1805
 8673TIP3    H147434   3.194   2.711   1.372  1.9336  0.5938 -1.1971
 8673TIP3    H247435   3.324   2.645   1.415  1.1340 -1.4459 -1.8087
 8674TIP3   OH247436   0.518   6.153  14.475  0.1200  0.5042  0.7990
 8674TIP3    H147437   0.443   6.124  14.528  1.5487 -1.6840  1.7741
 8674TIP3    H247438   0.481   6.217  14.414 -2.1620  0.8979  2.4640
 8675TIP3   OH247439   5.530   6.613   5.326  0.0897 -0.1554 -0.4094
 8675TIP3    H147440   5.439   6.584   5.321  0.6783 -2.5442  1.1160
 8675TIP3    H247441   5.571   6.575   5.248 -0.1134  0.6530 -0.9260
 8676TIP3   OH247442   0.814   6.546   1.097  0.4060 -0.1934 -0.6151
 8676TIP3    H147443   0.838   6.516   1.010  2.6914 -0.6586  0.1167
 8676TIP3    H247444   0.762   6.474   1.134  2.5708 -1.6758 -0.2889
 8677TIP3   OH247445   1.922   4.215   0.556  0.2568 -0.0471  0.3116
 8677TIP3    H147446   1.865   4.216   0.480 -0.8201 -2.6300  0.9769
 8677TIP3    H247447   1.942   4.122   0.570  1.7642  0.4929  2.2047
 8678TIP3   OH247448   4.249   2.068   1.404 -0.0350 -0.5081 -0.5034
 8678TIP3    H147449   4.247   2.131   1.332  1.4712  0.4153  0.2325
 8678TIP3    H247450   4.184   2.101   1.466  0.6156  0.2394 -0.2044
 8679TIP3   OH247451   2.867   3.864   3.781 -0.0821 -0.1989 -0.1754
 8679TIP3    H147452   2.831   3.899   3.699 -2.8723 -2.9371 -0.2650
 8679TIP3    H247453   2.810   3.899   3.849  2.9643  3.1291  1.0217
 8680TIP3   OH247454   3.688   2.454  16.488  0.1458  0.0430  0.2657
 8680TIP3    H147455   3.736   2.537  16.487  0.5317 -0.1692 -1.1600
 8680TIP3    H247456   3.598   2.478  16.509  0.5188  0.6590  1.1836
 8681TIP3   OH247457   3.422   5.699  17.197 -0.0756  0.6313  0.2314
 8681TIP3    H147458   3.505   5.658  17.219 -1.1354 -1.9136 -0.1022
 8681TIP3    H247459   3.357   5.650  17.248 -1.5880  0.8690 -1.3563
 8682TIP3   OH247460   4.975   3.708  13.707  0.3267  0.3480  0.1876
 8682TIP3    H147461   4.970   3.732  13.614  0.7441 -0.7853 -0.1371
 8682TIP3    H247462   5.031   3.631  13.709 -0.2416 -0.0520  1.3145
 8683TIP3   OH247463   2.628   5.935   2.540  0.1611 -0.3279 -0.2769
 8683TIP3    H147464   2.597   5.879   2.611  2.5954 -1.5866 -0.1219
 8683TIP3    H247465   2.654   6.017   2.583 -0.1426 -0.3675 -0.0110
 8684TIP3   OH247466   3.234   1.183   4.482  0.6441  0.3503 -0.2274
 8684TIP3    H147467   3.167   1.239   4.522 -0.1053 -0.5887 -0.1104
 8684TIP3    H247468   3.278   1.239   4.418 -2.4394  0.1993 -2.7361
 8685TIP3   OH247469   1.894   1.322   4.880  0.0841  0.2114 -0.3062
 8685TIP3    H147470   1.960   1.349   4.945 -0.0099 -0.8001  0.2251
 8685TIP3    H247471   1.812   1.319   4.930  0.0042 -0.5339 -0.4837
 8686TIP3   OH247472   3.177   0.710  16.343 -0.4411  0.5794  0.1994
 8686TIP3    H147473   3.203   0.620  16.323 -0.8369  0.5188 -0.0658
 8686TIP3    H247474   3.095   0.722  16.295 -0.2820  1.1529  0.0669
 8687TIP3   OH247475   5.444   4.367  11.490 -0.1999 -0.0287  0.0229
 8687TIP3    H147476   5.408   4.415  11.565  0.0667  0.1130  0.0596
 8687TIP3    H247477   5.539   4.375  11.500 -0.1509  1.2784 -1.1374
 8688TIP3   OH247478   6.244   3.163  10.784  0.0118 -0.4565  0.2718
 8688TIP3    H147479   6.177   3.231  10.777 -1.0000 -1.4895 -0.4735
 8688TIP3    H247480   6.266   3.161  10.877  0.0906  0.9088  0.2992
 8689TIP3   OH247481   1.349   2.050   1.857 -0.0544 -0.4587 -0.4333
 8689TIP3    H147482   1.390   2.110   1.795 -0.3263 -0.2774 -0.4346
 8689TIP3    H247483   1.256   2.069   1.852 -0.1444 -0.8781 -0.4331
 8690TIP3   OH247484   0.716   4.319   0.288  0.4582  0.3832 -0.2262
 8690TIP3    H147485   0.742   4.401   0.247 -0.5953  1.2493  0.7787
 8690TIP3    H247486   0.768   4.314   0.368  1.3120 -0.4934 -0.8064
 8691TIP3   OH247487   5.798   0.483  10.633  0.0170  0.2895 -0.4714
 8691TIP3    H147488   5.808   0.576  10.611 -0.4780  0.4938  0.1421
 8691TIP3    H247489   5.888   0.450  10.638  0.1706  0.4754 -1.7288
 8692TIP3   OH247490   3.490   4.907   1.658 -0.1136 -0.1691  0.4508
 8692TIP3    H147491   3.559   4.845   1.685  0.8378  0.4160 -0.5616
 8692TIP3    H247492   3.537   4.985   1.630 -0.8906 -0.8513 -3.3462
 8693TIP3   OH247493   4.972   4.751  11.816 -0.1428 -0.7801  0.3373
 8693TIP3    H147494   4.988   4.665  11.778  0.8383 -1.1746  1.6200
 8693TIP3    H247495   4.962   4.808  11.740 -0.7695 -1.9986 -0.5324
 8694TIP3   OH247496   3.771   1.979  17.332 -0.6148  0.5180  0.1706
 8694TIP3    H147497   3.687   1.962  17.291  0.2168  0.8104 -1.7480
 8694TIP3    H247498   3.760   2.064  17.376 -1.1051  0.9467 -0.7510
 8695TIP3   OH247499   3.123   4.810   0.138 -0.1899  0.4392 -0.0034
 8695TIP3    H147500   3.134   4.820   0.232  0.4458  1.5981 -0.1839
 8695TIP3    H247501   3.084   4.893   0.109  0.3532  0.4144 -0.8578
 8696TIP3   OH247502   3.439   5.955   6.109 -0.1554  0.0549  0.3100
 8696TIP3    H147503   3.415   6.021   6.174 -2.1562  0.4929 -0.7932
 8696TIP3    H247504   3.366   5.955   6.047  1.4825 -0.6312 -1.7308
 8697TIP3   OH247505   3.669   4.170   5.097 -0.0947 -0.2053 -0.5494
 8697TIP3    H147506   3.680   4.214   5.012  0.1178 -0.0136 -0.4232
 8697TIP3    H247507   3.758   4.156   5.129 -0.1796 -0.0080 -0.2201
 8698TIP3   OH247508   1.142   3.559   4.374  0.3587  0.2236  0.0108
 8698TIP3    H147509   1.107   3.587   4.290 -0.2130  0.7929  0.4200
 8698TIP3    H247510   1.073   3.581   4.437  1.6405  1.8776  0.9241
 8699TIP3   OH247511   1.882   5.790   3.839 -0.1540  0.3873  0.1463
 8699TIP3    H147512   1.949   5.741   3.792  0.5515  1.3303  0.1291
 8699TIP3    H247513   1.804   5.785   3.783  0.5011  1.0085 -0.8466
 8700TIP3   OH247514   3.435   1.034  16.136  0.0651  0.1249  0.3841
 8700TIP3    H147515   3.525   1.046  16.107 -0.3670 -0.1237 -1.1330
 8700TIP3    H247516   3.401   1.122  16.148  0.2044  0.2344 -0.0247
 8701TIP3   OH247517   1.694   1.418   3.391 -0.0179  0.0963 -0.5671
 8701TIP3    H147518   1.789   1.425   3.389  0.0181  0.6089  1.2085
 8701TIP3    H247519   1.675   1.366   3.469 -1.2247  1.0086 -0.2156
 8702TIP3   OH247520   2.824   3.443   0.350  0.1423 -0.1600 -0.2671
 8702TIP3    H147521   2.816   3.536   0.332 -1.4882 -0.1684  0.2138
 8702TIP3    H247522   2.910   3.433   0.391 -0.1528  1.3475  0.7940
 8703TIP3   OH247523   3.145   0.195  11.773 -0.6622  0.4485  0.0614
 8703TIP3    H147524   3.232   0.156  11.766  0.6234  3.0143  0.7447
 8703TIP3    H247525   3.113   0.166  11.858 -0.9982 -1.3767 -0.6344
 8704TIP3   OH247526   6.396   3.893  11.405 -0.1883  0.0527  0.3625
 8704TIP3    H147527   6.378   3.969  11.461 -0.4680 -1.6104  2.6490
 8704TIP3    H247528   6.481   3.913  11.365 -1.0231  2.2780 -0.4475
 8705TIP3   OH247529   1.458   1.565  15.856  0.5145  0.1343 -0.3215
 8705TIP3    H147530   1.469   1.488  15.799  2.0499  0.4923 -0.5681
 8705TIP3    H247531   1.490   1.536  15.941 -0.2905  0.0672 -0.0408
 8706TIP3   OH247532   5.783   6.129  11.819  0.0934 -0.1937  0.7023
 8706TIP3    H147533   5.720   6.188  11.860  0.3394 -0.3339  1.2956
 8706TIP3    H247534   5.809   6.069  11.889 -0.7378 -1.5239 -0.0881
 8707TIP3   OH247535   3.997   5.803   5.841  0.5628 -0.0361 -0.1411
 8707TIP3    H147536   3.996   5.793   5.936 -1.4907 -1.8819 -0.2759
 8707TIP3    H247537   3.952   5.886   5.825  0.0933 -0.1691  0.4633
 8708TIP3   OH247538   0.274   6.390   4.875  0.4833  0.0218 -0.2953
 8708TIP3    H147539   0.349   6.438   4.841  0.4596  1.4434  1.4480
 8708TIP3    H247540   0.287   6.391   4.970 -1.7935  0.4708  0.0735
 8709TIP3   OH247541   5.031   5.064  15.064  0.2452  0.1410  0.8570
 8709TIP3    H147542   5.063   5.108  15.143 -0.7254  0.0950  1.2896
 8709TIP3    H247543   5.048   4.971  15.080  0.4643  0.1730  0.8124
 8710TIP3   OH247544   6.691   5.271  14.229  0.1270 -0.5239  0.0814
 8710TIP3    H147545   6.597   5.252  14.226 -0.0133  0.2011 -0.4945
 8710TIP3    H247546   6.704   5.338  14.161  1.2966 -1.6239 -0.8242
 8711TIP3   OH247547   3.259   3.326   0.677 -0.3643 -0.7188 -0.1801
 8711TIP3    H147548   3.212   3.345   0.759 -2.6454 -1.0176 -1.3357
 8711TIP3    H247549   3.223   3.242   0.648  1.4840 -1.3494 -0.7911
 8712TIP3   OH247550   1.326   3.772  17.308  0.5650 -0.6477  0.3877
 8712TIP3    H147551   1.240   3.801  17.277  0.8022 -0.0101  0.2961
 8712TIP3    H247552   1.307   3.715  17.382  0.0485 -0.8385  0.1141
 8713TIP3   OH247553   3.460   0.590   1.878  0.0304  1.1709 -0.4089
 8713TIP3    H147554   3.459   0.685   1.887  1.9993  1.2401 -0.5423
 8713TIP3    H247555   3.493   0.574   1.790  2.0461  0.3947  0.4263
 8714TIP3   OH247556   3.199   5.927   1.958 -0.0924 -0.0131 -0.7096
 8714TIP3    H147557   3.256   5.938   1.882 -0.0302  3.3935 -0.2965
 8714TIP3    H247558   3.131   5.994   1.948 -1.6536 -1.2328  0.9338
 8715TIP3   OH247559   5.968   1.568   2.402  0.4865 -0.0603 -0.2446
 8715TIP3    H147560   5.981   1.489   2.349 -0.7672 -1.0056  0.7836
 8715TIP3    H247561   6.013   1.637   2.354  0.6868 -1.1820 -1.7434
 8716TIP3   OH247562   5.902   0.841  16.334 -1.1930 -0.2186  0.2803
 8716TIP3    H147563   5.819   0.847  16.381 -0.7136  2.4577  0.9296
 8716TIP3    H247564   5.969   0.839  16.403 -0.6268 -0.6168 -0.2613
 8717TIP3   OH247565   2.167   4.639   6.532 -0.1953 -0.2165 -0.1771
 8717TIP3    H147566   2.252   4.637   6.577 -0.0500 -0.2230 -0.4524
 8717TIP3    H247567   2.126   4.556   6.553  0.8897 -1.2765 -2.0314
 8718TIP3   OH247568   3.758   5.473   5.547  0.6608  0.7618  0.3513
 8718TIP3    H147569   3.775   5.492   5.455  1.3757  1.3318  0.5907
 8718TIP3    H247570   3.667   5.444   5.549  2.0301 -4.6884 -1.2962
 8719TIP3   OH247571   4.080   6.098  12.535 -0.0987  0.1634 -0.6792
 8719TIP3    H147572   4.084   6.192  12.522  0.4029 -0.1039 -3.0026
 8719TIP3    H247573   4.070   6.062  12.446 -0.0969 -1.9763  0.1211
 8720TIP3   OH247574   0.760   6.539   0.104  0.1683  0.4079 -0.2018
 8720TIP3    H147575   0.777   6.580   0.019 -0.7227  1.2863  0.0264
 8720TIP3    H247576   0.674   6.572   0.130  0.0074 -0.5858  0.6134
 8721TIP3   OH247577   2.717   6.599   4.825  0.3784 -0.5419  0.1383
 8721TIP3    H147578   2.677   6.521   4.785  0.5610 -0.1945 -0.7434
 8721TIP3    H247579   2.661   6.618   4.901  0.3077 -1.5013  0.3394
 8722TIP3   OH247580   2.628   3.732  16.552 -0.4129 -0.5063  0.5207
 8722TIP3    H147581   2.689   3.658  16.556  0.8877  0.5174  0.3924
 8722TIP3    H247582   2.669   3.799  16.606 -2.2510 -0.3238  1.7824
 8723TIP3   OH247583   5.129   5.740  11.601 -0.2461 -0.4231 -0.0798
 8723TIP3    H147584   5.047   5.691  11.592 -1.4120  1.2817  0.8151
 8723TIP3    H247585   5.109   5.810  11.662  1.8066  0.2704 -0.1144
 8724TIP3   OH247586   4.551   3.633  14.188 -0.0219  0.3040 -0.4110
 8724TIP3    H147587   4.473   3.662  14.235 -0.8291 -0.9865 -0.9039
 8724TIP3    H247588   4.527   3.548  14.151  1.0343  0.6473 -2.0062
 8725TIP3   OH247589   5.030   3.244  12.085 -0.1623 -0.2387 -0.1709
 8725TIP3    H147590   5.084   3.314  12.122 -0.4597 -0.9136  1.6942
 8725TIP3    H247591   4.945   3.285  12.070 -0.0491  0.0457 -0.0475
 8726TIP3   OH247592   5.997   3.657  14.496  0.0921  0.0811  0.0629
 8726TIP3    H147593   6.027   3.712  14.423 -0.1378  0.1209 -0.0035
 8726TIP3    H247594   6.024   3.569  14.473 -0.7388 -0.0388 -0.4872
 8727TIP3   OH247595   1.800   2.883  15.648  0.1397 -0.3819 -0.6683
 8727TIP3    H147596   1.783   2.968  15.607 -1.0445 -0.4854 -0.4416
 8727TIP3    H247597   1.820   2.825  15.574  1.3001  0.1511 -0.7952
 8728TIP3   OH247598   1.256   3.850   6.329 -0.4507  0.1614 -0.0794
 8728TIP3    H147599   1.244   3.784   6.261 -1.2654 -0.0731  0.2809
 8728TIP3    H247600   1.168   3.872   6.357 -0.1511  0.8466  0.3423
 8729TIP3   OH247601   4.711   6.388  14.193 -0.5108 -0.1928  0.8477
 8729TIP3    H147602   4.633   6.365  14.141  0.1639 -1.2566  0.2815
 8729TIP3    H247603   4.761   6.446  14.136 -0.5873 -0.0070  0.9697
 8730TIP3   OH247604   0.338   1.027  13.009 -0.4043  0.1772 -0.2609
 8730TIP3    H147605   0.317   1.068  13.093 -1.5901 -0.1300 -0.3886
 8730TIP3    H247606   0.412   1.077  12.975  1.1688 -0.6715  1.6920
 8731TIP3   OH247607   6.326   4.985   4.190  0.1209  0.3197  0.2477
 8731TIP3    H147608   6.303   4.893   4.180 -3.1772  0.9235  1.0375
 8731TIP3    H247609   6.371   4.990   4.274 -1.0287 -0.4224  0.9358
 8732TIP3   OH247610   3.136   3.410  16.039 -0.3413  0.0080 -0.0975
 8732TIP3    H147611   3.068   3.464  16.080 -0.6498  0.5685 -1.3058
 8732TIP3    H247612   3.123   3.323  16.077 -1.1775  0.3040  0.3325
 8733TIP3   OH247613   0.362   2.540   3.255 -0.1167 -0.0340 -0.2683
 8733TIP3    H147614   0.365   2.554   3.160  1.3346  0.9171 -0.1170
 8733TIP3    H247615   0.416   2.610   3.291 -0.7392 -0.3114  1.2869
 8734TIP3   OH247616   1.902   0.432  16.394  0.5904 -0.4790  0.5703
 8734TIP3    H147617   1.950   0.487  16.332 -1.1567  0.6425  0.1408
 8734TIP3    H247618   1.896   0.347  16.351  3.0757 -0.9915  1.1118
 8735TIP3   OH247619   3.445   4.066   4.141 -0.3763  0.1420 -0.0411
 8735TIP3    H147620   3.439   4.048   4.047 -1.0298  1.9245 -0.3767
 8735TIP3    H247621   3.441   4.161   4.148  1.7229  0.1952  1.6727
 8736TIP3   OH247622   3.366   1.675   4.118  0.3460 -0.0795 -0.2590
 8736TIP3    H147623   3.287   1.662   4.170 -0.2579 -0.1920 -1.1890
 8736TIP3    H247624   3.403   1.758   4.150  0.1383 -0.2932  0.5324
 8737TIP3   OH247625   2.704   6.094  16.427 -0.4948  0.0073 -0.1675
 8737TIP3    H147626   2.731   6.046  16.348  0.3777  2.0072 -1.1477
 8737TIP3    H247627   2.684   6.182  16.396  2.1225  1.5605  2.1241
 8738TIP3   OH247628   3.650   3.229  15.913  0.2944  0.1160 -0.0556
 8738TIP3    H147629   3.717   3.171  15.949  1.6837  1.0537 -1.0314
 8738TIP3    H247630   3.691   3.315  15.911 -0.8190  0.6496 -0.9641
 8739TIP3   OH247631   2.523   0.768   5.842 -0.8101  0.8751 -0.2108
 8739TIP3    H147632   2.465   0.769   5.766 -2.5047  2.0611  1.0115
 8739TIP3    H247633   2.464   0.780   5.917  1.1212  3.2992  1.0433
 8740TIP3   OH247634   1.330   5.636   0.256 -0.8130  0.0091  0.3012
 8740TIP3    H147635   1.322   5.717   0.205  1.7154 -0.1488 -0.4915
 8740TIP3    H247636   1.265   5.577   0.218 -0.3333  0.5641 -1.4748
 8741TIP3   OH247637   4.519   5.469   3.212 -0.1108  0.3643 -0.3337
 8741TIP3    H147638   4.585   5.500   3.275 -0.8524  0.7329  0.2883
 8741TIP3    H247639   4.566   5.410   3.155  0.8124  0.7919 -0.0364
 8742TIP3   OH247640   3.506   1.989  16.791  0.3350 -0.2422 -0.2090
 8742TIP3    H147641   3.422   2.011  16.750  0.2958 -0.0168 -0.0055
 8742TIP3    H247642   3.541   2.073  16.821 -0.2201 -0.5401  1.3561
 8743TIP3   OH247643   6.266   4.342  14.566  0.5128  0.3692 -0.3299
 8743TIP3    H147644   6.348   4.311  14.527 -0.0905 -3.8993  1.2134
 8743TIP3    H247645   6.288   4.362  14.656  0.0512 -0.0346 -0.1184
 8744TIP3   OH247646   1.703   3.220   2.516  0.2469  0.6501 -0.1969
 8744TIP3    H147647   1.735   3.289   2.574  0.1146  0.3397  0.2532
 8744TIP3    H247648   1.770   3.214   2.448  0.6357  0.7161  0.1710
 8745TIP3   OH247649   3.006   3.248   5.050 -0.2128  0.8102  0.2925
 8745TIP3    H147650   2.994   3.196   4.971  0.4105 -1.1628  1.4082
 8745TIP3    H247651   2.939   3.216   5.110  0.3983  1.0381  1.1225
 8746TIP3   OH247652   3.136   2.467  15.528 -0.1820 -0.0146 -0.1068
 8746TIP3    H147653   3.095   2.417  15.599  0.2919 -1.2955 -0.6984
 8746TIP3    H247654   3.070   2.468  15.459 -0.2674  0.3627 -0.0194
 8747TIP3   OH247655   0.486   0.650   4.229 -0.6390  0.3851  0.2333
 8747TIP3    H147656   0.542   0.728   4.222 -2.8670  1.9448 -1.4150
 8747TIP3    H247657   0.461   0.630   4.139 -2.0184 -0.8172  0.8424
 8748TIP3   OH247658   4.863   5.777   2.452  0.6314  0.7704  0.0765
 8748TIP3    H147659   4.796   5.711   2.470  1.6480 -0.0504  1.0042
 8748TIP3    H247660   4.857   5.837   2.527  0.2160  1.3206 -0.3879
 8749TIP3   OH247661   6.249   2.587  12.441 -0.4092  0.4073 -0.1445
 8749TIP3    H147662   6.320   2.523  12.433 -0.6556 -0.0742  1.3215
 8749TIP3    H247663   6.204   2.583  12.356 -0.1333 -1.0206 -0.2427
 8750TIP3   OH247664   2.091   1.180   1.576 -0.1857  0.5203 -0.1194
 8750TIP3    H147665   2.033   1.248   1.611  0.1058  0.8460 -0.2665
 8750TIP3    H247666   2.175   1.194   1.621 -0.6814 -1.0264  1.4022
 8751TIP3   OH247667   6.021   4.350  15.766  0.7944  0.2985  0.0422
 8751TIP3    H147668   6.102   4.359  15.716  2.2883  1.9364  2.5139
 8751TIP3    H247669   6.023   4.260  15.798  0.0573 -0.6131 -2.3346
 8752TIP3   OH247670   6.341   5.576  15.626  0.2096 -0.0749 -0.1584
 8752TIP3    H147671   6.368   5.536  15.543  0.7739 -1.2170  0.5429
 8752TIP3    H247672   6.422   5.611  15.663 -0.0025  0.2431  0.0119
 8753TIP3   OH247673   6.137   1.221  12.424  0.2684 -0.2708 -0.3204
 8753TIP3    H147674   6.166   1.309  12.399  0.5615 -0.8843 -2.2953
 8753TIP3    H247675   6.048   1.214  12.391  0.7584 -1.2050 -1.5197
 8754TIP3   OH247676   1.719   2.168  10.991  0.1178 -0.1202 -0.0881
 8754TIP3    H147677   1.799   2.161  10.938  0.5467  1.0041  0.3717
 8754TIP3    H247678   1.750   2.197  11.077 -0.6093 -1.5211  0.6854
 8755TIP3   OH247679   3.508   1.717   3.031 -0.6371 -0.0350 -0.4730
 8755TIP3    H147680   3.497   1.794   2.976 -0.2931  1.2014  1.0917
 8755TIP3    H247681   3.421   1.702   3.068 -0.5947 -0.0774 -0.3907
 8756TIP3   OH247682   3.420   5.389  13.725 -0.1309 -0.3700  0.3901
 8756TIP3    H147683   3.361   5.430  13.662  0.3163  0.8111  0.7187
 8756TIP3    H247684   3.386   5.300  13.735 -1.0133 -0.1488 -0.4812
 8757TIP3   OH247685   3.828   4.106  12.165  0.7890 -1.1731 -0.2069
 8757TIP3    H147686   3.803   4.198  12.157  0.8365 -0.9645  1.6185
 8757TIP3    H247687   3.754   4.058  12.129 -1.4570 -0.5000  3.0505
 8758TIP3   OH247688   2.402   0.888  14.701 -0.0680  0.1821  0.3422
 8758TIP3    H147689   2.336   0.877  14.770 -1.5219 -0.6379 -1.1054
 8758TIP3    H247690   2.368   0.959  14.647 -0.8310 -1.5215 -1.5266
 8759TIP3   OH247691   3.427   2.530  12.303 -0.4660 -0.0663  0.0236
 8759TIP3    H147692   3.464   2.497  12.221  0.8070  1.2281  0.0399
 8759TIP3    H247693   3.498   2.580  12.343 -0.3311 -2.4023  3.0239
 8760TIP3   OH247694   3.619   5.742   1.356 -0.3529  0.5086  0.4470
 8760TIP3    H147695   3.571   5.677   1.407 -1.7196  1.2293  0.1459
 8760TIP3    H247696   3.681   5.780   1.418 -0.8704  0.2500  1.1395
 8761TIP3   OH247697   5.776   0.086  11.564 -0.6168 -0.1779  0.3056
 8761TIP3    H147698   5.838   0.151  11.532  1.1665 -1.0167  1.8815
 8761TIP3    H247699   5.794   0.080  11.658  0.4676 -4.0840  0.0033
 8762TIP3   OH247700   0.040   1.525  15.041 -0.0263 -0.1914 -0.0049
 8762TIP3    H147701   0.091   1.502  14.963 -1.3287  1.6306 -1.4931
 8762TIP3    H247702   0.023   1.441  15.084  1.5471 -1.1510 -1.1197
 8763TIP3   OH247703   2.325   3.750  14.769  0.0614  0.1220 -0.1556
 8763TIP3    H147704   2.313   3.737  14.863  1.6900 -0.0188  0.0687
 8763TIP3    H247705   2.247   3.711  14.729  0.3582 -1.8212  1.0267
 8764TIP3   OH247706   1.945   5.706  17.158 -0.1538 -0.0398 -0.4075
 8764TIP3    H147707   1.859   5.697  17.117 -0.7851  1.5513  0.4689
 8764TIP3    H247708   1.985   5.781  17.113  0.6491 -0.5706 -0.5898
 8765TIP3   OH247709   3.399   4.543  10.624  0.1878 -0.7369 -0.1452
 8765TIP3    H147710   3.422   4.452  10.640  0.7061 -0.5258  0.3510
 8765TIP3    H247711   3.352   4.570  10.703 -2.8230 -1.4708 -1.5566
 8766TIP3   OH247712   3.841   1.470   4.095  0.3615 -1.0029  0.5815
 8766TIP3    H147713   3.921   1.475   4.042 -0.7081 -2.4196 -1.3081
 8766TIP3    H247714   3.841   1.380   4.129 -0.6734 -1.1982  0.0940
 8767TIP3   OH247715   0.800   0.002  12.960 -0.4450  0.0284  0.1092
 8767TIP3    H147716   0.847  -0.027  12.882 -0.8414 -0.1433 -0.0718
 8767TIP3    H247717   0.863  -0.008  13.031  0.1894  0.9846 -0.3067
 8768TIP3   OH247718   0.841   0.326   1.758 -0.2607 -0.0737 -0.1613
 8768TIP3    H147719   0.834   0.420   1.775 -2.7879 -0.3412  0.8631
 8768TIP3    H247720   0.841   0.287   1.845 -2.1618 -1.0830 -0.5542
 8769TIP3   OH247721   0.710   4.498  16.752  0.0587 -0.2966  0.2512
 8769TIP3    H147722   0.645   4.557  16.791 -0.6178 -1.1934  0.5029
 8769TIP3    H247723   0.708   4.518  16.659 -1.2595 -0.9366  0.1165
 8770TIP3   OH247724   5.141   5.352  13.098  0.1042 -0.3958  0.5224
 8770TIP3    H147725   5.174   5.307  13.176  0.1450 -1.5273 -0.1364
 8770TIP3    H247726   5.061   5.396  13.127 -0.7008 -2.0250  0.8704
 8771TIP3   OH247727   3.025   5.447  12.615 -0.0213  0.2961 -0.3041
 8771TIP3    H147728   3.111   5.479  12.587  0.7856 -0.9506  0.6216
 8771TIP3    H247729   3.040   5.355  12.636 -1.6215  0.0351 -0.2046
 8772TIP3   OH247730   1.339   5.673   0.658  0.2956  0.3080 -0.1966
 8772TIP3    H147731   1.358   5.759   0.621 -1.1011  0.6429 -0.1952
 8772TIP3    H247732   1.254   5.684   0.702 -0.2270 -1.2244 -0.7579
 8773TIP3   OH247733   5.369   4.953   3.520 -0.9251  1.0889  0.2680
 8773TIP3    H147734   5.291   4.993   3.482 -1.5579 -1.5403 -1.4132
 8773TIP3    H247735   5.335   4.889   3.583 -0.0565  0.8789  0.5425
 8774TIP3   OH247736   5.061   2.285   4.163  0.4335  0.3724 -0.5934
 8774TIP3    H147737   5.048   2.310   4.071  0.4391  2.1868 -0.1567
 8774TIP3    H247738   5.149   2.319   4.184 -0.3100  1.7156  0.5656
 8775TIP3   OH247739   5.162   5.820  15.714  0.2542  0.3361 -0.1346
 8775TIP3    H147740   5.118   5.739  15.738  2.6782 -0.5438  1.7898
 8775TIP3    H247741   5.167   5.817  15.618  1.2666 -2.4245 -0.0918
 8776TIP3   OH247742   4.957   2.599   6.061 -0.1032 -0.2880 -0.2294
 8776TIP3    H147743   4.984   2.600   5.969  0.7273 -2.5076 -0.0825
 8776TIP3    H247744   4.862   2.602   6.058 -0.1362 -1.4727 -1.2562
 8777TIP3   OH247745   2.179   2.419  17.034 -0.3433 -0.2229  0.1088
 8777TIP3    H147746   2.214   2.508  17.042  0.4113 -0.3876 -1.1032
 8777TIP3    H247747   2.127   2.421  16.953  2.8609 -1.8168 -2.1824
 8778TIP3   OH247748   5.641   1.839  13.430 -0.0093 -0.4619  0.8026
 8778TIP3    H147749   5.572   1.891  13.388  0.8433  0.9970  1.1286
 8778TIP3    H247750   5.721   1.887  13.410  0.8015 -1.6124  1.2380
 8779TIP3   OH247751   5.745   5.009   4.451  0.3126 -0.1533 -0.5439
 8779TIP3    H147752   5.775   5.098   4.469  0.3419 -0.4021  0.7590
 8779TIP3    H247753   5.654   5.008   4.480 -0.5972  0.1997 -3.1484
 8780TIP3   OH247754   3.795   2.614   2.038  0.0074  0.0591  0.0489
 8780TIP3    H147755   3.716   2.581   1.996 -0.3188  0.5325  0.2788
 8780TIP3    H247756   3.866   2.585   1.981 -0.2260 -1.3261  0.4166
 8781TIP3   OH247757   0.683   5.038  13.331 -0.1638 -0.1924  0.3041
 8781TIP3    H147758   0.717   5.021  13.419 -0.7937 -1.3629  0.3379
 8781TIP3    H247759   0.594   5.070  13.346 -1.2168 -2.7757  0.0692
 8782TIP3   OH247760   4.939   6.585   1.592  0.6201  0.7112  0.1168
 8782TIP3    H147761   4.985   6.659   1.632 -0.5063  0.3427  2.1834
 8782TIP3    H247762   4.864   6.625   1.549  0.0813  0.8106  1.1260
 8783TIP3   OH247763   1.967   1.817   0.271  0.6312  0.4904  0.1099
 8783TIP3    H147764   1.914   1.886   0.311  1.8593  1.1060  0.7444
 8783TIP3    H247765   2.034   1.797   0.337  0.4641 -1.1303 -0.1760
 8784TIP3   OH247766   5.385   5.805  16.558  0.0388  0.3195  0.5335
 8784TIP3    H147767   5.458   5.861  16.530  0.0810  0.1260  0.2459
 8784TIP3    H247768   5.312   5.865  16.571 -0.0668  0.3863 -0.2972
 8785TIP3   OH247769   5.975   5.745  11.490 -0.3848 -0.3367  0.1520
 8785TIP3    H147770   5.932   5.663  11.463 -0.3118  0.2612 -2.0011
 8785TIP3    H247771   5.905   5.798  11.527 -1.0898 -0.2364 -1.2598
 8786TIP3   OH247772   1.772   6.179  17.052  0.5915 -0.3966 -0.5774
 8786TIP3    H147773   1.774   6.102  17.108  1.2925 -1.5710 -2.1173
 8786TIP3    H247774   1.828   6.156  16.978 -0.7695  0.8278 -2.0671
 8787TIP3   OH247775   6.598   1.892  16.747  0.3523  0.2182 -0.1553
 8787TIP3    H147776   6.553   1.825  16.696  1.5541 -0.8614  0.1433
 8787TIP3    H247777   6.561   1.884  16.835 -0.5807  0.9984 -0.4595
 8788TIP3   OH247778   0.007   6.088   3.650 -0.0762 -0.2304 -0.5353
 8788TIP3    H147779   0.038   5.999   3.635 -0.4159 -0.4852  0.2562
 8788TIP3    H247780  -0.079   6.077   3.689  0.7254  0.3951  1.5215
 8789TIP3   OH247781   2.295   6.683  16.119 -0.0591 -0.4587  0.3250
 8789TIP3    H147782   2.314   6.648  16.206  1.0751  1.6929  0.9962
 8789TIP3    H247783   2.376   6.726  16.092 -1.0376  0.6622 -0.9368
 8790TIP3   OH247784   1.299   4.700   4.903  0.0344 -0.2311 -0.2318
 8790TIP3    H147785   1.208   4.693   4.873  0.0713 -0.0837 -0.3741
 8790TIP3    H247786   1.291   4.723   4.996 -0.0768  2.1753 -0.7781
 8791TIP3   OH247787   2.313   5.574   6.696  0.7034 -0.2560 -0.2466
 8791TIP3    H147788   2.366   5.536   6.625 -0.8445 -0.0815 -1.5526
 8791TIP3    H247789   2.341   5.665   6.701  0.4665 -0.1344 -1.0079
 8792TIP3   OH247790   5.649   3.273  16.251 -0.3115 -0.2415  0.4827
 8792TIP3    H147791   5.575   3.218  16.226  0.0783 -0.5254 -0.0531
 8792TIP3    H247792   5.615   3.362  16.245 -0.5968 -0.3661  0.2099
 8793TIP3   OH247793   4.136   1.032  11.713  0.4334 -0.3729  0.3558
 8793TIP3    H147794   4.077   1.089  11.663 -0.7508 -1.7913  0.0825
 8793TIP3    H247795   4.086   0.952  11.727  1.5287 -0.8194  1.9816
 8794TIP3   OH247796   3.003   0.950   5.864  0.3775 -0.6348  0.1805
 8794TIP3    H147797   2.909   0.966   5.872  0.6946  1.3001  0.7115
 8794TIP3    H247798   3.018   0.942   5.770 -0.4252 -1.8614  0.1392
 8795TIP3   OH247799   5.672   3.185   1.398 -0.2440 -0.0832  0.1760
 8795TIP3    H147800   5.640   3.275   1.403 -1.6220 -0.5120 -0.4265
 8795TIP3    H247801   5.616   3.136   1.459  0.7594 -0.4756  0.8160
 8796TIP3   OH247802   4.285   0.105  12.966  0.6857 -0.0838  0.5686
 8796TIP3    H147803   4.364   0.095  12.912  0.9484  1.8772  0.5265
 8796TIP3    H247804   4.300   0.185  13.016 -1.0078 -0.0206  1.0346
 8797TIP3   OH247805   4.026   2.557  14.225  0.1909  0.4168  0.1418
 8797TIP3    H147806   4.119   2.554  14.244  0.2646 -0.7501 -0.3032
 8797TIP3    H247807   4.021   2.594  14.137  0.3529 -0.8165 -0.4100
 8798TIP3   OH247808   2.900   2.909  12.327  0.1091 -0.3088  0.4450
 8798TIP3    H147809   2.832   2.898  12.393  0.7341 -0.8311  1.0180
 8798TIP3    H247810   2.942   2.992  12.350 -0.3041 -0.0052  0.1136
 8799TIP3   OH247811   1.614   0.309  10.520  1.0396 -0.4407  0.5165
 8799TIP3    H147812   1.566   0.227  10.534  0.1175 -0.2507 -1.2449
 8799TIP3    H247813   1.549   0.377  10.535  1.4200 -0.0754  0.5109
 8800TIP3   OH247814   5.069   5.945  11.391  0.0194  0.2285  0.1387
 8800TIP3    H147815   5.063   5.904  11.477  1.1255 -1.4083 -0.5185
 8800TIP3    H247816   4.986   5.992  11.380 -1.0905 -1.4394  1.1543
 8801TIP3   OH247817   1.983   4.454  16.315  0.7982 -1.1624  0.3278
 8801TIP3    H147818   1.946   4.384  16.369  0.3280 -0.9506  0.2845
 8801TIP3    H247819   2.008   4.522  16.377 -0.2613 -0.6772  0.2583
 8802TIP3   OH247820   3.621   2.196  12.731  0.2009  0.1188  0.3434
 8802TIP3    H147821   3.621   2.292  12.721  3.1884  0.3101  1.2941
 8802TIP3    H247822   3.569   2.165  12.657  1.6969  2.3695 -1.8188
 8803TIP3   OH247823   2.324   4.361   2.634 -0.4666  0.1527  0.8720
 8803TIP3    H147824   2.257   4.310   2.678 -2.8623  2.9262  0.7644
 8803TIP3    H247825   2.275   4.421   2.577  2.3005 -0.1754 -2.1162
 8804TIP3   OH247826   1.614   3.006  13.987  0.5570  0.4930  0.2507
 8804TIP3    H147827   1.622   3.101  13.995 -1.2377  0.6777  0.3990
 8804TIP3    H247828   1.537   2.985  14.040  0.5816 -0.9679 -0.2710
 8805TIP3   OH247829   4.681   2.299   0.760 -0.0101  0.1373 -0.3803
 8805TIP3    H147830   4.752   2.328   0.818  1.4815 -0.1246 -2.0056
 8805TIP3    H247831   4.687   2.204   0.760 -0.4488  0.1048 -0.4673
 8806TIP3   OH247832   5.148   4.958   0.988  0.0574  0.0615 -0.3011
 8806TIP3    H147833   5.056   4.933   0.980  0.0862 -0.0941 -0.1305
 8806TIP3    H247834   5.152   5.010   1.068  0.8176 -3.1903  1.9819
 8807TIP3   OH247835   4.536   1.214   4.136 -0.0730 -0.5150  0.1801
 8807TIP3    H147836   4.543   1.135   4.189 -1.6004 -1.3695 -0.8244
 8807TIP3    H247837   4.591   1.278   4.182  1.5516 -2.2414  0.7933
 8808TIP3   OH247838   5.651   2.548  14.584  0.0243  0.3227  0.1888
 8808TIP3    H147839   5.563   2.519  14.607 -0.6039  1.6876 -0.3660
 8808TIP3    H247840   5.641   2.642  14.564  1.5262  0.4151 -0.2742
 8809TIP3   OH247841   5.105   0.020   2.026  0.2015 -0.0662  0.3191
 8809TIP3    H147842   5.198   0.001   2.011  0.1019  0.1188 -0.6219
 8809TIP3    H247843   5.099   0.040   2.119  0.9016 -1.2229  0.6281
 8810TIP3   OH247844   3.946   1.426  13.909 -0.2625 -0.2720  0.7414
 8810TIP3    H147845   3.893   1.352  13.936  0.2484 -0.8158  0.2780
 8810TIP3    H247846   3.968   1.409  13.817 -0.5041  0.6683  0.4972
 8811TIP3   OH247847   6.715   6.035  12.680 -0.2981  0.1120 -0.3157
 8811TIP3    H147848   6.806   6.004  12.682 -0.1608  0.5441  1.3291
 8811TIP3    H247849   6.714   6.112  12.736 -1.9672 -0.7384  0.9257
 8812TIP3   OH247850   0.119   2.923   2.643 -0.3514 -0.0686 -0.1856
 8812TIP3    H147851   0.028   2.914   2.616 -0.7867 -0.0182  1.1824
 8812TIP3    H247852   0.167   2.938   2.562 -1.3793 -1.3838 -1.0736
 8813TIP3   OH247853   0.240   0.168   1.248  0.0062  0.2374 -0.5851
 8813TIP3    H147854   0.171   0.134   1.191 -0.7959 -0.4493  0.7379
 8813TIP3    H247855   0.201   0.167   1.336  0.7169  2.5891 -0.1770
 8814TIP3   OH247856   1.271   3.585   4.820 -0.0717  0.3458 -0.0189
 8814TIP3    H147857   1.269   3.656   4.756  0.4161  1.7996  1.5036
 8814TIP3    H247858   1.360   3.550   4.814  0.4658  1.4974  0.8874
 8815TIP3   OH247859   1.356   5.609  12.795  0.6226 -0.3835 -0.2938
 8815TIP3    H147860   1.264   5.605  12.768  0.9737 -3.0492 -1.3681
 8815TIP3    H247861   1.354   5.586  12.888  0.1122  0.9104  0.0329
 8816TIP3   OH247862   2.967   6.752   2.531  0.0051 -0.4062  0.1258
 8816TIP3    H147863   2.989   6.715   2.446  0.4133  1.9502 -0.8681
 8816TIP3    H247864   3.041   6.730   2.587  1.2302  0.6403 -1.0172
 8817TIP3   OH247865   3.953   0.834  15.622 -0.8194 -0.2370  0.3420
 8817TIP3    H147866   3.928   0.801  15.708 -1.6212 -2.0044 -0.5045
 8817TIP3    H247867   3.946   0.757  15.564  0.7581  0.6288 -1.0958
 8818TIP3   OH247868   0.404   6.618   1.676 -0.2189 -0.1142  0.4398
 8818TIP3    H147869   0.323   6.567   1.681 -1.1125  1.0353 -1.3161
 8818TIP3    H247870   0.386   6.695   1.731 -0.2529  0.0497  0.1998
 8819TIP3   OH247871   6.524   0.830  14.820  0.4126  0.2560  0.1820
 8819TIP3    H147872   6.560   0.916  14.797  0.2034  0.6235  1.2110
 8819TIP3    H247873   6.590   0.768  14.789  0.7683  0.8029 -0.1767
 8820TIP3   OH247874   0.272   5.026   4.975 -0.6251 -0.2356 -0.3915
 8820TIP3    H147875   0.184   4.992   4.989 -0.1584 -1.0080  0.8958
 8820TIP3    H247876   0.300   5.055   5.062  0.2928  0.2293 -0.8305
 8821TIP3   OH247877   0.543   3.994  15.160 -0.0024 -0.0264 -0.1187
 8821TIP3    H147878   0.623   3.943  15.143  0.2776  0.1038  0.7399
 8821TIP3    H247879   0.575   4.079  15.190 -0.4724  0.1567 -0.1358
 8822TIP3   OH247880   5.203   6.167  11.290  0.2870 -0.4436  0.1779
 8822TIP3    H147881   5.296   6.146  11.290  0.3534 -0.1528 -0.4178
 8822TIP3    H247882   5.159   6.084  11.305  0.6511 -0.5230  0.8672
 8823TIP3   OH247883   6.463   1.618  14.809 -0.0857  0.5243 -0.2979
 8823TIP3    H147884   6.435   1.585  14.723 -0.4863  0.6362 -0.2094
 8823TIP3    H247885   6.471   1.539  14.863 -1.9681  0.6158  0.1867
 8824TIP3   OH247886   0.799   0.112  10.613 -0.0028 -0.0800  0.1524
 8824TIP3    H147887   0.887   0.087  10.588  0.3459  0.7852  0.4769
 8824TIP3    H247888   0.808   0.199  10.651 -0.8274 -0.4300  1.2272
 8825TIP3   OH247889   1.081   6.434  16.806  0.0955 -0.0710 -0.4517
 8825TIP3    H147890   1.102   6.499  16.740 -1.8071  0.7014 -0.3647
 8825TIP3    H247891   0.989   6.412  16.790  0.3954 -2.0015  0.1585
 8826TIP3   OH247892   3.786   0.540   4.449  0.2793  0.4970 -0.2935
 8826TIP3    H147893   3.799   0.458   4.496  1.9002  0.5543 -0.5622
 8826TIP3    H247894   3.694   0.562   4.464  0.3773 -0.1794  1.7079
 8827TIP3   OH247895   2.993   5.211   2.541 -0.2186 -0.4444  0.3333
 8827TIP3    H147896   3.041   5.286   2.579 -1.0788  0.0113  0.5348
 8827TIP3    H247897   2.934   5.250   2.477 -0.4555 -0.9955  0.2109
 8828TIP3   OH247898   1.209   0.733  14.750  0.7098 -0.3917 -0.5606
 8828TIP3    H147899   1.278   0.769  14.805 -0.1656  0.9332 -0.2688
 8828TIP3    H247900   1.154   0.683  14.810 -0.3045  1.1398 -0.1433
 8829TIP3   OH247901   1.272   1.098  17.229  0.2499 -0.2013  0.1476
 8829TIP3    H147902   1.212   1.156  17.276 -2.1096 -1.9690 -0.5068
 8829TIP3    H247903   1.291   1.144  17.148  2.7555  1.9693  1.7896
 8830TIP3   OH247904   5.939   0.869   3.840 -0.0401 -0.5362  0.0159
 8830TIP3    H147905   5.886   0.924   3.782 -0.4434 -0.2187  0.6740
 8830TIP3    H247906   6.026   0.869   3.800 -0.2689 -0.1802 -0.4949
 8831TIP3   OH247907   4.088   3.511  11.373 -0.2951  0.2185  0.4154
 8831TIP3    H147908   4.171   3.555  11.393 -0.3272  0.5075 -0.0641
 8831TIP3    H247909   4.111   3.419  11.364 -0.1132  0.2263  0.7745
 8832TIP3   OH247910   1.071   5.970  12.436  0.6426 -1.0245  0.6753
 8832TIP3    H147911   1.024   6.048  12.406 -1.0369 -2.2592 -0.0226
 8832TIP3    H247912   1.056   5.969  12.531  1.9848  0.2963  0.9466
 8833TIP3   OH247913   1.024   0.656  11.701  0.0380 -0.1247 -0.0915
 8833TIP3    H147914   0.954   0.702  11.746 -0.4655  0.7926 -1.7215
 8833TIP3    H247915   1.104   0.702  11.727 -0.0336 -0.6844  1.1649
 8834TIP3   OH247916   4.475   3.898  10.409 -0.0401  0.2291 -0.4450
 8834TIP3    H147917   4.460   3.808  10.380  1.3167 -0.4302  0.8133
 8834TIP3    H247918   4.569   3.903  10.424 -0.1216  1.8195 -0.3236
 8835TIP3   OH247919   1.730   3.401   5.245 -0.2731  0.2485 -0.4854
 8835TIP3    H147920   1.756   3.404   5.153  0.9216 -1.0508 -0.2139
 8835TIP3    H247921   1.727   3.308   5.266 -0.3953  0.5391  0.8322
 8836TIP3   OH247922   6.237   1.061  17.220  0.4891 -0.4589 -0.2717
 8836TIP3    H147923   6.156   1.094  17.181  0.5013 -1.7393 -1.4641
 8836TIP3    H247924   6.213   1.037  17.309  0.0790  1.1081  0.0759
 8837TIP3   OH247925   1.102   1.528   3.223  0.1035  0.1430 -0.4093
 8837TIP3    H147926   1.104   1.540   3.318  1.5339 -0.8235 -0.2913
 8837TIP3    H247927   1.180   1.477   3.203 -0.4307 -0.1015 -2.0611
 8838TIP3   OH247928   1.535   5.576   1.970 -0.3755 -0.2196 -0.3058
 8838TIP3    H147929   1.460   5.546   1.918 -0.5873 -0.8814  0.3708
 8838TIP3    H247930   1.611   5.561   1.913 -0.3410 -3.0084  0.3180
 8839TIP3   OH247931   1.059   5.372   0.862  0.3569 -0.2738 -0.1897
 8839TIP3    H147932   0.965   5.354   0.862  0.2483  0.0160 -2.5388
 8839TIP3    H247933   1.098   5.299   0.814  0.8366  1.4178 -2.5605
 8840TIP3   OH247934   4.376   2.339  13.490  0.5435 -0.3765 -0.2950
 8840TIP3    H147935   4.352   2.321  13.399  0.2807  0.6305 -0.4406
 8840TIP3    H247936   4.400   2.431  13.490  0.5533 -0.3726  0.6580
 8841TIP3   OH247937   4.669   0.985  15.303 -0.2299  0.5133 -0.1661
 8841TIP3    H147938   4.578   0.958  15.315 -0.4819  1.8396  1.1389
 8841TIP3    H247939   4.720   0.916  15.345 -0.4276 -1.4725 -2.9044
 8842TIP3   OH247940   6.456   2.240   4.506 -0.1563  0.3837 -0.5760
 8842TIP3    H147941   6.504   2.194   4.437 -1.0378  0.3728 -1.1959
 8842TIP3    H247942   6.365   2.241   4.476 -0.2222  2.2889 -0.4518
 8843TIP3   OH247943   3.994   4.633   5.014  0.2235 -0.2362 -0.5346
 8843TIP3    H147944   4.004   4.558   5.072  0.8673 -0.0933 -0.4490
 8843TIP3    H247945   4.079   4.640   4.969  0.8680  1.5363  0.8089
 8844TIP3   OH247946   1.183   1.709  13.336 -0.1678 -0.6982 -0.5553
 8844TIP3    H147947   1.100   1.740  13.300 -0.8118 -2.0655 -0.3322
 8844TIP3    H247948   1.183   1.738  13.427 -0.9714 -1.6922 -0.2200
 8845TIP3   OH247949   0.711   4.067  13.748  0.3833  0.4614 -0.4079
 8845TIP3    H147950   0.676   4.147  13.787 -1.0768 -0.0296 -0.6443
 8845TIP3    H247951   0.783   4.042  13.805  2.3660  3.1163 -1.5529
 8846TIP3   OH247952   3.506   5.872   2.351 -0.5121  0.0742 -0.2389
 8846TIP3    H147953   3.595   5.877   2.387 -1.0661  0.8553  1.0757
 8846TIP3    H247954   3.469   5.792   2.390 -0.6891  0.2396 -0.0670
 8847TIP3   OH247955   5.648   4.865  13.246  0.2155  0.3639  0.2409
 8847TIP3    H147956   5.679   4.775  13.230  1.9733  0.8995  0.3693
 8847TIP3    H247957   5.555   4.856  13.266 -0.6764 -1.0626 -3.6716
 8848TIP3   OH247958   0.879   3.029  15.902 -0.7867  1.0663  0.1093
 8848TIP3    H147959   0.932   3.051  15.825 -0.3407  2.4916  0.7774
 8848TIP3    H247960   0.940   3.034  15.975 -1.0725 -0.8595  0.5339
 8849TIP3   OH247961   3.072   2.108   1.530  0.8580 -0.1177  0.0157
 8849TIP3    H147962   3.063   2.193   1.487 -0.9495  0.2354  0.9887
 8849TIP3    H247963   3.086   2.129   1.622  1.4249 -0.8793  0.1099
 8850TIP3   OH247964   2.897   2.735   5.947  0.2422  0.3231 -0.2596
 8850TIP3    H147965   2.906   2.648   5.908  0.2417 -0.1453  0.7524
 8850TIP3    H247966   2.914   2.796   5.875  0.2272 -0.5120 -0.9813
 8851TIP3   OH247967   4.767   2.850   0.513  0.9322  0.1031 -0.1635
 8851TIP3    H147968   4.827   2.875   0.584 -0.6389 -2.2241  2.1687
 8851TIP3    H247969   4.792   2.760   0.491  1.1011  0.6329 -2.3363
 8852TIP3   OH247970   3.995   6.558  15.311  0.2821  0.7688  0.1625
 8852TIP3    H147971   4.001   6.476  15.360 -0.4071  2.0534  2.6366
 8852TIP3    H247972   4.080   6.569  15.270  0.6814 -0.7602  0.5426
 8853TIP3   OH247973   1.678   2.524   1.697  0.4074 -0.2723  0.4654
 8853TIP3    H147974   1.689   2.530   1.602 -0.5582  0.1428  0.3707
 8853TIP3    H247975   1.756   2.477   1.727 -0.1185 -2.0206 -0.7292
 8854TIP3   OH247976   1.467   6.524   3.808 -0.3446  0.1918 -0.2547
 8854TIP3    H147977   1.536   6.588   3.827  0.2428  0.0575 -1.7860
 8854TIP3    H247978   1.476   6.458   3.876 -1.0958  1.7978  1.4919
 8855TIP3   OH247979   5.198   4.974  12.437 -0.2358 -0.4682  0.0446
 8855TIP3    H147980   5.258   5.018  12.377 -1.7897  2.2517  0.3123
 8855TIP3    H247981   5.124   4.948  12.382 -0.3523 -0.6836  0.2992
 8856TIP3   OH247982   1.086   1.704   1.335  0.2898 -0.6453  0.2144
 8856TIP3    H147983   0.997   1.687   1.305  0.1284  1.1442 -0.4674
 8856TIP3    H247984   1.079   1.713   1.430  0.0806 -2.2418  0.3784
 8857TIP3   OH247985   3.097   0.824  11.324  0.1425  0.3035  0.1124
 8857TIP3    H147986   3.124   0.756  11.262 -0.8145 -0.8227  0.8703
 8857TIP3    H247987   3.008   0.847  11.296  0.4752  1.2920 -0.1593
 8858TIP3   OH247988   1.182   5.896  16.636  0.5182  0.2892  0.4766
 8858TIP3    H147989   1.126   5.954  16.687 -1.7356  0.5717 -2.1076
 8858TIP3    H247990   1.266   5.940  16.632 -0.8569  2.9895 -0.6462
 8859TIP3   OH247991   5.584   4.472   4.660  0.2481  0.2062  0.7320
 8859TIP3    H147992   5.637   4.393   4.665  0.3255 -0.0181 -2.1803
 8859TIP3    H247993   5.494   4.443   4.677 -0.1558 -1.1751 -2.8629
 8860TIP3   OH247994   4.798   1.940  15.346 -0.2669 -0.5208 -0.1613
 8860TIP3    H147995   4.803   1.849  15.376  4.0999 -0.5656 -0.4066
 8860TIP3    H247996   4.858   1.945  15.272 -1.0264  2.4292 -0.7181
 8861TIP3   OH247997   1.354   2.546   4.012 -0.1766 -0.6126  0.6047
 8861TIP3    H147998   1.299   2.476   3.978  0.4903 -0.9167  0.1550
 8861TIP3    H247999   1.296   2.623   4.012 -0.1773 -0.5811 -1.2666
 8862TIP3   OH248000   1.609   6.430   1.583 -0.2095  0.3137 -0.4757
 8862TIP3    H148001   1.606   6.509   1.637  3.9313  1.0218 -0.9724
 8862TIP3    H248002   1.654   6.366   1.638 -0.1565 -0.4744 -1.4189
 8863TIP3   OH248003   5.392   6.453  11.665  0.6520 -1.1346 -0.5507
 8863TIP3    H148004   5.334   6.400  11.610  1.1691 -2.1637 -0.1100
 8863TIP3    H248005   5.408   6.532  11.613 -1.2462 -0.7446 -0.6305
 8864TIP3   OH248006   0.144   3.318  16.691 -0.8107 -0.4812 -0.2934
 8864TIP3    H148007   0.136   3.290  16.783 -0.2210  1.6727  0.4732
 8864TIP3    H248008   0.228   3.283  16.662 -0.9209 -1.0264  0.0237
 8865TIP3   OH248009   4.881   6.277   1.597 -0.5553 -0.1449  0.3468
 8865TIP3    H148010   4.825   6.266   1.674 -0.9942  1.7581  0.3485
 8865TIP3    H248011   4.902   6.370   1.596  1.7516 -0.6125 -0.2798
 8866TIP3   OH248012   6.416   1.479   3.229 -0.0240  0.5841 -0.0330
 8866TIP3    H148013   6.437   1.404   3.173 -1.8693  0.0134 -0.0400
 8866TIP3    H248014   6.391   1.440   3.313  0.1721  1.2794  0.3588
 8867TIP3   OH248015   2.359   4.087   4.835  0.1319 -0.4725  0.0553
 8867TIP3    H148016   2.354   4.000   4.796  0.1834 -0.2234 -0.5174
 8867TIP3    H248017   2.443   4.089   4.881  0.2933 -0.5988 -0.2368
 8868TIP3   OH248018   2.388   0.325   1.696 -0.4224 -0.2775 -0.0649
 8868TIP3    H148019   2.355   0.300   1.782 -0.4863  0.7266  0.2158
 8868TIP3    H248020   2.481   0.339   1.710 -0.5807  0.7010  0.0352
 8869TIP3   OH248021   0.895   3.086   0.424  0.0443  0.0331 -0.1035
 8869TIP3    H148022   0.977   3.111   0.380 -0.8825 -1.2208 -2.7970
 8869TIP3    H248023   0.915   3.002   0.466  0.3811  0.1933  0.0637
 8870TIP3   OH248024   5.806   1.799   1.065 -0.4902 -0.1608 -0.2780
 8870TIP3    H148025   5.750   1.866   1.025 -2.7235 -1.0379  1.1457
 8870TIP3    H248026   5.846   1.844   1.140 -3.0829 -0.6211  1.5253
 8871TIP3   OH248027   5.127   1.081  16.033 -0.4058 -0.1432 -0.5883
 8871TIP3    H148028   5.155   0.994  16.004 -1.9604 -0.6593 -0.6321
 8871TIP3    H248029   5.176   1.141  15.977  2.3311 -0.8688  0.8636
 8872TIP3   OH248030   4.423   2.595  17.252  0.3415  0.0804 -0.0904
 8872TIP3    H148031   4.411   2.508  17.216  0.0792 -0.4372  1.1884
 8872TIP3    H248032   4.516   2.614  17.238  0.0681  0.2837 -1.8007
 8873TIP3   OH248033   3.102   6.010   0.024  0.6417 -0.0240 -0.3228
 8873TIP3    H148034   3.085   6.078   0.090 -1.1397  0.1030 -0.8439
 8873TIP3    H248035   3.048   6.036  -0.051 -0.0997 -1.9903 -0.5381
 8874TIP3   OH248036   2.543   4.699   2.178  0.1194  0.3327 -0.0566
 8874TIP3    H148037   2.631   4.689   2.141  0.2576 -1.7652  0.6869
 8874TIP3    H248038   2.556   4.754   2.255  0.2271  2.6153 -1.6192
 8875TIP3   OH248039   4.069   3.803  11.386 -0.3362  0.0079  0.1308
 8875TIP3    H148040   4.037   3.732  11.442  1.2504 -0.6627  0.2211
 8875TIP3    H248041   3.999   3.869  11.389 -1.0496 -0.7734  1.4785
 8876TIP3   OH248042   5.383   3.614   2.293 -0.1505 -0.3681 -0.4186
 8876TIP3    H148043   5.465   3.648   2.260  0.1705 -1.3214 -0.6262
 8876TIP3    H248044   5.401   3.522   2.313  0.1269  0.3854  3.7434
 8877TIP3   OH248045   0.818   0.238   0.123  0.4295 -0.0329 -0.2751
 8877TIP3    H148046   0.725   0.215   0.126  0.5060 -0.2186  1.0235
 8877TIP3    H248047   0.819   0.333   0.132  0.4204 -0.1748  1.5804
 8878TIP3   OH248048   5.860   4.412  15.064  0.1130 -0.3114 -0.4314
 8878TIP3    H148049   5.821   4.486  15.110 -0.5232 -0.3891 -0.8385
 8878TIP3    H248050   5.937   4.389  15.116 -0.6664 -0.4922  0.6723
 8879TIP3   OH248051   3.982   4.845   1.434  0.3025 -0.2312  0.4154
 8879TIP3    H148052   4.066   4.858   1.390  0.5448 -0.6312  0.7628
 8879TIP3    H248053   4.004   4.834   1.526  0.0491 -2.2744  0.2719
 8880TIP3   OH248054   0.751   1.928  11.938  0.4334 -0.0513  0.2279
 8880TIP3    H148055   0.823   1.910  11.998 -0.3566 -1.6071  0.7789
 8880TIP3    H248056   0.760   2.020  11.916  3.2461 -0.4439 -0.6348
 8881TIP3   OH248057   4.194   0.644  17.183 -0.1116  0.0766  0.1767
 8881TIP3    H148058   4.241   0.727  17.175  0.4388 -0.3337 -1.1143
 8881TIP3    H248059   4.262   0.577  17.170 -0.7736 -0.5478 -0.1145
 8882TIP3   OH248060   0.821   1.679  14.755 -0.5170 -0.0122  0.6962
 8882TIP3    H148061   0.828   1.758  14.808 -0.7778  1.1312 -0.9140
 8882TIP3    H248062   0.828   1.710  14.665 -1.4395 -1.7259 -0.0054
 8883TIP3   OH248063   1.752   1.410   1.433  0.0473 -0.2880 -0.1201
 8883TIP3    H148064   1.732   1.503   1.424  1.3624  0.0619  0.4506
 8883TIP3    H248065   1.718   1.386   1.520  0.5821 -0.0964  0.1457
 8884TIP3   OH248066   0.035   0.576  14.137  0.1788  0.0541 -0.0625
 8884TIP3    H148067   0.008   0.490  14.103 -0.8095  0.8604 -1.4231
 8884TIP3    H248068  -0.046   0.628  14.135  0.5678  0.7874  1.5630
 8885TIP3   OH248069   0.405   0.444   0.932 -0.1376  0.1321  0.3098
 8885TIP3    H148070   0.465   0.476   1.000  0.2269  0.4246 -0.1488
 8885TIP3    H248071   0.360   0.370   0.974 -0.5424  0.8412  1.1666
 8886TIP3   OH248072   6.592   3.709  14.353 -0.4122  0.0361  0.0984
 8886TIP3    H148073   6.501   3.680  14.350 -0.6550  0.7393  0.3774
 8886TIP3    H248074   6.590   3.797  14.316  0.0057  0.3891  0.8830
 8887TIP3   OH248075   4.409   2.145   5.577 -0.8398  0.2234 -0.3550
 8887TIP3    H148076   4.436   2.091   5.504 -0.2596  0.2896 -0.1951
 8887TIP3    H248077   4.457   2.227   5.566 -0.2032 -0.0159  0.4682
 8888TIP3   OH248078   0.471   0.312   1.181  0.2905 -0.0743 -0.0599
 8888TIP3    H148079   0.551   0.291   1.229  0.4922 -0.0035 -0.3667
 8888TIP3    H248080   0.402   0.265   1.228  0.3014  0.9808  1.0510
 8889TIP3   OH248081   5.123   3.999  17.069  0.5011 -0.6409  1.0823
 8889TIP3    H148082   5.190   4.037  17.125  0.2319 -1.3026  1.8758
 8889TIP3    H248083   5.054   4.065  17.064 -0.2013 -1.1737  2.8798
 8890TIP3   OH248084   0.986   5.534   6.512 -0.4218 -0.6103 -0.3191
 8890TIP3    H148085   0.985   5.589   6.590 -0.2575 -2.1911  0.8439
 8890TIP3    H248086   0.901   5.549   6.470 -0.9767 -0.6033  0.7849
 8891TIP3   OH248087   2.304   4.689   0.995 -0.0345  0.0625 -0.1582
 8891TIP3    H148088   2.239   4.701   0.926 -0.1168  0.9704  0.0664
 8891TIP3    H248089   2.282   4.604   1.034  0.1452 -0.5550 -1.3726
 8892TIP3   OH248090   3.740   3.154  15.480 -0.7573  0.2279  0.7016
 8892TIP3    H148091   3.794   3.076  15.473 -2.6169 -1.1454  1.0717
 8892TIP3    H248092   3.762   3.205  15.402  0.3897 -0.7162  0.3799
 8893TIP3   OH248093   6.328   2.225  13.006 -0.2443  0.1173  0.3800
 8893TIP3    H148094   6.300   2.315  13.022 -0.4205 -0.1751  1.8739
 8893TIP3    H248095   6.279   2.173  13.071  0.3247 -0.9746 -0.0384
 8894TIP3   OH248096   4.148   3.305  15.712 -0.1060 -0.8375 -0.0297
 8894TIP3    H148097   4.106   3.221  15.695  1.4249 -1.6754  0.1740
 8894TIP3    H248098   4.236   3.296  15.674  0.6280  0.0898  1.3474
 8895TIP3   OH248099   5.563   5.743   1.436 -0.1194 -1.0610  0.1720
 8895TIP3    H148100   5.548   5.660   1.481  0.2358 -0.6982  0.9876
 8895TIP3    H248101   5.482   5.793   1.448 -0.3688 -1.3259 -0.4029
 8896TIP3   OH248102   1.837   1.063  12.958 -0.2949 -0.1146 -0.2580
 8896TIP3    H148103   1.743   1.077  12.962 -0.5189 -0.5136 -2.4751
 8896TIP3    H248104   1.861   1.030  13.045 -2.0679  0.6170  0.5456
 8897TIP3   OH248105   1.212   3.397   2.458  0.0130  0.3005 -0.6310
 8897TIP3    H148106   1.303   3.371   2.475 -0.4080 -0.3730  0.7565
 8897TIP3    H248107   1.203   3.481   2.502 -0.2665 -0.0546  0.0059
 8898TIP3   OH248108   0.782   5.760  12.364  0.3752 -0.1909  0.2908
 8898TIP3    H148109   0.804   5.714  12.445 -0.2070  0.2940  0.7382
 8898TIP3    H248110   0.732   5.836  12.393 -0.8510 -0.6298 -0.5973
 8899TIP3   OH248111   0.587   2.465  13.665  0.1336 -0.2359  0.0438
 8899TIP3    H148112   0.508   2.511  13.693 -1.7448 -2.2026 -1.6912
 8899TIP3    H248113   0.593   2.389  13.722  0.6663 -0.2063  0.0356
 8900TIP3   OH248114   0.183   2.729   0.036 -0.6372  0.7362 -0.3556
 8900TIP3    H148115   0.191   2.816   0.076  0.0451  0.0141  1.1416
 8900TIP3    H248116   0.251   2.728  -0.031 -1.0449  1.5659 -0.7987
 8901TIP3   OH248117   2.693   1.258   4.080 -0.9139 -0.6216  0.0367
 8901TIP3    H148118   2.752   1.188   4.052  0.4063  0.7772 -0.8348
 8901TIP3    H248119   2.719   1.334   4.029 -2.1192  0.6099  1.1446
 8902TIP3   OH248120   5.341   0.646   1.162 -0.7097 -0.0388 -0.1527
 8902TIP3    H148121   5.358   0.554   1.140 -1.0594  0.0347 -0.7457
 8902TIP3    H248122   5.420   0.692   1.138 -0.7766 -0.0871 -0.4662
 8903TIP3   OH248123   1.344   1.251   4.668 -0.1712 -0.5310 -0.0272
 8903TIP3    H148124   1.250   1.239   4.685  0.2101 -2.1704  1.1059
 8903TIP3    H248125   1.384   1.254   4.755  1.0032 -1.5020 -0.5097
 8904TIP3   OH248126   0.209   3.680  14.353  0.1933 -0.3226  0.4943
 8904TIP3    H148127   0.227   3.754  14.295 -0.0126 -0.9112 -0.3405
 8904TIP3    H248128   0.248   3.704  14.437  0.6900  0.4487  0.0450
 8905TIP3   OH248129   2.780   4.353  15.080 -0.6514  0.2326  0.7111
 8905TIP3    H148130   2.773   4.334  15.173  0.3379 -1.4420  0.4715
 8905TIP3    H248131   2.691   4.380  15.054 -1.3749 -1.0322  1.7699
 8906TIP3   OH248132   5.683   5.772   3.352 -0.1723 -0.7435  0.0279
 8906TIP3    H148133   5.746   5.799   3.419 -1.5742 -0.1186  1.1507
 8906TIP3    H248134   5.694   5.835   3.281 -0.4674  0.2352  0.8211
 8907TIP3   OH248135   4.690   3.789   1.162 -0.2599 -0.2144 -0.3448
 8907TIP3    H148136   4.778   3.754   1.147 -0.7233 -1.1942 -0.8699
 8907TIP3    H248137   4.639   3.761   1.086 -1.0694  0.1970  0.0297
 8908TIP3   OH248138   3.713   4.778   0.448 -0.2878  0.5254 -0.1809
 8908TIP3    H148139   3.652   4.773   0.521 -0.9090  0.0985 -0.7210
 8908TIP3    H248140   3.758   4.693   0.449 -0.7921  0.2456 -0.7132
 8909TIP3   OH248141   2.518   1.962   4.548 -0.2462 -1.0692 -0.0223
 8909TIP3    H148142   2.428   1.938   4.525  0.1573 -0.8932 -1.9371
 8909TIP3    H248143   2.571   1.892   4.510  0.4494 -1.0520  0.8963
 8910TIP3   OH248144   0.282   6.471  15.068  0.0315  0.4619  0.5832
 8910TIP3    H148145   0.241   6.440  15.149  1.9531  0.5584  1.6448
 8910TIP3    H248146   0.261   6.564  15.064 -1.1775  0.1980  0.2351
 8911TIP3   OH248147   4.168   4.407   6.126  0.0252  0.2333 -0.3457
 8911TIP3    H148148   4.158   4.410   6.222  0.0818  2.5702 -0.3495
 8911TIP3    H248149   4.259   4.433   6.111  0.1153 -0.4607 -1.0429
 8912TIP3   OH248150   2.796   0.155  14.371 -0.4123  0.0105 -0.1066
 8912TIP3    H148151   2.879   0.181  14.413  0.3361 -0.2202 -1.3921
 8912TIP3    H248152   2.804   0.060  14.358 -0.7528  0.0315 -0.4969
 8913TIP3   OH248153   4.737   0.508  14.221 -0.2051 -0.1383 -0.2241
 8913TIP3    H148154   4.687   0.587  14.241 -0.8449 -0.6129  0.0573
 8913TIP3    H248155   4.774   0.525  14.134 -1.6680 -0.1717 -0.8859
 8914TIP3   OH248156   5.579   2.004  12.744  0.1459 -0.3767 -0.4796
 8914TIP3    H148157   5.622   1.921  12.764  1.3495  0.3048 -0.1453
 8914TIP3    H248158   5.638   2.048  12.683 -0.0905  0.5645 -0.0513
 8915TIP3   OH248159   4.525   0.957   2.908  0.0334 -0.9677  0.3346
 8915TIP3    H148160   4.483   1.028   2.859  0.7212 -1.3393 -0.8321
 8915TIP3    H248161   4.617   0.983   2.913  0.3912 -1.9668 -0.5214
 8916TIP3   OH248162   0.284   4.605  15.885  0.3388  0.0513 -0.0390
 8916TIP3    H148163   0.326   4.642  15.962  1.1394 -0.0952 -0.3956
 8916TIP3    H248164   0.340   4.532  15.859 -1.4014 -1.6710  0.8472
 8917TIP3   OH248165   1.035   1.513   4.716 -0.0323 -0.0115 -0.0488
 8917TIP3    H148166   1.021   1.534   4.808  0.1538 -1.3986  0.3215
 8917TIP3    H248167   1.050   1.418   4.715  0.9816  0.1268 -1.3846
 8918TIP3   OH248168   2.354   3.458  14.699 -0.1752  0.1823  0.1325
 8918TIP3    H148169   2.400   3.532  14.740 -0.6368  0.5437  0.0027
 8918TIP3    H248170   2.269   3.456  14.742  0.7355 -1.9091  2.0292
 8919TIP3   OH248171   4.188   2.761   3.825  0.8934 -0.5424  0.2320
 8919TIP3    H148172   4.226   2.674   3.834  0.8594 -0.4597  1.3673
 8919TIP3    H248173   4.107   2.758   3.876  2.0100  0.7748  2.2054
 8920TIP3   OH248174   3.933   0.987   2.052  0.3898 -0.0628  0.3731
 8920TIP3    H148175   3.892   1.031   1.978  3.5229  0.9313 -0.9532
 8920TIP3    H248176   4.000   1.049   2.082  2.4013 -2.3425  0.9084
 8921TIP3   OH248177   0.343   6.573  13.543  0.2368 -0.6830  0.3005
 8921TIP3    H148178   0.422   6.548  13.495 -0.6805  0.0114 -1.7089
 8921TIP3    H248179   0.285   6.609  13.476 -2.6762 -3.1032  1.2905
 8922TIP3   OH248180   2.113   6.159  15.835 -0.0424  0.1917  0.5644
 8922TIP3    H148181   2.043   6.175  15.771  1.1399 -2.4993 -1.5810
 8922TIP3    H248182   2.091   6.076  15.875  0.9589  0.2411  1.2561
 8923TIP3   OH248183   6.398   5.509  12.119 -0.0998  0.6266  0.0189
 8923TIP3    H148184   6.440   5.434  12.163  1.0769 -0.3093 -2.5303
 8923TIP3    H248185   6.467   5.574  12.113  0.1662  0.2416 -1.5142
 8924TIP3   OH248186   1.126   1.369  12.519  0.5058  0.6193  0.6329
 8924TIP3    H148187   1.162   1.453  12.490  0.5022  0.2289 -0.5687
 8924TIP3    H248188   1.191   1.334  12.580  0.2776  1.7035  1.5378
 8925TIP3   OH248189   1.396   4.831  12.786  0.5140  0.1955 -0.0792
 8925TIP3    H148190   1.490   4.836  12.803  0.5863  1.2396 -0.6621
 8925TIP3    H248191   1.356   4.881  12.858  0.2658 -1.4907  1.0117
 8926TIP3   OH248192   4.405   6.268   1.897 -0.3387  0.0188 -0.2655
 8926TIP3    H148193   4.480   6.214   1.872 -0.7373 -0.3289 -0.7425
 8926TIP3    H248194   4.429   6.306   1.981  0.6779  0.5050 -0.7613
 8927TIP3   OH248195   5.965   0.402   0.841  0.1028 -0.7732 -0.0962
 8927TIP3    H148196   5.871   0.419   0.836  0.1018 -0.6121  0.3916
 8927TIP3    H248197   5.973   0.308   0.826  0.0520 -0.4975 -2.1502
 8928TIP3   OH248198   5.907   2.076  14.585 -0.0904 -0.0924 -0.0346
 8928TIP3    H148199   5.831   2.108  14.536 -0.7850 -1.4787  0.0602
 8928TIP3    H248200   5.871   2.009  14.643  1.2034 -0.7809  0.0192
 8929TIP3   OH248201   1.834   6.710  12.626 -0.1804 -0.6003  0.4282
 8929TIP3    H148202   1.928   6.692  12.632  0.0017  0.3287  0.5640
 8929TIP3    H248203   1.793   6.637  12.672  0.5542 -0.2624  1.6846
 8930TIP3   OH248204   5.236   6.008  12.410  0.4540  0.6255 -0.1486
 8930TIP3    H148205   5.144   6.018  12.388  0.2028 -1.2592 -0.1459
 8930TIP3    H248206   5.236   5.976  12.500  1.1520  1.2971  0.1014
 8931TIP3   OH248207   2.568   1.537   3.672  0.2643 -0.1723 -0.2647
 8931TIP3    H148208   2.553   1.630   3.686  0.3275 -0.4155  1.7679
 8931TIP3    H248209   2.639   1.533   3.608  1.7870  1.2417  1.2294
 8932TIP3   OH248210   1.755   1.799   5.208  0.1928  0.1628  0.4591
 8932TIP3    H148211   1.824   1.735   5.226 -0.5753 -0.5364  1.0402
 8932TIP3    H248212   1.791   1.855   5.140  0.2170 -2.0158 -1.4368
 8933TIP3   OH248213   3.226   5.211   0.905  0.4511  0.0975 -0.2016
 8933TIP3    H148214   3.256   5.291   0.863  0.2337  0.6347  0.6576
 8933TIP3    H248215   3.132   5.211   0.893  0.5733 -0.6682 -1.2891
 8934TIP3   OH248216   5.570   4.033   2.961 -0.1367  0.1271  0.3215
 8934TIP3    H148217   5.599   3.943   2.943 -2.1644 -0.4717 -0.2188
 8934TIP3    H248218   5.559   4.036   3.056 -0.6467 -0.4093  0.2865
 8935TIP3   OH248219   2.171   0.733   2.506 -0.1193 -0.9039 -0.2432
 8935TIP3    H148220   2.241   0.676   2.538 -0.7782 -1.1837  0.7445
 8935TIP3    H248221   2.204   0.767   2.423  1.1959 -1.0067  0.2167
 8936TIP3   OH248222   1.625   4.671   3.642  0.2423  0.0582 -0.4895
 8936TIP3    H148223   1.709   4.708   3.614 -0.3447  2.8329  1.1122
 8936TIP3    H248224   1.626   4.678   3.737 -0.7891 -2.3603 -0.2146
 8937TIP3   OH248225   0.438   4.562  14.586 -0.5591 -0.8150  0.4646
 8937TIP3    H148226   0.369   4.577  14.521 -0.5638  2.4376  1.0658
 8937TIP3    H248227   0.492   4.493  14.548 -1.5858 -0.2957 -2.1368
 8938TIP3   OH248228   4.624   6.289   2.100 -0.0530  0.1236 -0.2049
 8938TIP3    H148229   4.569   6.213   2.119  0.3667  0.1039  1.0299
 8938TIP3    H248230   4.713   6.261   2.124  0.1233  0.9556  0.1370
 8939TIP3   OH248231   0.111   6.627   4.164  0.1568  0.6829 -0.2013
 8939TIP3    H148232   0.045   6.558   4.151  0.4625  0.3457  0.0255
 8939TIP3    H248233   0.096   6.658   4.253 -0.1195  1.0606 -0.3769
 8940TIP3   OH248234   3.690   0.705   0.960 -0.1282 -0.1715  0.5766
 8940TIP3    H148235   3.693   0.797   0.985  0.0378 -0.5364  2.0240
 8940TIP3    H248236   3.772   0.690   0.912  0.1666  0.2870  0.9286
 8941TIP3   OH248237   0.751   6.077   6.801 -0.5532 -0.3203  0.1513
 8941TIP3    H148238   0.844   6.079   6.824 -0.8295 -0.1306  1.2930
 8941TIP3    H248239   0.734   6.164   6.764 -0.6374  0.2463  1.4649
 8942TIP3   OH248240   1.646   2.383   0.130  0.0256  0.4705 -0.4730
 8942TIP3    H148241   1.734   2.390   0.093  0.5955 -0.7290  0.5743
 8942TIP3    H248242   1.644   2.297   0.171 -0.7735  1.4359  1.6758
 8943TIP3   OH248243   0.169   1.625  12.188  0.0293  0.6213  0.0647
 8943TIP3    H148244   0.090   1.638  12.240 -0.6038  0.1902 -0.7610
 8943TIP3    H248245   0.234   1.594  12.251 -0.3463  1.3156  0.8214
 8944TIP3   OH248246   4.611   0.925   3.586  0.4078  0.4165 -0.3214
 8944TIP3    H148247   4.706   0.914   3.597  0.0172 -1.4493  2.3147
 8944TIP3    H248248   4.585   0.977   3.662 -1.0190 -1.8520  0.8411
 8945TIP3   OH248249   3.516   2.894  14.656  0.0525  0.7099  0.2463
 8945TIP3    H148250   3.529   2.815  14.604  0.7113  0.9366  0.0632
 8945TIP3    H248251   3.488   2.862  14.742 -0.1519  0.3016  0.0280
 8946TIP3   OH248252   6.595   0.075   0.641  0.0055  0.2934  0.4906
 8946TIP3    H148253   6.538   0.104   0.713  0.3960  0.2463  0.8202
 8946TIP3    H248254   6.627  -0.011   0.670  0.1284  0.2544  0.2382
 8947TIP3   OH248255   1.659   5.489   5.107 -0.8963 -0.7087 -0.0318
 8947TIP3    H148256   1.621   5.414   5.152 -0.1877 -0.9039  0.2593
 8947TIP3    H248257   1.753   5.481   5.122 -0.6293 -0.8143 -1.6033
 8948TIP3   OH248258   1.643   6.369  17.260  0.1443 -0.2494  0.2776
 8948TIP3    H148259   1.694   6.317  17.197  0.5187  0.4514 -0.0052
 8948TIP3    H248260   1.634   6.455  17.219  1.1361  0.4912  1.5272
 8949TIP3   OH248261   2.029   2.496  16.163  0.8471  0.7695  0.2687
 8949TIP3    H148262   2.048   2.411  16.204  0.1314  0.1158 -0.7034
 8949TIP3    H248263   2.112   2.521  16.121  0.6862 -0.1627 -0.6530
 8950TIP3   OH248264   4.315   4.143  12.762 -0.1152 -0.1598 -0.4362
 8950TIP3    H148265   4.337   4.233  12.787  0.6279 -0.8572  1.6478
 8950TIP3    H248266   4.398   4.105  12.734 -0.3525 -0.3189 -0.9365
 8951TIP3   OH248267   0.177   2.745   3.583 -0.0496 -0.8044  0.0302
 8951TIP3    H148268   0.163   2.693   3.503 -0.6097  0.6931 -0.8889
 8951TIP3    H248269   0.123   2.823   3.570  0.0166 -0.4321  1.8040
 8952TIP3   OH248270   0.195   4.423  12.406  0.2799  0.5482  0.2711
 8952TIP3    H148271   0.287   4.422  12.433  0.4943  1.3369 -0.4029
 8952TIP3    H248272   0.198   4.425  12.311 -0.4608 -1.4957  0.1433
 8953TIP3   OH248273   2.543   6.479   2.578 -0.5459 -0.0760 -0.6199
 8953TIP3    H148274   2.585   6.488   2.663 -0.8877 -0.3709 -0.4175
 8953TIP3    H248275   2.533   6.384   2.566  0.7592 -0.1137 -1.6092
 8954TIP3   OH248276   1.415   5.055  14.416  0.2856 -0.3993 -1.4873
 8954TIP3    H148277   1.324   5.078  14.400 -0.2356 -1.3384 -0.0587
 8954TIP3    H248278   1.420   4.962  14.398 -0.1807 -1.4022  2.5637
 8955TIP3   OH248279   1.800   5.434   3.658  0.3224 -0.4674 -0.9759
 8955TIP3    H148280   1.783   5.341   3.676 -1.8025 -0.3329 -1.9044
 8955TIP3    H248281   1.773   5.479   3.738 -0.1109 -0.5468 -1.0755
 8956TIP3   OH248282   3.540   0.150   3.340 -0.4040 -0.0910  0.0557
 8956TIP3    H148283   3.609   0.178   3.399  0.2378 -1.7067  0.1043
 8956TIP3    H248284   3.464   0.135   3.396 -0.2546 -0.1044  0.2517
 8957TIP3   OH248285   2.025   3.428   3.358  0.7331 -0.4341 -0.4423
 8957TIP3    H148286   2.049   3.491   3.426 -0.2664  0.6679 -1.0829
 8957TIP3    H248287   1.930   3.434   3.351  0.6653 -1.6766 -0.8576
 8958TIP3   OH248288   3.919   3.081  13.126  0.1331  0.1140  0.1601
 8958TIP3    H148289   3.888   3.126  13.205 -2.0801 -1.4603  0.2853
 8958TIP3    H248290   3.845   3.086  13.065  0.0432 -2.5817 -0.0867
 8959TIP3   OH248291   1.385   4.034   3.780 -0.5073  0.4299 -0.3278
 8959TIP3    H148292   1.384   4.078   3.695  1.0450  1.2256  0.0260
 8959TIP3    H248293   1.295   4.006   3.794 -1.1702  1.9159 -1.4010
 8960TIP3   OH248294   1.560   3.410   3.213 -0.3658  0.1833 -0.1208
 8960TIP3    H148295   1.629   3.372   3.267  0.0210 -0.8029 -1.2649
 8960TIP3    H248296   1.481   3.362   3.237 -0.2440 -0.0821 -0.2477
 8961TIP3   OH248297   1.024   5.887  11.954 -0.3547 -0.2120  0.4026
 8961TIP3    H148298   1.033   5.853  11.865 -1.6412 -0.1779  0.2465
 8961TIP3    H248299   0.938   5.856  11.983  0.6590 -1.5320  2.2105
 8962TIP3   OH248300   5.697   2.228  14.507  0.3562 -0.0994  0.7139
 8962TIP3    H148301   5.635   2.237  14.435  2.0426 -1.7144 -1.0505
 8962TIP3    H248302   5.720   2.317  14.531  0.9179  0.4891 -1.8316
 8963TIP3   OH248303   5.967   5.520  15.460  0.1429  0.2448 -0.2247
 8963TIP3    H148304   5.895   5.459  15.475  0.2029  0.1960 -0.1357
 8963TIP3    H248305   6.043   5.464  15.441  0.4494  0.2518  0.9042
 8964TIP3   OH248306   3.233   6.175  13.351 -0.2057 -0.4185 -0.6828
 8964TIP3    H148307   3.265   6.262  13.374  0.3657 -0.9379  0.5238
 8964TIP3    H248308   3.141   6.189  13.328 -0.0363  0.5438 -0.8208
 8965TIP3   OH248309   5.599   4.910  15.331  0.7381 -0.2672  0.0654
 8965TIP3    H148310   5.592   4.991  15.281  0.2539 -1.1226 -1.3220
 8965TIP3    H248311   5.557   4.844  15.275  0.7241 -1.3915  1.3479
 8966TIP3   OH248312   4.287   2.093  16.517  0.9836 -0.2431 -0.0033
 8966TIP3    H148313   4.212   2.152  16.529  0.3678 -1.1143  0.5373
 8966TIP3    H248314   4.350   2.145  16.467  1.0580  1.3704  1.6481
 8967TIP3   OH248315   4.138   6.516   4.770  0.2888 -0.3423  0.0693
 8967TIP3    H148316   4.050   6.553   4.766 -0.2348 -1.6171 -0.4105
 8967TIP3    H248317   4.140   6.467   4.852  0.3443 -0.8354 -0.2269
 8968TIP3   OH248318   4.251   5.994  13.872 -0.1336  0.1722  0.0209
 8968TIP3    H148319   4.232   6.037  13.955  0.7116 -2.5479  1.7809
 8968TIP3    H248320   4.168   5.997  13.824 -1.1713  0.2861  1.7228
 8969TIP3   OH248321   2.066   0.487   6.430  0.4779 -0.0111 -0.1438
 8969TIP3    H148322   2.015   0.523   6.357  0.4614 -1.1890 -0.7458
 8969TIP3    H248323   2.011   0.417   6.465  0.7338  0.1803  0.6448
 8970TIP3   OH248324   4.552   0.548   1.561  0.2363 -0.2429  0.0385
 8970TIP3    H148325   4.599   0.584   1.636 -0.4229  1.1949 -0.1952
 8970TIP3    H248326   4.522   0.625   1.513  0.1922 -1.1356 -1.4212
 8971TIP3   OH248327   5.384   2.816  13.344  0.2203  0.1773  0.1795
 8971TIP3    H148328   5.342   2.747  13.293  2.1423 -0.6294 -0.4234
 8971TIP3    H248329   5.414   2.879  13.279  1.6411 -0.2625  0.3635
 8972TIP3   OH248330   0.242   5.022  13.570  0.3521 -0.5950 -0.2137
 8972TIP3    H148331   0.189   5.099  13.589 -1.3877 -1.5458 -1.0021
 8972TIP3    H248332   0.249   4.976  13.654 -0.1205 -0.4912 -0.1167
 8973TIP3   OH248333   0.144   1.071  13.337 -0.1004 -0.4499  0.2028
 8973TIP3    H148334   0.194   0.992  13.357 -1.0952 -1.1375  0.0721
 8973TIP3    H248335   0.086   1.082  13.412 -2.2634 -1.7510 -1.1500
 8974TIP3   OH248336   1.581   0.427   4.548  0.1108 -0.7820  0.0356
 8974TIP3    H148337   1.625   0.473   4.620 -1.0451  1.1501 -0.4282
 8974TIP3    H248338   1.488   0.436   4.568 -0.1901 -1.2931 -1.0768
 8975TIP3   OH248339   2.179   1.542   0.240 -0.3524  0.2413 -0.0167
 8975TIP3    H148340   2.105   1.482   0.245 -0.3030  0.2786  2.6340
 8975TIP3    H248341   2.249   1.491   0.201 -1.1019 -0.5301 -0.3966
 8976TIP3   OH248342   3.949   6.179   1.358 -0.0396  0.1251  0.1238
 8976TIP3    H148343   4.032   6.180   1.407 -0.3542  1.0562  0.6668
 8976TIP3    H248344   3.914   6.267   1.369 -0.5483  0.0942 -1.0832
 8977TIP3   OH248345   5.583   5.952  15.639  0.0088  0.1764 -0.2980
 8977TIP3    H148346   5.530   5.907  15.706 -0.3179  1.5028  0.3567
 8977TIP3    H248347   5.673   5.934  15.665 -0.1183  0.1678  0.1501
 8978TIP3   OH248348   5.870   2.606  12.538  0.0847 -0.3485  0.3478
 8978TIP3    H148349   5.902   2.672  12.477  1.6136 -0.5846  0.8599
 8978TIP3    H248350   5.850   2.530  12.483 -1.7949  0.5115 -0.2585
 8979TIP3   OH248351   5.889   4.589   0.506 -0.3346 -0.1969 -0.1737
 8979TIP3    H148352   5.947   4.624   0.438 -0.3587  0.8262  0.3060
 8979TIP3    H248353   5.849   4.667   0.545 -0.2415 -0.7502  1.0852
 8980TIP3   OH248354   0.776   3.536  12.851  0.5910  0.1455  0.5280
 8980TIP3    H148355   0.744   3.495  12.931 -0.9759  0.1554 -0.0576
 8980TIP3    H248356   0.813   3.464  12.800 -0.2640 -0.2039  0.3947
 8981TIP3   OH248357   5.771   5.467  16.835 -0.4547  0.4988 -0.5253
 8981TIP3    H148358   5.855   5.495  16.872 -1.1238  1.0546  0.6170
 8981TIP3    H248359   5.765   5.374  16.859 -1.1231  0.9817  1.2758
 8982TIP3   OH248360   1.402   4.104   2.024  0.0639 -0.0179  1.0490
 8982TIP3    H148361   1.415   4.168   1.954 -0.4000  0.1669  1.1246
 8982TIP3    H248362   1.412   4.019   1.982  0.2962  0.1018  0.8652
 8983TIP3   OH248363   0.355   1.282  14.191  0.5260  0.3513 -0.1168
 8983TIP3    H148364   0.259   1.293  14.188  0.2875  0.5066  3.3689
 8983TIP3    H248365   0.368   1.188  14.203  0.7597  0.4078  0.0750
 8984TIP3   OH248366   1.075   3.077   6.473 -0.0175 -0.1093 -0.0528
 8984TIP3    H148367   1.145   3.020   6.442  1.5631  1.5363  0.3696
 8984TIP3    H248368   1.050   3.040   6.557  0.6639 -0.4406  0.0084
 8985TIP3   OH248369   4.612   0.342  16.374  0.0155  0.5258 -0.0867
 8985TIP3    H148370   4.589   0.434  16.361  0.2903  0.6872  0.5282
 8985TIP3    H248371   4.532   0.302  16.409 -0.4608  0.2721 -1.4159
 8986TIP3   OH248372   0.242   0.773  13.103  0.2932 -0.3422  0.2554
 8986TIP3    H148373   0.204   0.727  13.029  1.0516 -0.8423  0.1644
 8986TIP3    H248374   0.287   0.848  13.064  1.2758 -0.9864  0.1285
 8987TIP3   OH248375   0.226   1.068  12.725  0.0123  0.8579 -0.0945
 8987TIP3    H148376   0.202   1.145  12.777 -0.4193 -0.5657  1.9695
 8987TIP3    H248377   0.321   1.061  12.735 -0.0907  0.4822  0.7229
 8988TIP3   OH248378   5.080   3.660   2.995  0.1439  0.0260  0.4594
 8988TIP3    H148379   5.062   3.731   3.057 -0.2064  1.6698 -1.4043
 8988TIP3    H248380   4.996   3.646   2.950  0.2250 -1.5647  0.7590
 8989TIP3   OH248381   4.460   5.686   5.651  0.0958 -0.3614 -0.1326
 8989TIP3    H148382   4.503   5.761   5.691 -2.5998  1.1844  0.0433
 8989TIP3    H248383   4.492   5.685   5.560  1.6947 -0.3027  0.3922
 8990TIP3   OH248384   6.485   5.669  15.052 -0.4033  0.2404  0.0018
 8990TIP3    H148385   6.511   5.714  15.132 -1.1126 -0.6786  0.7729
 8990TIP3    H248386   6.413   5.612  15.079  1.4570 -2.5494 -0.5656
 8991TIP3   OH248387   5.770   3.161   2.117  0.3350  0.1641  0.3451
 8991TIP3    H148388   5.832   3.093   2.142 -0.7156 -0.6480  0.8340
 8991TIP3    H248389   5.693   3.144   2.172 -0.2862  1.2002 -0.1735
 8992TIP3   OH248390   3.311   6.396  14.967  0.5371  0.1916  0.1152
 8992TIP3    H148391   3.253   6.472  14.974  0.2253  0.2811 -2.4633
 8992TIP3    H248392   3.301   6.351  15.051 -1.4035  1.5159  0.6758
 8993TIP3   OH248393   3.950   4.342  16.486  0.3101  0.1127  0.6105
 8993TIP3    H148394   3.856   4.354  16.498  0.3900  0.7220  0.6694
 8993TIP3    H248395   3.961   4.248  16.469 -0.2229 -0.1032  1.4219
 8994TIP3   OH248396   0.991   4.654  14.172  0.7882  0.1489 -0.1943
 8994TIP3    H148397   0.997   4.739  14.217 -0.9912  0.6409 -0.7981
 8994TIP3    H248398   1.034   4.593  14.232  0.6804  1.2067  1.0167
 8995TIP3   OH248399   2.969   2.343  11.381  0.0073 -0.0571  0.4813
 8995TIP3    H148400   2.939   2.256  11.406 -1.2556  0.6172  1.4079
 8995TIP3    H248401   2.926   2.402  11.443 -0.1992  1.3446 -0.9381
 8996TIP3   OH248402   0.877   5.871   1.646  0.6876  0.2310 -0.3732
 8996TIP3    H148403   0.939   5.807   1.680  1.3721  0.5221 -1.0661
 8996TIP3    H248404   0.848   5.836   1.562  0.9856  0.7788 -0.7090
 8997TIP3   OH248405   1.016   5.897  17.284  0.1996 -0.7283 -0.8914
 8997TIP3    H148406   1.067   5.977  17.294 -0.4612 -0.0149 -2.6906
 8997TIP3    H248407   0.975   5.883  17.369 -0.0302  1.1207 -0.6568
 8998TIP3   OH248408   0.029   4.810  14.925  0.1390  0.5244  0.3030
 8998TIP3    H148409   0.080   4.739  14.965 -0.1877 -0.6121 -1.2283
 8998TIP3    H248410  -0.038   4.765  14.874 -0.1929  1.9457 -0.5535
 8999TIP3   OH248411   6.273   2.849  12.334 -0.2977  0.1207  0.6353
 8999TIP3    H148412   6.268   2.775  12.394  1.7619 -2.3531 -1.9636
 8999TIP3    H248413   6.264   2.810  12.247 -1.2807  3.2519 -0.8265
 9000TIP3   OH248414   2.747   4.264  13.182  0.0246  0.4620  0.8578
 9000TIP3    H148415   2.837   4.278  13.152 -0.5536  1.5004 -0.5587
 9000TIP3    H248416   2.746   4.296  13.272  1.0890  0.3336  0.9266
 9001TIP3   OH248417   0.407   2.813   4.572  1.2067  0.1111 -0.0282
 9001TIP3    H148418   0.425   2.860   4.653  0.9534  0.8186 -0.3790
 9001TIP3    H248419   0.490   2.816   4.524  0.8884  1.1753 -0.5353
 9002TIP3   OH248420   5.576   5.586   3.773  0.1975  0.1070  0.0765
 9002TIP3    H148421   5.603   5.631   3.853  0.0708 -0.0018  0.1812
 9002TIP3    H248422   5.657   5.551   3.736  0.0500 -1.4599  1.1459
 9003TIP3   OH248423   6.256   4.482  17.170 -0.0343  0.1092  0.2354
 9003TIP3    H148424   6.330   4.426  17.149 -1.4556 -2.2583  1.1315
 9003TIP3    H248425   6.209   4.493  17.087 -0.7607 -1.6772  0.3741
 9004TIP3   OH248426   0.116   1.605   2.241 -0.2080 -0.1110 -0.0698
 9004TIP3    H148427   0.170   1.544   2.291  0.7284 -1.4549 -2.5665
 9004TIP3    H248428   0.035   1.613   2.292  1.2188 -0.1647  2.3862
 9005TIP3   OH248429   5.601   0.807   1.522 -0.7970  0.6844 -0.1320
 9005TIP3    H148430   5.683   0.791   1.475 -1.1097  2.4618 -1.4112
 9005TIP3    H248431   5.610   0.896   1.556 -1.2597  0.0246  1.8347
 9006TIP3   OH248432   3.769   0.338  13.027 -0.0847 -0.4517  0.0997
 9006TIP3    H148433   3.796   0.384  12.948  0.4982  0.1096  0.6147
 9006TIP3    H248434   3.677   0.360  13.037  0.0820  0.2471  0.1012
 9007TIP3   OH248435   3.901   0.719  16.291  0.4766 -0.3508  0.0951
 9007TIP3    H148436   3.869   0.629  16.286 -0.3160 -0.0836  0.1854
 9007TIP3    H248437   3.839   0.769  16.238  0.5630  0.2285  0.5295
 9008TIP3   OH248438   1.157   3.649   1.597 -0.1933  0.3553 -0.1746
 9008TIP3    H148439   1.205   3.574   1.634 -0.2679 -0.5716 -1.8333
 9008TIP3    H248440   1.078   3.656   1.651  0.5059  0.1439  0.8875
 9009TIP3   OH248441   4.801   4.652  16.607  0.1397  0.6171 -0.4906
 9009TIP3    H148442   4.778   4.674  16.698  1.2227  1.0975 -0.3182
 9009TIP3    H248443   4.862   4.721  16.580 -1.9015  1.8002 -2.3788
 9010TIP3   OH248444   4.716   6.176   2.446  0.2885  0.1323  0.4497
 9010TIP3    H148445   4.708   6.083   2.469  1.5763 -0.7901 -2.3942
 9010TIP3    H248446   4.674   6.183   2.360  1.8896  1.7523 -0.2522
 9011TIP3   OH248447   2.412   5.449   5.504 -0.4689  0.5022 -0.0919
 9011TIP3    H148448   2.424   5.357   5.527  0.3958  0.1204 -1.9033
 9011TIP3    H248449   2.321   5.456   5.477 -0.0908 -0.2940 -1.7241
 9012TIP3   OH248450   5.333   5.983   4.812 -0.0876 -0.4204 -0.3410
 9012TIP3    H148451   5.386   6.061   4.826  0.5253 -0.4044 -2.5451
 9012TIP3    H248452   5.389   5.910   4.838  0.0368 -0.2587 -0.1537
 9013TIP3   OH248453   1.306   4.762  16.471 -0.5481 -0.2830 -0.2362
 9013TIP3    H148454   1.271   4.756  16.382  0.4794  0.0471 -0.6727
 9013TIP3    H248455   1.390   4.806  16.461 -0.4477 -0.1824  0.9147
 9014TIP3   OH248456   0.214   0.623  11.827 -0.3196  0.0235 -0.7994
 9014TIP3    H148457   0.259   0.707  11.821 -1.7621  0.9065  0.2447
 9014TIP3    H248458   0.238   0.588  11.912 -1.3523  0.3726 -0.3514
 9015TIP3   OH248459   2.971   3.615  14.645 -0.2291  0.2943 -0.0236
 9015TIP3    H148460   3.027   3.592  14.718 -0.6158  1.7203  0.7495
 9015TIP3    H248461   2.902   3.549  14.646  0.7333 -0.7362 -0.2203
 9016TIP3   OH248462   4.620   6.669  16.185  0.3926 -1.0197 -0.0777
 9016TIP3    H148463   4.530   6.646  16.207  0.0936 -0.1494 -0.3599
 9016TIP3    H248464   4.673   6.621  16.249 -0.2640 -1.6096  0.0299
 9017TIP3   OH248465   1.084   4.758  16.738  0.2545 -0.0936  0.1126
 9017TIP3    H148466   1.065   4.795  16.824 -0.1047  0.1131 -0.0547
 9017TIP3    H248467   1.020   4.798  16.680  2.0989  1.7768 -0.7512
 9018TIP3   OH248468   3.674   4.668   1.058  0.4838 -0.3718  0.4187
 9018TIP3    H148469   3.597   4.619   1.029  0.1988  0.5172 -0.4019
 9018TIP3    H248470   3.637   4.738   1.113  0.6971  0.0763 -0.0030
 9019TIP3   OH248471   6.313   4.877  14.151  0.1363  0.2407  0.2272
 9019TIP3    H148472   6.271   4.793  14.171  0.3032  0.1078  0.0324
 9019TIP3    H248473   6.240   4.938  14.139 -0.0289 -0.0849 -0.5314
 9020TIP3   OH248474   5.005   2.757  14.206 -0.1477 -0.0477  0.7632
 9020TIP3    H148475   5.075   2.758  14.271  3.5815 -0.6614 -2.8133
 9020TIP3    H248476   4.955   2.678  14.226  0.9476 -0.3257  2.7153
 9021TIP3   OH248477   3.614   1.080  15.836  0.5348  0.7731  0.2087
 9021TIP3    H148478   3.582   1.149  15.895  2.3589  0.7637  1.2902
 9021TIP3    H248479   3.581   1.105  15.750 -1.1115  1.5113  1.0058
 9022TIP3   OH248480   0.160   4.816  12.144  0.0375 -0.1467  0.3817
 9022TIP3    H148481   0.088   4.840  12.086  0.0166 -0.5960  0.2218
 9022TIP3    H248482   0.166   4.889  12.206 -0.8045 -0.2894  0.6324
 9023TIP3   OH248483   1.056   5.776   6.383  0.3434 -0.6031  0.2801
 9023TIP3    H148484   1.011   5.753   6.465 -0.9087 -1.2635 -0.5606
 9023TIP3    H248485   0.987   5.815   6.329  0.9632 -0.9315 -0.7586
 9024TIP3   OH248486   3.031   5.850  16.475  0.6100  0.2697  0.1577
 9024TIP3    H148487   3.037   5.909  16.551  0.2738 -0.6880  0.9561
 9024TIP3    H248488   2.940   5.819  16.476 -0.1528  2.1124 -2.1271
 9025TIP3   OH248489   4.487   5.365  13.143 -0.5798  0.2983 -1.0797
 9025TIP3    H148490   4.401   5.399  13.119 -0.5169  0.3816 -1.1887
 9025TIP3    H248491   4.520   5.428  13.208 -0.4317  0.4898 -1.3379
 9026TIP3   OH248492   3.683   5.300   2.440 -0.2186  0.1287  0.2484
 9026TIP3    H148493   3.625   5.343   2.377  1.9403  1.4513 -0.9384
 9026TIP3    H248494   3.654   5.209   2.441 -0.1001 -0.0293 -2.9848
 9027TIP3   OH248495   5.410   2.354  15.780  0.5190 -0.1873 -0.0698
 9027TIP3    H148496   5.448   2.377  15.695 -0.7451  0.9452 -0.3624
 9027TIP3    H248497   5.418   2.259  15.785  2.0810 -0.1148 -0.7236
 9028TIP3   OH248498   1.841   2.137  13.100  0.1873  0.0194 -0.1133
 9028TIP3    H148499   1.767   2.140  13.038  1.2985 -1.2685 -1.5953
 9028TIP3    H248500   1.899   2.207  13.070  0.3402 -0.0627 -0.0065
 9029TIP3   OH248501   5.179   0.212   6.528 -0.2642 -0.2577  0.0038
 9029TIP3    H148502   5.127   0.134   6.542 -0.9821 -0.0613 -1.3839
 9029TIP3    H248503   5.142   0.277   6.588  0.3227 -0.9464  1.1435
 9030TIP3   OH248504   0.286   6.497  12.641 -0.0657 -0.4443  0.4726
 9030TIP3    H148505   0.334   6.524  12.720  0.7540 -0.3769 -0.0300
 9030TIP3    H248506   0.337   6.424  12.606 -0.2401 -0.2677 -0.1636
 9031TIP3   OH248507   6.508   4.000  12.749 -0.4064 -0.0040  0.5090
 9031TIP3    H148508   6.566   4.051  12.692 -1.7903  0.1878 -0.7922
 9031TIP3    H248509   6.428   4.052  12.754 -0.6549 -0.4799  1.8931
 9032TIP3   OH248510   5.891   5.410   2.522  0.0805 -0.0803 -0.1225
 9032TIP3    H148511   5.809   5.459   2.534  1.0526  1.6262 -0.1752
 9032TIP3    H248512   5.896   5.354   2.600  0.4101  2.1541  1.5761
 9033TIP3   OH248513   1.350   5.878  13.191  0.1385  0.1173  0.0098
 9033TIP3    H148514   1.277   5.911  13.244  0.2426  0.2584  0.0638
 9033TIP3    H248515   1.335   5.783  13.187 -0.3181  0.2051 -0.3950
 9034TIP3   OH248516   5.880   0.166  12.981 -1.1063  0.1965 -0.4263
 9034TIP3    H148517   5.900   0.258  12.966  1.1755  0.2329  2.0378
 9034TIP3    H248518   5.784   0.161  12.981 -1.2663  2.2303 -2.1020
 9035TIP3   OH248519   2.046   6.652   0.727  0.2411 -0.0913  0.3194
 9035TIP3    H148520   1.980   6.609   0.782 -0.8397 -1.2735 -1.7661
 9035TIP3    H248521   1.995   6.700   0.661  1.3079 -2.0393 -2.1210
 9036TIP3   OH248522   4.218   1.913   5.571  0.2142  0.1607  0.2091
 9036TIP3    H148523   4.213   2.009   5.564  1.2872  0.2292  0.2430
 9036TIP3    H248524   4.274   1.887   5.497 -0.7150 -0.5221 -0.2730
 9037TIP3   OH248525   2.895   6.364   4.556 -0.3051 -0.0430 -0.0468
 9037TIP3    H148526   2.983   6.386   4.524 -0.6988  1.7987 -0.0242
 9037TIP3    H248527   2.907   6.286   4.610  1.1961 -0.2336 -0.6152
 9038TIP3   OH248528   4.969   4.386  17.097 -0.6350 -0.0965 -0.1242
 9038TIP3    H148529   5.060   4.416  17.108 -1.0967  1.9336 -1.4056
 9038TIP3    H248530   4.951   4.336  17.177  1.3966 -0.0064  0.4559
 9039TIP3   OH248531   3.368   2.904   5.034  0.7442  0.2071  0.0840
 9039TIP3    H148532   3.352   2.989   5.075  1.2658  0.0801  0.5703
 9039TIP3    H248533   3.339   2.914   4.944  2.6276  1.5339 -0.4280
 9040TIP3   OH248534   1.767   1.000  12.231  0.5351 -0.2641 -0.5802
 9040TIP3    H148535   1.751   0.919  12.280 -0.8589 -0.1878 -0.8749
 9040TIP3    H248536   1.849   1.033  12.267 -0.3899 -0.2273  1.6915
 9041TIP3   OH248537   5.425   5.506   4.749  0.5108 -0.2538 -0.0397
 9041TIP3    H148538   5.414   5.459   4.832 -2.3659  1.5618  0.7354
 9041TIP3    H248539   5.441   5.597   4.774 -0.7316  0.3963 -1.4516
 9042TIP3   OH248540   6.447   4.122   0.729 -0.0898 -0.0407  0.1795
 9042TIP3    H148541   6.451   4.063   0.653  2.1772 -0.3080  0.4413
 9042TIP3    H248542   6.395   4.196   0.699  0.8218 -0.1049 -1.6783
 9043TIP3   OH248543   3.636   3.431  17.070 -0.2615  0.0392 -0.1771
 9043TIP3    H148544   3.676   3.480  17.142 -0.9065  0.5223 -0.1372
 9043TIP3    H248545   3.711   3.395  17.022  0.2241  0.8161 -0.0257
 9044TIP3   OH248546   3.277   4.013  16.388  1.1381  0.2899  0.1324
 9044TIP3    H148547   3.234   4.095  16.363  2.1548  0.7651 -0.1076
 9044TIP3    H248548   3.370   4.035  16.392  1.3334 -0.6216  1.0207
 9045TIP3   OH248549   1.103   6.087  14.377  0.2706 -0.3258  0.1415
 9045TIP3    H148550   1.061   6.172  14.388  1.5436  0.4395 -0.6935
 9045TIP3    H248551   1.094   6.045  14.463 -2.6799 -0.4954 -0.1284
 9046TIP3   OH248552   2.097   4.142  15.723  0.5383 -0.5847 -0.1049
 9046TIP3    H148553   2.117   4.145  15.629 -0.2517  1.2542 -0.2459
 9046TIP3    H248554   2.183   4.150  15.765  0.7392  0.8246 -0.7053
 9047TIP3   OH248555   0.755   2.266  14.395 -0.0418  0.3507  0.1987
 9047TIP3    H148556   0.768   2.361  14.393  0.6042  0.3227 -3.4357
 9047TIP3    H248557   0.663   2.255  14.416  0.0954  1.6538  1.7426
 9048TIP3   OH248558   3.184   1.666  14.018 -0.0208 -0.5258 -0.1838
 9048TIP3    H148559   3.091   1.689  14.018  0.0757 -0.1200  0.2518
 9048TIP3    H248560   3.228   1.747  13.991  0.2269 -0.6110 -0.0323
 9049TIP3   OH248561   3.063   6.039  16.682  0.0764  0.3272 -0.0652
 9049TIP3    H148562   2.985   6.074  16.725  1.2111  2.3753  0.4767
 9049TIP3    H248563   3.132   6.103  16.702  2.3797 -2.2959  1.0754
 9050TIP3   OH248564   4.212   6.196   5.277  0.1590 -0.1005 -0.1301
 9050TIP3    H148565   4.268   6.273   5.266  0.0972  0.2678  1.6880
 9050TIP3    H248566   4.123   6.231   5.279  0.1751 -0.0710  1.4898
 9051TIP3   OH248567   2.292   0.613  16.445  0.5358  0.2798  0.2404
 9051TIP3    H148568   2.299   0.616  16.350 -0.5193  2.7640  0.1706
 9051TIP3    H248569   2.247   0.530  16.463  0.5893 -0.1384 -1.4263
 9052TIP3   OH248570   5.879   5.364   6.044 -0.2347 -0.7054  0.3697
 9052TIP3    H148571   5.971   5.350   6.064  0.5626  3.0205  0.0314
 9052TIP3    H248572   5.844   5.408   6.122 -1.4827 -1.2462  0.1311
 9053TIP3   OH248573   1.109   2.904   6.835  0.2367  0.2488  0.1817
 9053TIP3    H148574   1.053   2.941   6.903  0.7950  1.3624  0.0546
 9053TIP3    H248575   1.050   2.890   6.761 -0.0779  0.4381  0.3933
 9054TIP3   OH248576   5.720   4.702   5.707 -0.3843 -0.7879 -0.1531
 9054TIP3    H148577   5.799   4.649   5.718 -0.0001 -0.0433  0.8088
 9054TIP3    H248578   5.744   4.788   5.741 -1.0389 -0.0171 -1.5784
 9055TIP3   OH248579   5.478   3.941   3.456  0.1368  0.5790  0.3683
 9055TIP3    H148580   5.512   4.028   3.475 -0.8431  1.0327  0.1228
 9055TIP3    H248581   5.522   3.883   3.519  0.7200  1.2633  0.5993
 9056TIP3   OH248582   2.065   3.768   0.335 -0.0219  0.1595 -0.0694
 9056TIP3    H148583   2.064   3.811   0.421 -0.9272  2.0216 -0.9636
 9056TIP3    H248584   1.973   3.764   0.309  0.2587 -0.1676 -1.0701
 9057TIP3   OH248585   1.314   1.843   3.108  0.1152 -0.0368 -0.6273
 9057TIP3    H148586   1.267   1.911   3.059  1.5371  0.8562 -0.7988
 9057TIP3    H248587   1.393   1.886   3.140  0.9838 -1.5659 -0.6006
 9058TIP3   OH248588   6.506   2.385  14.180 -0.0208 -0.5411  0.0803
 9058TIP3    H148589   6.515   2.479  14.168  0.3860 -0.4163  1.2096
 9058TIP3    H248590   6.567   2.364  14.251 -2.1006 -1.1864  1.8003
 9059TIP3   OH248591   4.132   0.160  17.018  0.1309  0.3666 -0.3494
 9059TIP3    H148592   4.047   0.179  17.058  0.4518 -0.0753  0.5643
 9059TIP3    H248593   4.157   0.242  16.974  0.4017  1.3447  1.5388
 9060TIP3   OH248594   5.971   0.815  14.266  1.1561  0.8260 -0.0554
 9060TIP3    H148595   6.058   0.850  14.248  1.5955  1.1567  2.4086
 9060TIP3    H248596   5.938   0.869  14.337 -1.4991  1.3100 -1.5111
 9061TIP3   OH248597   1.966   3.811   4.056  0.3782 -0.0976 -0.5633
 9061TIP3    H148598   2.033   3.755   4.096 -0.2657  0.3455  1.2259
 9061TIP3    H248599   1.997   3.900   4.069 -0.4995  0.1083  0.1975
 9062TIP3   OH248600   4.851   0.127   3.461  0.0915  0.0562 -0.5279
 9062TIP3    H148601   4.823   0.093   3.376 -3.2207  0.8137  0.1404
 9062TIP3    H248602   4.773   0.122   3.516  1.6313  1.3230  1.9570
 9063TIP3   OH248603   2.226   0.171  15.181  0.4506 -0.0023  0.4703
 9063TIP3    H148604   2.295   0.104  15.190 -0.6858 -1.1372  1.0746
 9063TIP3    H248605   2.151   0.123  15.147 -0.0773  1.2155 -0.1298
 9064TIP3   OH248606   3.638   4.766   6.048  0.0203 -0.0159  0.2294
 9064TIP3    H148607   3.629   4.684   6.098 -0.1771  0.3400  0.7807
 9064TIP3    H248608   3.549   4.800   6.043  0.2863  0.8591  1.1877
 9065TIP3   OH248609   2.096   6.340   0.642  0.5573  1.2764  0.6051
 9065TIP3    H148610   2.079   6.372   0.554  1.7531 -0.0882 -0.1794
 9065TIP3    H248611   2.141   6.413   0.686  0.8726  1.6090 -0.2529
 9066TIP3   OH248612   6.175   6.216  12.183 -0.3012  0.2814 -0.3099
 9066TIP3    H148613   6.233   6.224  12.108  0.8063  1.6564  0.6217
 9066TIP3    H248614   6.089   6.197  12.146  0.4864 -0.4762 -1.8056
 9067TIP3   OH248615   1.279   5.117  15.452 -0.0635  0.1918 -0.3168
 9067TIP3    H148616   1.202   5.122  15.509  1.2988  0.5383  1.6048
 9067TIP3    H248617   1.271   5.033  15.408 -1.3478  0.0577  0.1313
 9068TIP3   OH248618   2.388   5.739   3.975 -0.2657 -0.0296 -0.5426
 9068TIP3    H148619   2.442   5.818   3.979 -2.2618  1.4078  2.5092
 9068TIP3    H248620   2.311   5.765   3.923 -0.6937 -0.0812  0.0488
 9069TIP3   OH248621   2.515   6.251   5.649  0.4587  0.4471  0.3661
 9069TIP3    H148622   2.540   6.177   5.705 -0.9508 -1.5574 -1.5050
 9069TIP3    H248623   2.441   6.291   5.695  0.3847 -0.1271  0.7518
 9070TIP3   OH248624   2.150   5.390   6.811 -0.2619 -1.2995  0.9102
 9070TIP3    H148625   2.195   5.456   6.759 -2.5284 -0.4569 -0.1601
 9070TIP3    H248626   2.216   5.355   6.870  1.3393  0.9464  0.5524
 9071TIP3   OH248627   6.420   6.687  16.794 -0.1768 -0.2001 -0.7064
 9071TIP3    H148628   6.399   6.762  16.850  1.2069 -0.3244  0.0173
 9071TIP3    H248629   6.338   6.669  16.747 -0.8811  0.9894 -0.0005
 9072TIP3   OH248630   5.571   2.834   5.422  0.0180  0.3517 -0.3725
 9072TIP3    H148631   5.626   2.908   5.397  0.2913 -0.6133 -2.9762
 9072TIP3    H248632   5.489   2.848   5.374 -1.1132  0.4511  1.4737
 9073TIP3   OH248633   0.406   5.624   0.360  0.5983  0.2611  0.3737
 9073TIP3    H148634   0.332   5.632   0.300  0.5336 -1.7116  0.1405
 9073TIP3    H248635   0.439   5.535   0.346  1.9227  0.5034  1.7306
 9074TIP3   OH248636   1.546   2.873  17.186  0.0154 -0.2878  0.1137
 9074TIP3    H148637   1.510   2.927  17.116  0.9832  1.1647  0.6865
 9074TIP3    H248638   1.590   2.935  17.244  1.0617 -1.6834  0.8793
 9075TIP3   OH248639   1.611   3.788   5.368 -0.5680 -0.0116 -0.0959
 9075TIP3    H148640   1.674   3.796   5.296  0.3735  0.9493  0.7968
 9075TIP3    H248641   1.543   3.852   5.347 -0.5967 -0.1425 -0.4147
 9076TIP3   OH248642   1.113   2.090   3.302 -0.3491 -0.0680  0.1845
 9076TIP3    H148643   1.188   2.086   3.243  0.5947 -0.1320  1.3404
 9076TIP3    H248644   1.152   2.105   3.388 -1.8329  3.1588  0.4283
 9077TIP3   OH248645   4.137   4.712   3.244 -0.1285  0.0217 -0.0789
 9077TIP3    H148646   4.223   4.686   3.211 -0.9494 -0.1142 -2.3005
 9077TIP3    H248647   4.145   4.805   3.262  0.6401 -0.1169  0.3351
 9078TIP3   OH248648   0.305   5.017   1.215 -0.4472 -0.3047 -0.0831
 9078TIP3    H148649   0.221   5.039   1.175 -0.1232 -0.2929 -0.7578
 9078TIP3    H248650   0.321   4.926   1.190 -0.2794 -0.3211  0.0790
 9079TIP3   OH248651   0.585   6.159  11.897 -0.0402  0.0729  0.9365
 9079TIP3    H148652   0.502   6.122  11.927 -1.2128 -0.2233 -2.2932
 9079TIP3    H248653   0.642   6.083  11.885 -0.6951 -0.2145 -0.6313
 9080TIP3   OH248654   2.017   4.566   0.956 -0.3234  0.4452  0.2732
 9080TIP3    H148655   1.941   4.624   0.964 -0.8696  0.0508 -1.5466
 9080TIP3    H248656   2.007   4.526   0.870  2.4425  1.0846 -0.4429
 9081TIP3   OH248657   4.681   4.285   3.137 -0.5139  0.7081 -0.0712
 9081TIP3    H148658   4.601   4.237   3.114 -0.2450 -1.0940  2.4467
 9081TIP3    H248659   4.747   4.218   3.150  0.6476  1.9743  0.8029
 9082TIP3   OH248660   6.664   5.145  14.501  0.1135 -0.4937  0.0727
 9082TIP3    H148661   6.618   5.155  14.418 -2.2972 -1.8685  1.1434
 9082TIP3    H248662   6.596   5.121  14.564  1.5634  1.8322  2.8084
 9083TIP3   OH248663   2.832   0.947  12.665  0.1450  0.1608 -0.4660
 9083TIP3    H148664   2.849   1.026  12.613  1.0212  0.5728  0.4105
 9083TIP3    H248665   2.864   0.969  12.752 -0.6129 -0.7829  0.0670
 9084TIP3   OH248666   5.275   2.269  11.350  0.1013  0.7178 -0.1654
 9084TIP3    H148667   5.260   2.265  11.256 -0.8809 -0.3665  0.0125
 9084TIP3    H248668   5.250   2.182  11.382 -1.5641  1.7006  1.3679
 9085TIP3   OH248669   2.699   4.740   2.518  0.2862 -0.6401  1.0046
 9085TIP3    H148670   2.716   4.829   2.547 -2.1482  0.8808 -1.6158
 9085TIP3    H248671   2.642   4.703   2.585  0.1858  0.3129  1.4621
 9086TIP3   OH248672   4.695   5.682  12.273  0.1784 -0.8246  0.7193
 9086TIP3    H148673   4.760   5.673  12.343 -0.1045 -0.4640  1.0315
 9086TIP3    H248674   4.611   5.678  12.318 -0.0100  1.4963  0.7126
 9087TIP3   OH248675   3.254   3.762  15.144  0.3444 -0.1387  0.0482
 9087TIP3    H148676   3.216   3.833  15.093  0.1300 -0.3767 -0.1312
 9087TIP3    H248677   3.229   3.781  15.234 -1.9610 -1.3408 -0.2691
 9088TIP3   OH248678   0.365   4.137  12.403  0.4013 -0.4333 -0.2189
 9088TIP3    H148679   0.350   4.067  12.467  1.9215 -0.3759  0.2608
 9088TIP3    H248680   0.286   4.139  12.350 -0.5746 -1.0476  1.1402
 9089TIP3   OH248681   3.310   5.952  11.127  0.1663 -0.2356 -0.4514
 9089TIP3    H148682   3.240   5.888  11.143 -0.8927  1.2766  1.2530
 9089TIP3    H248683   3.268   6.021  11.075  1.3581 -0.9451 -2.4638
 9090TIP3   OH248684   3.489   5.794  12.566  0.2923  0.5499  0.4256
 9090TIP3    H148685   3.485   5.704  12.599 -3.4780  0.0996 -0.6564
 9090TIP3    H248686   3.581   5.819  12.573  1.4257 -3.1960  1.2438
 9091TIP3   OH248687   4.769   4.974  16.830 -0.0881 -0.5109 -0.2865
 9091TIP3    H148688   4.786   5.052  16.775  0.5451  0.3143  1.0336
 9091TIP3    H248689   4.828   4.908  16.795  0.3649  0.0267 -0.5625
 9092TIP3   OH248690   2.237   1.230   2.566 -0.5067 -0.1922  0.1349
 9092TIP3    H148691   2.229   1.251   2.473 -0.9973 -2.0375 -0.2844
 9092TIP3    H248692   2.146   1.228   2.597 -0.3191  0.9088  0.7922
 9093TIP3   OH248693   2.663   3.027   1.429  0.0061 -0.0364  0.6320
 9093TIP3    H148694   2.661   3.003   1.522  0.2049 -0.8881  0.4247
 9093TIP3    H248695   2.723   2.964   1.390  0.1862  0.5295 -0.0229
 9094TIP3   OH248696   1.907   4.012  15.058 -0.0481  0.0040 -0.0260
 9094TIP3    H148697   1.836   3.985  15.116 -0.3031  1.3960  0.3462
 9094TIP3    H248698   1.873   3.998  14.970 -0.3200 -0.4665  0.1490
 9095TIP3   OH248699   1.972   6.669  11.310 -0.0306  0.4595  0.1089
 9095TIP3    H148700   1.943   6.578  11.299 -3.0519  1.1202  1.5140
 9095TIP3    H248701   2.067   6.665  11.297 -0.0547 -2.8392 -0.0979
 9096TIP3   OH248702   0.147   4.326   0.769  0.1633 -0.9797 -0.1927
 9096TIP3    H148703   0.181   4.251   0.817 -0.8438 -3.9203 -3.6015
 9096TIP3    H248704   0.212   4.342   0.700 -0.5947 -0.0581 -0.7255
 9097TIP3   OH248705   2.101   1.490   5.002 -0.3732 -0.2036 -0.0876
 9097TIP3    H148706   2.057   1.560   5.049  0.1513 -0.0006  0.1111
 9097TIP3    H248707   2.162   1.452   5.066 -0.1969 -0.4181 -0.3790
 9098TIP3   OH248708   4.123   5.500  14.548  0.1004 -0.7175 -0.3964
 9098TIP3    H148709   4.046   5.533  14.501  0.0812 -0.0779  0.0762
 9098TIP3    H248710   4.126   5.407  14.526 -0.5335 -0.6487 -0.8009
 9099TIP3   OH248711   4.650   5.680  15.426  0.3590 -0.2129  0.1426
 9099TIP3    H148712   4.557   5.686  15.448  0.1001 -0.3162 -0.8736
 9099TIP3    H248713   4.669   5.760  15.377  0.1269 -1.3643 -1.9592
 9100TIP3   OH248714   5.518   6.657   1.309 -0.1445 -0.2182 -0.6252
 9100TIP3    H148715   5.589   6.598   1.281 -1.2550 -2.0787  0.2374
 9100TIP3    H248716   5.475   6.609   1.380  0.8237  3.0611  2.4415
 9101TIP3   OH248717   0.278   2.971  11.986 -0.1081  0.9111  0.9039
 9101TIP3    H148718   0.364   2.987  12.025 -0.1641  2.5845  0.3990
 9101TIP3    H248719   0.258   3.051  11.937 -1.5745  0.2133  0.2993
 9102TIP3   OH248720   5.579   3.466  10.936  0.1267 -0.8847  0.3300
 9102TIP3    H148721   5.591   3.549  10.889  1.8497 -0.6318  1.1575
 9102TIP3    H248722   5.486   3.466  10.961  0.2578  1.1886  1.0241
 9103TIP3   OH248723   4.273   4.802  14.012  0.1330  0.8919 -0.4400
 9103TIP3    H148724   4.291   4.825  14.103 -0.0927 -2.6481  0.6456
 9103TIP3    H248725   4.359   4.781  13.975 -0.0054 -0.0969 -0.2354
 9104TIP3   OH248726   3.015   2.881   4.161 -0.1818 -0.1636  0.2227
 9104TIP3    H148727   2.931   2.866   4.119 -0.4302 -0.2478  0.7411
 9104TIP3    H248728   3.060   2.796   4.156 -0.0171 -0.0500 -0.2873
 9105TIP3   OH248729   5.516   2.487  10.694 -0.7240 -0.0431 -0.5200
 9105TIP3    H148730   5.510   2.401  10.652  0.8298  0.0648 -1.0026
 9105TIP3    H248731   5.510   2.550  10.622 -0.8676  0.2301 -0.2721
 9106TIP3   OH248732   6.380   4.849  13.407 -0.3360 -0.4336 -0.3554
 9106TIP3    H148733   6.376   4.768  13.458 -0.0288 -0.5332 -0.4896
 9106TIP3    H248734   6.448   4.833  13.342  0.5083  0.3338  0.3112
 9107TIP3   OH248735   2.092   2.745  14.472  0.0210  0.0613 -0.1740
 9107TIP3    H148736   2.136   2.826  14.500 -0.1268  0.2127 -0.3717
 9107TIP3    H248737   2.082   2.755  14.377  2.8299 -1.5822 -0.7457
 9108TIP3   OH248738   6.092   3.346   1.894  0.2895 -0.5202 -0.2187
 9108TIP3    H148739   6.060   3.306   1.814 -0.8078  2.8757 -1.6762
 9108TIP3    H248740   6.187   3.354   1.881  0.0469  0.5737 -1.5515
 9109TIP3   OH248741   3.518   1.243  12.180 -0.5078 -1.0672 -0.0138
 9109TIP3    H148742   3.472   1.315  12.136  0.1429 -0.2697  0.5648
 9109TIP3    H248743   3.452   1.174  12.187 -0.7701 -1.0272 -1.7374
 9110TIP3   OH248744   3.076   5.727  13.789  0.1540 -0.2848 -0.0775
 9110TIP3    H148745   3.030   5.809  13.772 -0.0412 -0.0448  1.4574
 9110TIP3    H248746   3.128   5.712  13.710  1.2021  2.0056  0.0980
 9111TIP3   OH248747   4.158   0.071  12.188  0.0109  0.1069  0.0053
 9111TIP3    H148748   4.132   0.042  12.100 -2.1403 -0.0641  0.6409
 9111TIP3    H248749   4.076   0.075  12.237  0.9028  2.0852  1.4833
 9112TIP3   OH248750   6.511   6.585  12.402  0.0537  0.3007 -0.0580
 9112TIP3    H148751   6.459   6.631  12.467 -1.6715 -0.8260 -0.5803
 9112TIP3    H248752   6.542   6.653  12.343 -0.9241  0.9859  0.2067
 9113TIP3   OH248753   6.131   6.598   5.802  0.0846 -0.6544  0.1951
 9113TIP3    H148754   6.127   6.642   5.717 -0.5454 -0.2158  0.4443
 9113TIP3    H248755   6.044   6.610   5.840  0.4264 -0.6479  1.0002
 9114TIP3   OH248756   0.541   6.760  13.345 -0.3172 -0.0675 -0.1095
 9114TIP3    H148757   0.503   6.832  13.394 -0.4387 -0.0347 -0.2510
 9114TIP3    H248758   0.595   6.803  13.278  1.7412 -0.0891  1.4194
 9115TIP3   OH248759   2.533   3.589   6.115 -0.0486  0.0129 -0.2809
 9115TIP3    H148760   2.448   3.593   6.159  0.1095  0.0041  0.0290
 9115TIP3    H248761   2.572   3.675   6.130  1.1454 -0.8361  1.9121
 9116TIP3   OH248762   2.179   4.170   0.442  0.1482 -0.2782 -0.1930
 9116TIP3    H148763   2.257   4.180   0.496 -0.2589 -2.0651  0.7766
 9116TIP3    H248764   2.110   4.217   0.489  0.2853  0.0159 -0.2838
 9117TIP3   OH248765   6.179   5.133  16.084  0.4367 -0.1278  0.0691
 9117TIP3    H148766   6.200   5.162  16.173 -2.0595 -2.5247  1.6008
 9117TIP3    H248767   6.103   5.186  16.059  0.0086 -0.7038  0.1358
 9118TIP3   OH248768   4.943   3.138  15.136  0.4596  0.2487  0.2770
 9118TIP3    H148769   5.034   3.145  15.108  0.0969  0.3261 -0.9309
 9118TIP3    H248770   4.915   3.052  15.104 -0.4383  1.0092 -1.0717
 9119TIP3   OH248771   4.464   3.223   2.284  0.1498 -0.0090  0.1319
 9119TIP3    H148772   4.473   3.128   2.299  3.3778  0.0737 -0.5218
 9119TIP3    H248773   4.515   3.239   2.204 -0.2878  2.3044  0.2649
 9120TIP3   OH248774   6.691   6.113   2.300  0.2398  0.9206 -0.4624
 9120TIP3    H148775   6.606   6.079   2.330  0.3910  2.3358  1.7480
 9120TIP3    H248776   6.749   6.037   2.302 -0.4353  0.4052  0.2196
 9121TIP3   OH248777   5.074   0.773  16.228 -0.6202 -0.2295 -0.3513
 9121TIP3    H148778   5.053   0.863  16.202 -0.3559  0.7674  2.4886
 9121TIP3    H248779   5.169   0.766  16.219 -0.3802  0.4939  1.1897
 9122TIP3   OH248780   0.751   2.107   2.239  0.2671 -0.5694  0.1498
 9122TIP3    H148781   0.814   2.128   2.170  0.1301 -0.2081  0.1291
 9122TIP3    H248782   0.665   2.121   2.198  0.1901 -0.0459  0.4859
 9123TIP3   OH248783   4.716   5.548   3.419  0.2552 -0.6918 -0.1066
 9123TIP3    H148784   4.756   5.480   3.474  0.1071 -0.3494  0.4372
 9123TIP3    H248785   4.709   5.624   3.477 -0.9912 -0.6811 -0.2387
 9124TIP3   OH248786   1.141   3.986   0.333  0.3454  0.0718 -0.2659
 9124TIP3    H148787   1.182   4.039   0.266 -1.2794 -0.2750 -1.6036
 9124TIP3    H248788   1.047   4.004   0.324  0.1330  1.1609  2.9065
 9125TIP3   OH248789   3.880   3.231  14.658 -0.1582  0.5445  0.0540
 9125TIP3    H148790   3.896   3.281  14.578 -0.3796  0.9959  0.2877
 9125TIP3    H248791   3.801   3.181  14.640  1.5245 -1.8516 -1.1809
 9126TIP3   OH248792   4.035   2.092  15.693 -0.1350  0.0845  0.4315
 9126TIP3    H148793   4.118   2.136  15.711 -0.9708  1.3835  1.2985
 9126TIP3    H248794   3.972   2.163  15.685 -1.0311 -0.8231 -1.1263
 9127TIP3   OH248795   4.695   5.538   1.816  0.2736 -0.5364  0.2369
 9127TIP3    H148796   4.767   5.551   1.878  0.1109  1.7724  0.0317
 9127TIP3    H248797   4.712   5.602   1.746  0.5425 -3.1463 -2.2547
 9128TIP3   OH248798   2.128   1.911  14.566 -0.4135 -0.6564  0.2450
 9128TIP3    H148799   2.094   1.909  14.476  0.9299 -0.3411 -0.2921
 9128TIP3    H248800   2.211   1.957  14.559  0.2157 -1.5453  1.4780
 9129TIP3   OH248801   5.812   3.802   3.823 -0.4345  0.5081  0.0404
 9129TIP3    H148802   5.885   3.768   3.771 -1.6458  0.0799 -1.4785
 9129TIP3    H248803   5.807   3.745   3.899  2.1098  1.8391  1.2961
 9130TIP3   OH248804   6.567   5.453   4.347  0.1412 -0.3683  0.1980
 9130TIP3    H148805   6.514   5.521   4.388 -1.3313 -0.3267 -1.6749
 9130TIP3    H248806   6.630   5.501   4.293 -0.5034 -0.4766 -0.6533
 9131TIP3   OH248807   2.396   3.874  14.353  0.1090 -0.1663  0.0289
 9131TIP3    H148808   2.428   3.901  14.439  0.4627  0.9538 -0.4402
 9131TIP3    H248809   2.458   3.912  14.290 -0.7855  0.0208 -0.7714
 9132TIP3   OH248810   1.667   6.446  12.915  0.1481  0.5240 -0.1874
 9132TIP3    H148811   1.752   6.420  12.879 -0.4553 -1.4873 -0.2969
 9132TIP3    H248812   1.615   6.469  12.839  0.0487 -0.0045 -0.2830
 9133TIP3   OH248813   1.556   2.497  15.134  0.1255  0.0573 -0.1978
 9133TIP3    H148814   1.506   2.440  15.076  1.0738  0.8383 -1.8304
 9133TIP3    H248815   1.625   2.441  15.169 -0.4640 -0.4213  0.2214
 9134TIP3   OH248816   5.211   2.114   0.879  0.4910  1.0798  0.1541
 9134TIP3    H148817   5.202   2.059   0.957 -0.5746  0.6731 -0.2356
 9134TIP3    H248818   5.247   2.196   0.912  0.3508  0.8073  1.0278
 9135TIP3   OH248819   3.306   4.328   4.271  0.3655 -0.2033 -0.1464
 9135TIP3    H148820   3.223   4.305   4.231  0.6645 -0.5476 -0.5805
 9135TIP3    H248821   3.354   4.374   4.202  0.4023  0.2903  0.2092
 9136TIP3   OH248822   1.378   0.759   4.767 -0.5861  0.1785  0.3008
 9136TIP3    H148823   1.435   0.687   4.740 -2.9203 -1.3283 -1.1024
 9136TIP3    H248824   1.395   0.771   4.860  1.3227 -0.7978  0.1194
 9137TIP3   OH248825   1.679   4.461   5.128 -0.1019 -0.4824 -0.0523
 9137TIP3    H148826   1.608   4.461   5.064 -1.5019 -2.2537  1.3694
 9137TIP3    H248827   1.688   4.553   5.153 -3.4160 -0.3537  1.2230
 9138TIP3   OH248828   1.373   0.358   6.950 -0.1040  0.6778  0.2232
 9138TIP3    H148829   1.438   0.297   6.914 -1.1824  0.4103 -1.3432
 9138TIP3    H248830   1.418   0.442   6.950  1.2302  0.0392  1.9440
 9139TIP3   OH248831   4.932   4.043  14.785 -0.1547 -1.1349  0.2149
 9139TIP3    H148832   4.953   4.060  14.876  1.6597 -1.6100 -0.0752
 9139TIP3    H248833   5.014   4.061  14.738 -1.0296 -0.9740 -1.3063
 9140TIP3   OH248834   1.152   6.570  16.584  0.2110 -0.4265  0.5374
 9140TIP3    H148835   1.160   6.604  16.495  0.0192 -1.7007  0.0172
 9140TIP3    H248836   1.127   6.478  16.573 -0.8323 -0.3427  1.9250
 9141TIP3   OH248837   5.536   3.455   5.831 -0.4356 -0.1232 -0.4602
 9141TIP3    H148838   5.621   3.410   5.832 -1.2547 -1.7867 -1.3599
 9141TIP3    H248839   5.540   3.511   5.754 -0.1590 -0.2012 -0.5055
 9142TIP3   OH248840   5.228   2.795   4.105  0.1274  0.0821  0.4200
 9142TIP3    H148841   5.240   2.832   4.017 -0.6007  0.4006  0.4470
 9142TIP3    H248842   5.137   2.817   4.127 -0.0880 -1.0995  0.7344
 9143TIP3   OH248843   6.653   2.127  10.353  0.0024  0.2400  0.3606
 9143TIP3    H148844   6.688   2.178  10.281  1.4318 -0.8117  0.2733
 9143TIP3    H248845   6.564   2.161  10.366  0.2033  1.3475 -0.9934
 9144TIP3   OH248846   0.302   5.498  13.731  0.8623 -0.2572  0.5278
 9144TIP3    H148847   0.236   5.453  13.784  1.3727  1.2574  2.5784
 9144TIP3    H248848   0.379   5.503  13.788  2.6862 -1.6632 -1.6654
 9145TIP3   OH248849   1.114   2.611   1.428  0.2085  0.5921 -0.2596
 9145TIP3    H148850   1.118   2.663   1.508  1.4077  0.2444 -0.0741
 9145TIP3    H248851   1.201   2.572   1.420 -0.2742 -0.3698 -1.0719
 9146TIP3   OH248852   4.583   5.987   5.663  0.0112  0.1860 -0.0350
 9146TIP3    H148853   4.570   5.987   5.568  1.0984  0.0334 -0.2037
 9146TIP3    H248854   4.511   6.039   5.697 -0.5074  0.0775 -0.9318
 9147TIP3   OH248855   6.319   3.469  15.478  0.2060  0.3511  0.3552
 9147TIP3    H148856   6.243   3.505  15.525  1.2471  0.4165  2.0687
 9147TIP3    H248857   6.288   3.385  15.444 -0.5887  0.2962  1.1679
 9148TIP3   OH248858   4.651   4.416  11.752  0.1022 -0.3775  0.0794
 9148TIP3    H148859   4.665   4.464  11.671 -0.6104 -1.0439 -0.4557
 9148TIP3    H248860   4.560   4.433  11.775  0.0329 -0.9272  0.2393
 9149TIP3   OH248861   0.787   4.693   3.520 -0.3577  0.2211 -0.7711
 9149TIP3    H148862   0.844   4.769   3.510 -2.8922  2.4093  0.1593
 9149TIP3    H248863   0.763   4.693   3.613 -1.3623 -0.9991 -1.0043
 9150TIP3   OH248864   4.819   0.629   1.332  0.3454  0.2400  0.4743
 9150TIP3    H148865   4.789   0.682   1.406 -0.5433 -1.1270  1.1399
 9150TIP3    H248866   4.739   0.590   1.297  0.7636  0.7901 -1.1828
 9151TIP3   OH248867   0.907   3.962  14.620 -0.4457  0.3576  0.3282
 9151TIP3    H148868   0.884   3.874  14.589  0.0481  0.5291 -0.5603
 9151TIP3    H248869   0.915   4.014  14.540 -0.6233  1.1916  0.8400
 9152TIP3   OH248870   1.053   0.164   0.716  0.1691  0.7067 -0.0392
 9152TIP3    H148871   1.083   0.253   0.734 -0.9723  1.1083 -0.0542
 9152TIP3    H248872   0.960   0.174   0.695  0.1339 -0.4365 -0.4861
 9153TIP3   OH248873   5.484   4.047   2.627  0.4575  0.1079 -0.4915
 9153TIP3    H148874   5.493   4.017   2.537 -0.3141  1.2368 -0.9618
 9153TIP3    H248875   5.441   3.974   2.673 -1.3232  0.4027 -1.5912
 9154TIP3   OH248876   2.857   1.136   4.801 -0.3105  0.3978  0.0179
 9154TIP3    H148877   2.844   1.111   4.710 -0.6359  0.2184  0.1159
 9154TIP3    H248878   2.921   1.074   4.834 -0.1489  0.4980 -0.1018
 9155TIP3   OH248879   1.644   6.546  13.170 -0.1419 -0.1171 -0.0525
 9155TIP3    H148880   1.593   6.481  13.218  1.7304 -2.3884 -0.9730
 9155TIP3    H248881   1.651   6.511  13.082  0.2718  1.7690 -0.8153
 9156TIP3   OH248882   1.176   0.549   3.900  0.1280 -0.0078  0.2282
 9156TIP3    H148883   1.262   0.522   3.867  0.1395  0.4619 -0.1476
 9156TIP3    H248884   1.191   0.574   3.991  0.2102 -0.7883  0.4349
 9157TIP3   OH248885   1.054   5.863  11.141  0.0973  0.0169  0.1363
 9157TIP3    H148886   1.142   5.901  11.147 -0.3384  1.0548  0.1013
 9157TIP3    H248887   1.054   5.816  11.058  1.2282 -1.6208  0.9983
 9158TIP3   OH248888   3.746   0.048  13.012  0.1276  0.6609 -0.7024
 9158TIP3    H148889   3.760   0.140  12.987 -1.5753  1.7340  1.8758
 9158TIP3    H248890   3.655   0.044  13.040  0.1402 -1.8778 -0.8033
 9159TIP3   OH248891   2.675   4.168  14.503  0.2684  0.1081  0.0642
 9159TIP3    H148892   2.588   4.163  14.463  0.5600 -0.2052 -0.5448
 9159TIP3    H248893   2.728   4.217  14.441  0.2604  1.2758  0.9403
 9160TIP3   OH248894   4.830   2.122  11.373 -0.5629 -0.3184 -0.5170
 9160TIP3    H148895   4.790   2.188  11.429 -0.4852 -1.1420  0.5243
 9160TIP3    H248896   4.913   2.162  11.345 -0.4783 -0.0015  0.1659
 9161TIP3   OH248897   4.004   1.564   1.978  0.6115 -0.2078  0.1527
 9161TIP3    H148898   3.971   1.608   1.900  2.0371  3.2524  1.2895
 9161TIP3    H248899   3.931   1.510   2.008 -1.4708  1.6521 -1.2487
 9162TIP3   OH248900   6.494   2.675  14.748  0.0775  0.0065  0.3952
 9162TIP3    H148901   6.585   2.660  14.772  0.1318 -0.1497  0.1048
 9162TIP3    H248902   6.489   2.768  14.726  0.0718  0.1048  0.8080
 9163TIP3   OH248903   1.997   3.071  13.576 -0.1280  0.0866 -0.1188
 9163TIP3    H148904   2.089   3.048  13.577 -0.2627 -0.5124 -0.7552
 9163TIP3    H248905   1.993   3.154  13.529  0.1263  0.3118  0.2574
 9164TIP3   OH248906   1.531   0.444  11.881  0.1880 -0.1226 -0.1924
 9164TIP3    H148907   1.556   0.531  11.851  1.8406 -0.4873  0.0395
 9164TIP3    H248908   1.441   0.434  11.851  0.0963  1.5038 -0.5610
 9165TIP3   OH248909   6.610   1.861  14.893  0.2569 -0.3118  0.2320
 9165TIP3    H148910   6.569   1.893  14.812  0.8218 -0.4515 -0.1168
 9165TIP3    H248911   6.600   1.766  14.889  0.5519 -0.3423  0.1752
 9166TIP3   OH248912   2.064   2.442  15.611  0.1732 -0.0041  0.6156
 9166TIP3    H148913   2.004   2.368  15.602 -0.5652  0.3612  2.1734
 9166TIP3    H248914   2.123   2.434  15.536  0.1847 -2.2299  0.7912
 9167TIP3   OH248915   0.236   0.578   5.360  0.2339  0.6706 -0.0010
 9167TIP3    H148916   0.140   0.569   5.358  0.2374 -0.9790  2.5843
 9167TIP3    H248917   0.269   0.490   5.344  1.4514  1.4165 -2.0384
 9168TIP3   OH248918   0.196   6.134   0.701  0.4909 -0.5741 -0.0311
 9168TIP3    H148919   0.132   6.205   0.694  0.7392 -0.4028 -0.6828
 9168TIP3    H248920   0.246   6.139   0.619  1.8095 -0.2339  0.7625
 9169TIP3   OH248921   2.188   2.840  15.929 -0.3639  0.2521 -0.0436
 9169TIP3    H148922   2.259   2.885  15.882 -1.0478  0.1285 -1.2585
 9169TIP3    H248923   2.175   2.760  15.879 -1.7938  0.5933 -0.2550
 9170TIP3   OH248924   1.508   2.743   4.991  0.2034 -0.0916  0.1878
 9170TIP3    H148925   1.596   2.781   4.994 -0.5434  1.7057  0.9591
 9170TIP3    H248926   1.475   2.767   4.904  0.8942 -1.9143 -0.6401
 9171TIP3   OH248927   1.821   1.185  11.747  0.0486 -0.1829  0.1124
 9171TIP3    H148928   1.909   1.185  11.784 -0.4838  0.9531  1.4615
 9171TIP3    H248929   1.768   1.136  11.810 -0.6665  0.9039  0.3912
 9172TIP3   OH248930   6.575   5.708   4.041 -0.0106  0.4986  0.2750
 9172TIP3    H148931   6.598   5.716   3.948  0.4617 -0.1663  0.3235
 9172TIP3    H248932   6.479   5.704   4.041 -0.0437  1.1947 -0.1211
 9173TIP3   OH248933   6.666   3.012  15.839 -0.2374  0.4031 -0.0474
 9173TIP3    H148934   6.631   2.970  15.918  1.9587 -1.2744  0.1103
 9173TIP3    H248935   6.745   3.056  15.869  1.6723 -1.7969 -1.5537
 9174TIP3   OH248936   5.991   0.739  13.872  0.2576 -0.3631  0.2686
 9174TIP3    H148937   6.012   0.653  13.909  0.0141 -0.7177 -0.3843
 9174TIP3    H248938   5.990   0.723  13.777 -0.2717  0.2530  0.1700
 9175TIP3   OH248939   6.453   1.156  17.062  0.0333 -0.6773  0.1164
 9175TIP3    H148940   6.450   1.244  17.100  1.1089 -0.2807 -0.6697
 9175TIP3    H248941   6.389   1.106  17.114  0.6408  0.1083  1.7066
 9176TIP3   OH248942   2.056   4.270   1.405 -0.3452 -0.5247  0.1244
 9176TIP3    H148943   2.024   4.233   1.323 -1.5445 -0.0560  0.3650
 9176TIP3    H248944   2.101   4.351   1.379 -0.2362 -0.6630 -0.1167
 9177TIP3   OH248945   1.645   0.382  16.814 -0.0207 -0.6662  0.3378
 9177TIP3    H148946   1.690   0.375  16.898 -0.5586  0.9438  0.7874
 9177TIP3    H248947   1.710   0.351  16.750  0.8894 -0.6033  1.1992
 9178TIP3   OH248948   4.688   2.272   1.975  0.1047 -0.1825 -0.4380
 9178TIP3    H148949   4.705   2.299   1.885 -1.8353 -0.8111 -1.0408
 9178TIP3    H248950   4.687   2.354   2.025 -0.7926  0.3840 -1.3532
 9179TIP3   OH248951   4.084   1.701  15.081  0.1652  0.2261  0.7639
 9179TIP3    H148952   4.167   1.744  15.099  1.1364 -1.4830  0.5749
 9179TIP3    H248953   4.033   1.712  15.161  0.1770  2.0817  0.5596
 9180TIP3   OH248954   3.626   0.687  15.416 -0.1395 -0.1855  0.6119
 9180TIP3    H148955   3.550   0.740  15.440  0.6812 -0.2129  3.6740
 9180TIP3    H248956   3.692   0.751  15.389 -0.8064 -0.0801 -0.8513
 9181TIP3   OH248957   0.526   1.090  13.756 -0.3964 -0.3797 -0.6028
 9181TIP3    H148958   0.456   1.040  13.714  0.0081 -0.3673 -1.3234
 9181TIP3    H248959   0.482   1.162  13.800 -0.8947 -0.7851 -0.4297
 9182TIP3   OH248960   1.116   3.528   4.011 -0.2318  0.1901  0.4102
 9182TIP3    H148961   1.088   3.495   3.926 -2.3621  1.2639  0.6191
 9182TIP3    H248962   1.136   3.620   3.997  2.1645 -0.2563  0.5507
 9183TIP3   OH248963   2.638   0.130   0.404  0.2225 -0.0470 -0.4021
 9183TIP3    H148964   2.664   0.075   0.330 -0.0925  0.1323 -0.6456
 9183TIP3    H248965   2.714   0.186   0.420  0.4673 -0.4116 -0.2862
 9184TIP3   OH248966   2.378   5.093  15.619 -0.0759 -0.3908 -0.0042
 9184TIP3    H148967   2.425   5.011  15.609  2.3917  0.9480 -0.1469
 9184TIP3    H248968   2.355   5.118  15.529 -1.1668 -1.0602  0.0678
 9185TIP3   OH248969   4.104   5.930  15.957 -0.2574 -0.3380 -0.2546
 9185TIP3    H148970   4.192   5.903  15.985  0.3294  1.2873 -0.4268
 9185TIP3    H248971   4.119   5.989  15.884 -1.5836 -1.0621 -1.1475
 9186TIP3   OH248972   5.339   0.086   4.175 -0.5737  0.0408 -0.3239
 9186TIP3    H148973   5.380   0.060   4.258 -1.7358  2.7319  1.2242
 9186TIP3    H248974   5.412   0.096   4.114  0.1883 -3.5900 -0.2475
 9187TIP3   OH248975   4.834   2.129   4.155  0.0807  0.2205 -0.8296
 9187TIP3    H148976   4.772   2.138   4.227  1.0276  0.1014  0.0284
 9187TIP3    H248977   4.911   2.179   4.184  0.9433 -0.8471 -1.2087
 9188TIP3   OH248978   5.505   4.925  12.653  0.2829 -0.0281  0.3290
 9188TIP3    H148979   5.434   4.868  12.625  0.6284  0.1076 -0.8757
 9188TIP3    H248980   5.491   4.937  12.747 -1.1228 -0.2115  0.1543
 9189TIP3   OH248981   5.150   1.727  14.042  0.3024  0.6663 -0.4549
 9189TIP3    H148982   5.202   1.691  13.970  0.2580 -0.7122  0.1800
 9189TIP3    H248983   5.157   1.822  14.031  1.0150  0.4861 -1.7540
 9190TIP3   OH248984   4.010   4.950  15.555  0.1025  0.0133  0.1234
 9190TIP3    H148985   3.923   4.940  15.518  0.7431 -0.7063 -1.2755
 9190TIP3    H248986   4.059   4.998  15.488  1.0498 -0.5151  0.4145
 9191TIP3   OH248987   6.024   3.969   0.222  0.3294  0.2866 -0.1553
 9191TIP3    H148988   6.081   3.948   0.148  0.4482  0.1922 -0.0387
 9191TIP3    H248989   5.941   3.925   0.202  0.3131  0.3868 -0.3048
 9192TIP3   OH248990   5.208   3.878  12.654 -0.5621 -0.6924  0.2564
 9192TIP3    H148991   5.263   3.955  12.644 -0.0171 -1.0115  0.7570
 9192TIP3    H248992   5.195   3.847  12.564 -2.3825  1.0549 -0.1485
 9193TIP3   OH248993   2.335   0.869  14.280 -0.0318 -0.6752 -0.2816
 9193TIP3    H148994   2.346   0.793  14.337 -2.1639 -2.0325 -1.5318
 9193TIP3    H248995   2.284   0.836  14.206  1.1310  1.4126 -2.1383
 9194TIP3   OH248996   3.946   4.916   2.292 -0.0676  0.5013  0.7039
 9194TIP3    H148997   3.906   4.879   2.371 -0.8802  1.0647  0.5738
 9194TIP3    H248998   3.872   4.931   2.232  0.8179 -3.0448 -1.5412
 9195TIP3   OH248999   1.230   5.950   2.175  0.3922  0.3123 -0.3323
 9195TIP3    H149000   1.232   5.855   2.164  0.4116  0.4716 -1.9562
 9195TIP3    H249001   1.144   5.969   2.212  0.8901 -0.4340  1.2582
 9196TIP3   OH249002   3.489   2.098   1.263  0.0853  0.4537 -0.0136
 9196TIP3    H149003   3.529   2.183   1.247  1.2268 -0.0994 -0.2077
 9196TIP3    H249004   3.513   2.078   1.354  0.0249  0.2413 -0.0441
 9197TIP3   OH249005   6.294   1.026   5.206 -0.6501 -0.0621  0.4289
 9197TIP3    H149006   6.348   1.104   5.194  0.0950 -0.2770  2.0844
 9197TIP3    H249007   6.350   0.966   5.254 -1.5829 -1.2201  0.0975
 9198TIP3   OH249008   4.671   4.041   0.297 -0.5484 -0.2036 -0.5206
 9198TIP3    H149009   4.666   4.053   0.391  0.3364 -1.2336 -0.3194
 9198TIP3    H249010   4.672   4.130   0.261  4.2921  0.5674  0.7718
 9199TIP3   OH249011   5.250   0.141  16.418  0.2903  0.1374 -0.4345
 9199TIP3    H149012   5.299   0.115  16.496 -1.7208 -0.6573  0.6469
 9199TIP3    H249013   5.190   0.068  16.402 -1.3951  1.5755 -0.9463
 9200TIP3   OH249014   2.962   2.146  12.758 -0.0639  0.1794  0.3528
 9200TIP3    H149015   2.987   2.232  12.722 -1.1155 -0.0586 -1.0331
 9200TIP3    H249016   3.045   2.103  12.776  0.4846  1.0911  0.1012
 9201TIP3   OH249017   1.946   5.926  15.868  0.0348 -0.3725 -0.5078
 9201TIP3    H149018   1.983   5.930  15.780 -0.1450 -0.4584 -0.5886
 9201TIP3    H249019   1.852   5.915  15.854  0.0694 -0.9669 -0.3035
 9202TIP3   OH249020   3.681   4.543  13.113  0.1411 -0.3199 -0.0219
 9202TIP3    H149021   3.719   4.625  13.084  2.7134 -1.3642  0.1677
 9202TIP3    H249022   3.741   4.475  13.081  0.3731 -1.8536  3.2228
 9203TIP3   OH249023   0.655   2.102   3.199 -0.3110  0.1708 -0.4710
 9203TIP3    H149024   0.599   2.053   3.139 -1.6525 -0.5136  1.2931
 9203TIP3    H249025   0.602   2.178   3.224 -1.1977 -1.3145  2.4808
 9204TIP3   OH249026   0.338   1.553   4.416  0.2660 -0.4368  0.5884
 9204TIP3    H149027   0.319   1.503   4.337 -0.0809  0.6139 -0.0212
 9204TIP3    H249028   0.404   1.617   4.388 -0.6918  0.6899  0.8397
 9205TIP3   OH249029   4.297   6.384  15.763 -0.9262 -0.3224  0.3102
 9205TIP3    H149030   4.355   6.415  15.694  0.0362 -0.7100  0.9189
 9205TIP3    H249031   4.212   6.373  15.720 -0.9557  1.6895 -0.2657
 9206TIP3   OH249032   2.516   5.703  12.354 -0.0102  0.0878 -0.3166
 9206TIP3    H149033   2.449   5.662  12.299  0.3993 -0.7142 -0.2260
 9206TIP3    H249034   2.469   5.772  12.401 -0.3008  1.0221 -1.9026
 9207TIP3   OH249035   6.158   0.597   5.006  0.1367 -0.2840 -0.4444
 9207TIP3    H149036   6.167   0.502   5.018  0.8912 -0.2310 -0.5826
 9207TIP3    H249037   6.109   0.626   5.083 -1.0248 -0.9335 -0.9157
 9208TIP3   OH249038   4.115   5.897   4.604 -0.0138  0.8918  0.2389
 9208TIP3    H149039   4.167   5.971   4.636 -1.0497  1.1902  1.3226
 9208TIP3    H249040   4.070   5.931   4.527 -1.0824  1.6805  1.1691
 9209TIP3   OH249041   4.279   1.700  12.670  0.0512 -0.4743  0.2713
 9209TIP3    H149042   4.336   1.645  12.615 -0.2027 -1.4095  0.9038
 9209TIP3    H249043   4.293   1.666  12.759 -0.2409  0.3934  0.6569
 9210TIP3   OH249044   3.465   2.285   6.191  0.3364  0.1218 -0.0340
 9210TIP3    H149045   3.431   2.329   6.269 -0.6180 -1.3857  0.4413
 9210TIP3    H249046   3.557   2.314   6.185  0.1896  0.9003  1.1537
 9211TIP3   OH249047   2.801   2.661   4.753 -0.2090 -0.7438  0.1039
 9211TIP3    H149048   2.741   2.693   4.685 -1.3377 -0.4331  1.1894
 9211TIP3    H249049   2.867   2.611   4.706 -2.1952 -2.4595 -1.0668
 9212TIP3   OH249050   2.951   2.827   4.619  0.1923 -0.3365  0.0848
 9212TIP3    H149051   2.892   2.901   4.630 -2.2389 -2.3601  1.9273
 9212TIP3    H249052   3.003   2.825   4.699 -0.8318 -1.4393  0.7532
 9213TIP3   OH249053   1.846   3.910  16.143  0.0138 -0.0328  0.2630
 9213TIP3    H149054   1.829   3.994  16.099  0.0343  0.9824  2.1025
 9213TIP3    H249055   1.887   3.934  16.226 -0.3181 -1.8455  0.9979
 9214TIP3   OH249056   6.569   2.188   3.868  0.3012 -0.6202 -0.1693
 9214TIP3    H149057   6.508   2.143   3.811  1.3613 -0.8133 -1.1896
 9214TIP3    H249058   6.572   2.278   3.835  0.8365 -0.7021 -0.3503
 9215TIP3   OH249059   6.641   5.400   4.873 -0.2100  0.6249  0.1064
 9215TIP3    H149060   6.657   5.356   4.790  2.4898  0.1910  0.7563
 9215TIP3    H249061   6.549   5.383   4.893 -0.3560 -1.0298 -1.7503
 9216TIP3   OH249062   5.023   4.786  17.065 -0.4396 -0.0263  0.1301
 9216TIP3    H149063   5.115   4.807  17.050 -0.7772  0.9631 -0.7067
 9216TIP3    H249064   5.022   4.740  17.149  0.9751 -1.3384 -0.5197
 9217TIP3   OH249065   1.507   2.320   5.133  0.0593 -0.2003 -0.2483
 9217TIP3    H149066   1.442   2.362   5.077  1.2326  0.4525 -1.1794
 9217TIP3    H249067   1.456   2.270   5.196 -1.3672  1.2019 -0.2195
 9218TIP3   OH249068   6.484   5.872  16.494  0.3032 -0.2931 -0.0212
 9218TIP3    H149069   6.392   5.896  16.483 -0.0264 -2.1685 -1.9399
 9218TIP3    H249070   6.483   5.806  16.562  0.2196 -0.3635 -0.0906
 9219TIP3   OH249071   1.617   4.290  16.640 -0.0558 -0.4352  0.2846
 9219TIP3    H149072   1.600   4.369  16.692 -1.5403 -1.0136  0.7322
 9219TIP3    H249073   1.536   4.276  16.591  0.9323 -0.5367 -1.3712
 9220TIP3   OH249074   2.404   3.314  16.383  0.4033 -0.2642  0.1125
 9220TIP3    H149075   2.339   3.272  16.439 -0.0850  1.0407  0.5585
 9220TIP3    H249076   2.409   3.257  16.306 -0.3682 -1.0241  0.6067
 9221TIP3   OH249077   4.698   1.006   4.996 -0.1731 -0.0601 -0.1129
 9221TIP3    H149078   4.635   0.939   5.021  0.0209 -0.1577  0.1046
 9221TIP3    H249079   4.710   1.059   5.075  0.4416 -0.3744  0.0097
 9222TIP3   OH249080   0.221   0.465   2.630 -0.0517  0.0072 -0.2145
 9222TIP3    H149081   0.141   0.459   2.682 -0.6086  1.3305 -0.8695
 9222TIP3    H249082   0.190   0.468   2.539  0.8960 -2.2690 -0.6793
 9223TIP3   OH249083   5.721   4.494  12.932 -0.6636 -0.1221  0.0745
 9223TIP3    H149084   5.667   4.455  13.001  0.0322 -0.5711  0.3839
 9223TIP3    H249085   5.764   4.568  12.974  0.6190 -1.0521  0.4666
 9224TIP3   OH249086   0.211   5.187  12.085  0.0871  0.7333 -0.1671
 9224TIP3    H149087   0.278   5.157  12.023  0.3880  2.9550 -1.0149
 9224TIP3    H249088   0.261   5.221  12.159 -0.1400  1.1362 -0.1959
 9225TIP3   OH249089   6.590   3.383   4.017 -0.0845 -0.5781 -0.3458
 9225TIP3    H149090   6.672   3.375   4.064  1.8589  1.0603 -3.1213
 9225TIP3    H249091   6.606   3.339   3.933 -1.8570  0.1670 -1.1370
 9226TIP3   OH249092   2.135   5.350   6.113 -0.5157  0.6067 -0.2639
 9226TIP3    H149093   2.053   5.319   6.151  0.0937 -0.2156  0.4081
 9226TIP3    H249094   2.198   5.343   6.184  0.0488  1.6779 -0.6351
 9227TIP3   OH249095   1.910   1.368  10.669 -0.1985 -0.1288  0.5563
 9227TIP3    H149096   1.950   1.452  10.690 -0.4534 -0.2315  1.4734
 9227TIP3    H249097   1.887   1.375  10.576  1.3813  0.1630  0.1502
 9228TIP3   OH249098   5.817   2.877   0.529 -0.0125 -0.0869  0.6716
 9228TIP3    H149099   5.765   2.848   0.603 -0.4909 -2.8141 -0.6062
 9228TIP3    H249100   5.753   2.898   0.461  0.2886 -3.8783 -1.0629
 9229TIP3   OH249101   4.359   6.154  14.412  0.2142 -0.2910  0.3804
 9229TIP3    H149102   4.392   6.173  14.500 -0.4217 -1.9690  1.0202
 9229TIP3    H249103   4.264   6.167  14.419  0.0985 -0.9638  0.1047
 9230TIP3   OH249104   2.400   0.625   4.801 -0.5156  0.3506 -0.6128
 9230TIP3    H149105   2.373   0.648   4.890  1.2487  0.0144  0.0668
 9230TIP3    H249106   2.365   0.696   4.746  1.6550  2.8155  0.9109
 9231TIP3   OH249107   3.532   6.425   2.091 -0.2206 -0.3394 -0.1782
 9231TIP3    H149108   3.486   6.466   2.018  0.0403 -0.2313 -0.2811
 9231TIP3    H249109   3.479   6.348   2.113  1.3965 -2.3130 -2.6413
 9232TIP3   OH249110   2.640   0.658  16.031 -0.1101 -0.2098  0.5656
 9232TIP3    H149111   2.674   0.610  16.106 -1.9524  0.0555  1.6303
 9232TIP3    H249112   2.633   0.592  15.962  0.4884 -0.7165  0.9715
 9233TIP3   OH249113   5.791   0.186   4.331  0.6212  0.6399  0.5335
 9233TIP3    H149114   5.697   0.203   4.345  1.0528  2.9559  1.0632
 9233TIP3    H249115   5.813   0.235   4.252  1.3444 -0.1870  0.1999
 9234TIP3   OH249116   3.853   0.103   1.562 -0.4699  0.0352 -0.1452
 9234TIP3    H149117   3.785   0.104   1.631  2.5613  1.0513  3.1355
 9234TIP3    H249118   3.810   0.141   1.486 -3.2826  1.7697  2.0784
 9235TIP3   OH249119   0.309   5.344   3.792  0.4278 -0.0596  0.0937
 9235TIP3    H149120   0.391   5.393   3.797  0.8000 -0.5606 -0.7747
 9235TIP3    H249121   0.330   5.269   3.736 -0.6889 -0.0629 -0.3369
 9236TIP3   OH249122   3.887   3.685   5.594  0.1298  0.0844 -0.6049
 9236TIP3    H149123   3.912   3.632   5.669  0.2121 -0.1222 -0.7769
 9236TIP3    H249124   3.970   3.712   5.554  0.1117 -1.3949 -1.7363
 9237TIP3   OH249125   5.612   3.446   4.836 -0.1048  0.3393 -0.2659
 9237TIP3    H149126   5.661   3.384   4.781  0.7306  0.4946  0.2878
 9237TIP3    H249127   5.661   3.448   4.919 -2.2784 -1.2231  1.1592
 9238TIP3   OH249128   0.897   4.343   4.076 -0.3202 -0.0261 -0.1176
 9238TIP3    H149129   0.957   4.332   4.003  2.3432  0.3244  1.8385
 9238TIP3    H249130   0.907   4.263   4.128 -0.9524  0.3845  0.6673
 9239TIP3   OH249131   4.990   1.801  11.395 -0.4343 -1.0702 -0.3926
 9239TIP3    H149132   4.898   1.777  11.381 -0.7060 -0.9334  1.0692
 9239TIP3    H249133   5.005   1.788  11.488 -0.0908  2.6401  0.2224
 9240TIP3   OH249134   1.876   4.984   5.203  0.0432 -0.4684 -0.2058
 9240TIP3    H149135   1.855   4.998   5.111  0.3402  1.2749 -0.0522
 9240TIP3    H249136   1.966   5.015   5.213  0.2341 -1.2175  0.5535
 9241TIP3   OH249137   2.881   6.292   3.723 -0.0925 -0.2350 -0.4701
 9241TIP3    H149138   2.815   6.225   3.704  1.2819 -2.1952  1.1389
 9241TIP3    H249139   2.964   6.250   3.702  0.7950  1.2211 -0.0261
 9242TIP3   OH249140   6.724   1.965   1.232  0.2368 -0.1436  0.1353
 9242TIP3    H149141   6.771   1.907   1.292 -0.4351 -0.8816 -0.0406
 9242TIP3    H249142   6.721   2.049   1.277 -1.5423 -1.0426  1.8206
 9243TIP3   OH249143   5.834   4.965   0.345 -0.8387 -0.0015 -0.3772
 9243TIP3    H149144   5.839   4.962   0.441  0.0801  1.0522 -0.3721
 9243TIP3    H249145   5.766   4.902   0.323 -0.8876 -0.4533  0.9558
 9244TIP3   OH249146   1.518   1.592   1.785  0.1951  0.3766 -0.0355
 9244TIP3    H149147   1.567   1.661   1.830  1.2369  0.9163 -1.8639
 9244TIP3    H249148   1.579   1.561   1.717 -0.8641 -1.2021 -0.3027
 9245TIP3   OH249149   2.528   2.453  12.251  0.3869 -0.6808 -0.3965
 9245TIP3    H149150   2.610   2.404  12.249 -0.1363 -1.6011  0.1859
 9245TIP3    H249151   2.536   2.509  12.328  0.3006 -1.0849 -0.0890
 9246TIP3   OH249152   0.054   6.298  13.096  0.1218  0.2853  0.2962
 9246TIP3    H149153   0.019   6.312  13.184 -0.0881 -0.5022  0.3456
 9246TIP3    H249154   0.125   6.362  13.088  0.6445 -0.1423  1.3226
 9247TIP3   OH249155   1.241   5.178   1.518  0.5374  0.0941  1.0665
 9247TIP3    H149156   1.155   5.215   1.497  0.6141  0.0828  0.7144
 9247TIP3    H249157   1.224   5.086   1.536  0.7662 -0.5680 -1.5589
 9248TIP3   OH249158   6.482   3.194   3.513  0.2273  0.6247 -0.0044
 9248TIP3    H149159   6.506   3.101   3.520 -3.6590 -0.6151 -0.8019
 9248TIP3    H249160   6.541   3.228   3.446 -0.0043 -2.0639 -1.7521
 9249TIP3   OH249161   3.847   1.107   1.815  0.0613 -0.8214  0.4356
 9249TIP3    H149162   3.869   1.070   1.730 -0.5694 -0.9828  0.3317
 9249TIP3    H249163   3.878   1.197   1.812 -0.2438 -0.7329 -0.0844
 9250TIP3   OH249164   0.403   3.744  17.138 -0.1323 -0.1350  0.6398
 9250TIP3    H149165   0.440   3.664  17.101  0.4929 -0.2162  1.4180
 9250TIP3    H249166   0.374   3.718  17.225  2.0918  0.9754  1.7917
 9251TIP3   OH249167   5.988   0.163  14.517 -0.0191 -0.2629  0.4065
 9251TIP3    H149168   5.943   0.247  14.508  1.4740  0.7065  1.4865
 9251TIP3    H249169   5.990   0.128  14.428 -0.3686  1.0179 -0.1334
 9252TIP3   OH249170   2.932   4.647   2.846  0.1710 -0.2115  0.3036
 9252TIP3    H149171   2.975   4.590   2.910  1.8925  0.1078 -0.4867
 9252TIP3    H249172   2.912   4.590   2.773  0.3297 -0.1420  0.2044
 9253TIP3   OH249173   0.952   3.555   0.792  0.2739  0.1720  0.1232
 9253TIP3    H149174   0.931   3.631   0.845  0.0266  0.4821 -0.4150
 9253TIP3    H249175   0.873   3.501   0.795 -0.5833  1.2303 -1.7125
 9254TIP3   OH249176   5.761   5.947  11.059 -0.1150 -0.2297  0.3794
 9254TIP3    H149177   5.772   5.855  11.034 -0.7130 -0.3101  0.4018
 9254TIP3    H249178   5.734   5.991  10.978  1.3789  0.1755  0.0581
 9255TIP3   OH249179   0.390   5.389   5.090  0.2963 -0.7438  0.1213
 9255TIP3    H149180   0.428   5.331   5.024 -0.5071 -1.5036  0.3171
 9255TIP3    H249181   0.301   5.404   5.060  0.4094  0.1677  0.2279
 9256TIP3   OH249182   1.689   2.350   3.407  0.2661 -0.6372  0.5792
 9256TIP3    H149183   1.643   2.421   3.452  1.2578  1.8403 -2.0108
 9256TIP3    H249184   1.781   2.362   3.430  0.2841 -2.2293  1.4754
 9257TIP3   OH249185   4.816   6.099   0.272  0.1994 -0.8153 -0.3383
 9257TIP3    H149186   4.862   6.017   0.255 -0.6960 -1.3047 -0.4324
 9257TIP3    H249187   4.849   6.128   0.358  1.6645 -0.4553 -0.9776
 9258TIP3   OH249188   1.146   3.042  13.663  0.6325  0.9944 -0.3666
 9258TIP3    H149189   1.058   3.011  13.685  0.7306  1.6448  1.0981
 9258TIP3    H249190   1.202   2.966  13.675  0.2139  0.4207 -1.8796
 9259TIP3   OH249191   5.532   6.695  13.549  0.0191  0.2550  0.2011
 9259TIP3    H149192   5.576   6.742  13.478  0.3787  2.4210  1.7655
 9259TIP3    H249193   5.489   6.622  13.505 -0.3456  1.8686 -2.3779
 9260TIP3   OH249194   3.313   2.089   4.977 -0.1175 -0.5863  0.3620
 9260TIP3    H149195   3.399   2.125   4.995 -0.2733 -0.5866  1.1423
 9260TIP3    H249196   3.268   2.090   5.061 -0.6365 -1.2417  0.1032
 9261TIP3   OH249197   4.374   1.449  13.211 -0.0590 -0.2177  0.6965
 9261TIP3    H149198   4.288   1.474  13.245  0.0150  0.0426  0.6879
 9261TIP3    H249199   4.436   1.502  13.261  0.0411  0.3266  0.0086
 9262TIP3   OH249200   6.323   3.411  13.844 -0.1833  0.1900 -0.3616
 9262TIP3    H149201   6.374   3.346  13.796 -2.2742 -0.9912 -1.1041
 9262TIP3    H249202   6.317   3.486  13.785  0.1610  0.0855 -0.5256
 9263TIP3   OH249203   1.385   6.559   2.976  0.9164 -0.0676 -0.6833
 9263TIP3    H149204   1.390   6.528   2.886 -0.1587  0.2000 -0.8434
 9263TIP3    H249205   1.300   6.601   2.983 -0.2550 -2.4380  1.1615
 9264TIP3   OH249206   0.850   1.043  13.923 -0.6716  0.3638 -0.4405
 9264TIP3    H149207   0.783   0.976  13.935  0.4485 -0.8059 -0.5870
 9264TIP3    H249208   0.811   1.105  13.861 -2.0201  0.2879  0.3055
 9265TIP3   OH249209   1.910   1.851   4.591 -0.0116  0.2675 -0.4671
 9265TIP3    H149210   1.856   1.777   4.618 -0.0587 -0.0343 -1.3361
 9265TIP3    H249211   1.849   1.924   4.579 -0.2120 -0.0165 -1.2430
 9266TIP3   OH249212   3.668   0.098   1.767  0.0624 -0.6074 -0.3149
 9266TIP3    H149213   3.637   0.013   1.797 -1.0438 -0.8481 -2.0106
 9266TIP3    H249214   3.612   0.161   1.813  1.3283 -0.6961  1.4694
 9267TIP3   OH249215   1.435   5.626  15.477  0.3580  0.2817 -0.3273
 9267TIP3    H149216   1.396   5.701  15.433  2.4360  0.5579 -1.8614
 9267TIP3    H249217   1.409   5.551  15.424 -0.2913  0.1204  0.2111
 9268TIP3   OH249218   3.736   0.076   3.150 -0.3493 -0.2689  0.1516
 9268TIP3    H149219   3.720  -0.018   3.147 -1.4072 -0.1658  1.2716
 9268TIP3    H249220   3.684   0.106   3.225  0.8056  1.0429  0.4722
 9269TIP3   OH249221   1.772   2.803   3.714 -0.8419  0.1315 -0.0444
 9269TIP3    H149222   1.787   2.890   3.676  2.8555 -0.4226 -0.2389
 9269TIP3    H249223   1.755   2.821   3.807 -0.4480  1.1149 -0.1399
 9270TIP3   OH249224   6.412   6.346   4.143  0.0463 -0.1960 -0.7695
 9270TIP3    H149225   6.319   6.349   4.165 -0.2482 -1.9311 -1.5771
 9270TIP3    H249226   6.415   6.365   4.049  0.4547 -0.5621 -0.8350
 9271TIP3   OH249227   5.215   0.965  15.528  0.2121 -0.5314 -0.2160
 9271TIP3    H149228   5.304   0.947  15.559  0.1022 -0.6978  0.0090
 9271TIP3    H249229   5.183   0.880  15.498  0.5777 -0.2444 -1.4959
 9272TIP3   OH249230   6.037   5.313  17.143  0.7218  0.0624  0.1066
 9272TIP3    H149231   5.970   5.273  17.088 -0.4125  3.2084 -0.9765
 9272TIP3    H249232   5.988   5.352  17.216  1.4693  1.4512 -0.1032
 9273TIP3   OH249233   5.967   2.948   4.034 -0.2359  0.3581 -0.2373
 9273TIP3    H149234   5.933   2.882   4.094  1.9215  0.5018  1.2532
 9273TIP3    H249235   6.059   2.923   4.020 -0.3336  1.0364 -2.5425
 9274TIP3   OH249236   5.001   5.145   0.522 -0.2380 -0.0099  0.0363
 9274TIP3    H149237   4.974   5.054   0.534 -0.3804  0.0177 -0.0849
 9274TIP3    H249238   4.921   5.196   0.534 -0.1738  0.0944  0.0245
 9275TIP3   OH249239   0.444   3.116  14.534 -0.0414 -0.1145  0.4280
 9275TIP3    H149240   0.537   3.102  14.517 -0.2672 -1.5110  0.2695
 9275TIP3    H249241   0.426   3.204  14.500  1.1012 -0.0302  0.0146
 9276TIP3   OH249242   3.311   3.403  13.023 -0.0389 -0.1169 -0.5030
 9276TIP3    H149243   3.245   3.464  12.989 -1.8388 -2.6866 -2.0086
 9276TIP3    H249244   3.389   3.457  13.038 -1.9778  2.7936 -0.1015
 9277TIP3   OH249245   5.692   4.626  12.578  0.2265 -0.5457  0.3385
 9277TIP3    H149246   5.723   4.680  12.651  0.2739 -0.1954  0.0594
 9277TIP3    H249247   5.664   4.689  12.512 -1.4383 -0.8526  0.7216
 9278TIP3   OH249248   6.578   6.178  11.488  0.3119 -0.7926  0.2500
 9278TIP3    H149249   6.617   6.265  11.478 -0.6900 -0.4748 -1.1729
 9278TIP3    H249250   6.611   6.129  11.413  2.3716 -2.2814  2.0110
 9279TIP3   OH249251   3.776   4.266   3.399 -0.2517 -0.8526 -0.4273
 9279TIP3    H149252   3.742   4.194   3.453 -1.5300 -0.4344 -0.6443
 9279TIP3    H249253   3.865   4.238   3.375  0.6182 -0.8053  2.3585
 9280TIP3   OH249254   1.111   3.959  13.656  0.1021 -0.1034 -0.5823
 9280TIP3    H149255   1.038   3.912  13.614 -0.1319 -0.2857  0.0154
 9280TIP3    H249256   1.152   3.894  13.713 -0.5886  0.5498  0.7069
 9281TIP3   OH249257   0.940   6.595  15.824  0.9175 -0.8057  0.4788
 9281TIP3    H149258   0.884   6.521  15.844  1.3040 -1.3996 -0.5187
 9281TIP3    H249259   1.010   6.557  15.770  1.9782  0.0060  1.2521
 9282TIP3   OH249260   4.518   2.552  12.101 -0.4820  0.0355 -0.1936
 9282TIP3    H149261   4.563   2.635  12.084 -0.8420  0.4270  0.6988
 9282TIP3    H249262   4.514   2.546  12.197 -1.6416 -0.3590 -0.2489
 9283TIP3   OH249263   5.217   5.931  12.671  0.8714  0.8031 -0.1898
 9283TIP3    H149264   5.150   5.995  12.695  1.1436  0.9511  0.1771
 9283TIP3    H249265   5.254   5.902  12.754  1.4110  0.8819 -0.3992
 9284TIP3   OH249266   0.290   1.778   4.911  0.2248 -0.3178 -0.3661
 9284TIP3    H149267   0.232   1.751   4.840  0.1703  0.6312 -0.7068
 9284TIP3    H249268   0.377   1.747   4.884  0.0435 -0.8449 -0.3532
 9285TIP3   OH249269   4.035   5.594  11.217  0.2317 -0.1462 -0.3030
 9285TIP3    H149270   4.013   5.578  11.309 -2.3189 -1.8579 -1.0971
 9285TIP3    H249271   4.031   5.507  11.176 -1.7054  0.9234 -2.5719
 9286TIP3   OH249272   1.072   5.871   4.523  0.8624 -0.1860  0.2285
 9286TIP3    H149273   1.001   5.931   4.502  1.1873  0.4459  0.8789
 9286TIP3    H249274   1.137   5.885   4.454  0.1948 -1.0653 -0.6015
 9287TIP3   OH249275   5.113   3.536  15.160 -0.2156  0.2901  0.2281
 9287TIP3    H149276   5.166   3.517  15.238  0.8158  3.3720  0.4072
 9287TIP3    H249277   5.174   3.523  15.087  0.1399  1.5708  0.2757
 9288TIP3   OH249278   5.303   0.665  17.189 -0.0277  0.1264 -0.3230
 9288TIP3    H149279   5.318   0.632  17.101 -0.4576  0.6448 -0.5988
 9288TIP3    H249280   5.218   0.630  17.215  1.5803 -3.0203  1.3386
 9289TIP3   OH249281   6.720   4.660  14.501  0.3997  0.0310  0.3092
 9289TIP3    H149282   6.771   4.739  14.521 -0.0794 -0.1071  2.2475
 9289TIP3    H249283   6.677   4.680  14.418 -0.3901  2.1962  1.1662
 9290TIP3   OH249284   3.392   3.158  15.661  0.4897 -0.1656 -0.7010
 9290TIP3    H149285   3.456   3.118  15.603 -0.3144 -2.8724  0.1240
 9290TIP3    H249286   3.337   3.211  15.603  1.8390  0.0731 -1.8126
 9291TIP3   OH249287   6.393   4.445   3.959 -0.1598  0.3057 -0.0566
 9291TIP3    H149288   6.361   4.444   3.869  0.1102  1.3354 -0.1740
 9291TIP3    H249289   6.319   4.413   4.011 -0.9680  1.4319 -0.4607
 9292TIP3   OH249290   6.428   5.356   3.309 -0.8175 -0.2692 -0.2286
 9292TIP3    H149291   6.437   5.423   3.376  0.5285 -1.1218  0.4990
 9292TIP3    H249292   6.425   5.405   3.226  1.2117  0.6903  0.2033
 9293TIP3   OH249293   6.734   4.238  14.033 -0.3355  0.2708  0.3849
 9293TIP3    H149294   6.738   4.325  14.073 -1.1113 -0.5421  2.4021
 9293TIP3    H249295   6.641   4.218  14.027 -0.1826 -1.3728  2.3312
 9294TIP3   OH249296   2.478   5.216   3.078 -0.2754 -0.2164 -0.2997
 9294TIP3    H149297   2.492   5.150   3.147 -1.3394  1.3289  1.5109
 9294TIP3    H249298   2.562   5.260   3.069 -0.4172  0.3408  0.9117
 9295TIP3   OH249299   0.844   1.001  10.604  0.3321  0.2201  0.2366
 9295TIP3    H149300   0.857   0.945  10.527  1.1840  1.0111 -0.2154
 9295TIP3    H249301   0.759   0.975  10.639 -0.3648  0.3083 -1.3518
 9296TIP3   OH249302   2.166   3.152  17.270  0.5928 -0.3815  0.2210
 9296TIP3    H149303   2.094   3.214  17.265  1.6475  1.0439  1.6951
 9296TIP3    H249304   2.138   3.086  17.333  0.5760  0.2150  0.8528
 9297TIP3   OH249305   0.450   5.873   5.391 -0.3376  0.5003  0.1617
 9297TIP3    H149306   0.379   5.827   5.347  1.0731 -0.0891 -1.6407
 9297TIP3    H249307   0.527   5.817   5.376  0.1568 -0.0895  4.0293
 9298TIP3   OH249308   2.825   5.382  12.284 -0.3554  0.0053 -0.5617
 9298TIP3    H149309   2.895   5.446  12.302 -0.8492  0.6484 -0.9017
 9298TIP3    H249310   2.808   5.390  12.191 -1.2833  0.2678 -0.3757
 9299TIP3   OH249311   1.549   1.213  11.160  0.0577 -0.4263 -0.2072
 9299TIP3    H149312   1.475   1.175  11.207  0.2574 -1.5476 -0.7579
 9299TIP3    H249313   1.552   1.164  11.077  3.9969 -3.5379  1.4431
 9300TIP3   OH249314   5.356   6.045   0.017  0.2475  0.2690  0.0263
 9300TIP3    H149315   5.394   6.123  -0.024  1.8454  0.7766  2.3039
 9300TIP3    H249316   5.368   5.976  -0.048  2.3917  1.0787 -0.5163
 9301TIP3   OH249317   5.330   1.851   2.992 -0.0487 -0.0723  0.2149
 9301TIP3    H149318   5.242   1.815   2.985  0.1855 -0.8941  1.3051
 9301TIP3    H249319   5.388   1.778   2.971  0.3921  0.4427 -0.4169
 9302TIP3   OH249320   0.139   0.614  13.531  0.2896 -0.1338  0.0368
 9302TIP3    H149321   0.110   0.523  13.525  0.4018 -0.1996  0.4352
 9302TIP3    H249322   0.085   0.651  13.601 -0.5502  0.4188 -0.8858
 9303TIP3   OH249323   1.682   2.072  12.699  0.0841 -0.5838  0.2611
 9303TIP3    H149324   1.689   1.998  12.759 -0.1526 -1.1684 -0.4181
 9303TIP3    H249325   1.773   2.100  12.685  0.0982 -0.0138  1.3955
 9304TIP3   OH249326   1.577   0.845  13.436  0.1539  0.1846  0.4433
 9304TIP3    H149327   1.570   0.757  13.399 -0.3592  0.6375 -0.6033
 9304TIP3    H249328   1.541   0.838  13.524  0.3563 -0.6997  0.4660
 9305TIP3   OH249329   1.401   0.614   1.852  0.3766 -0.3043  0.5653
 9305TIP3    H149330   1.440   0.529   1.876  1.3044  0.2286  1.0023
 9305TIP3    H249331   1.420   0.623   1.759 -1.8607 -1.6655 -0.0890
 9306TIP3   OH249332   3.035   4.223   5.226  0.2048 -0.0218  0.8712
 9306TIP3    H149333   3.049   4.305   5.273  1.2897  0.7277 -0.6591
 9306TIP3    H249334   3.080   4.157   5.279  1.0521  0.7236  1.1170
 9307TIP3   OH249335   0.617   1.179  12.997  0.2439 -0.0946  0.6784
 9307TIP3    H149336   0.686   1.193  13.062  0.2796 -0.0925  0.6400
 9307TIP3    H249337   0.664   1.163  12.915  0.2052 -0.4617  0.7251
 9308TIP3   OH249338   2.652   6.055   5.830  0.1528  0.3844 -0.3877
 9308TIP3    H149339   2.684   5.985   5.887  0.4736  1.7009  1.1452
 9308TIP3    H249340   2.570   6.021   5.793 -0.1771 -0.4541  1.0330
 9309TIP3   OH249341   0.331   6.700   2.670 -0.1546 -0.0633  0.6951
 9309TIP3    H149342   0.387   6.632   2.632 -0.4553 -0.3939  0.8423
 9309TIP3    H249343   0.267   6.652   2.722  1.2035  0.4271  2.9702
 9310TIP3   OH249344   4.825   3.011  16.580  0.6712  0.6623  0.3694
 9310TIP3    H149345   4.903   2.978  16.535  0.4355  1.9508 -1.0625
 9310TIP3    H249346   4.754   2.953  16.550  0.4115  1.8605 -1.4501
 9311TIP3   OH249347   1.330   6.172  15.690  0.5355 -0.8359  0.0400
 9311TIP3    H149348   1.262   6.184  15.624  0.5740  1.1284  0.2891
 9311TIP3    H249349   1.404   6.222  15.658 -0.1843  2.1797  2.5141
 9312TIP3   OH249350   0.121   4.020  15.590  0.4199  0.3201  0.1865
 9312TIP3    H149351   0.109   4.086  15.659  1.0813 -0.1699  0.7878
 9312TIP3    H249352   0.134   4.070  15.510 -0.2023  0.9052  0.4456
 9313TIP3   OH249353   3.420   5.497   0.316 -0.2272  0.2767  0.3898
 9313TIP3    H149354   3.386   5.542   0.238 -1.3643 -0.7561  0.2634
 9313TIP3    H249355   3.365   5.529   0.388 -0.3930 -0.1512  0.4576
 9314TIP3   OH249356   0.320   4.948  14.310  0.2268  0.1453  0.0892
 9314TIP3    H149357   0.376   4.961  14.387 -1.8107  2.2998  1.3547
 9314TIP3    H249358   0.231   4.966  14.342 -0.8194  0.0420 -2.5315
 9315TIP3   OH249359   2.318   2.558  16.587 -0.0755 -0.1718  0.0655
 9315TIP3    H149360   2.325   2.554  16.491 -0.4557  1.6033 -0.0710
 9315TIP3    H249361   2.371   2.485  16.618  0.6084 -0.3723 -1.4867
 9316TIP3   OH249362   6.752   3.274  14.086  0.7252  0.8863  0.5975
 9316TIP3    H149363   6.726   3.365  14.073 -1.4171  0.3417  0.6649
 9316TIP3    H249364   6.685   3.238  14.144  1.9770 -0.5456  1.2302
 9317TIP3   OH249365   4.399   3.135   1.955 -0.2699  0.7310  0.1359
 9317TIP3    H149366   4.361   3.083   2.026  1.4252  1.6947  1.8027
 9317TIP3    H249367   4.465   3.077   1.916 -1.0021  0.3074 -0.5142
 9318TIP3   OH249368   0.496   1.035   6.210  0.7197  0.2636  0.3372
 9318TIP3    H149369   0.532   0.976   6.277 -0.5417  0.4085  1.1822
 9318TIP3    H249370   0.413   0.996   6.186  0.5320  0.9474 -0.1542
 9319TIP3   OH249371   6.122   6.116  16.798 -0.1915  0.2505 -0.6113
 9319TIP3    H149372   6.036   6.123  16.840  0.4376 -1.6843  1.1883
 9319TIP3    H249373   6.163   6.040  16.839  2.1545  0.7132 -1.8807
 9320TIP3   OH249374   1.396   6.700  11.315 -0.2777  0.0587  0.1184
 9320TIP3    H149375   1.425   6.614  11.285 -0.0127  0.1223  0.1937
 9320TIP3    H249376   1.476   6.750  11.325 -0.3939  0.1397  0.6339
 9321TIP3   OH249377   1.484   5.525   2.789  0.2696 -0.7649 -0.1302
 9321TIP3    H149378   1.400   5.484   2.809  0.1119 -1.0939 -1.3845
 9321TIP3    H249379   1.510   5.486   2.706  0.1776  1.5895 -1.3218
 9322TIP3   OH249380   0.395   1.995   0.935 -0.2787 -0.2283  0.0038
 9322TIP3    H149381   0.332   2.043   0.988  0.4449  0.3476  0.3634
 9322TIP3    H249382   0.378   1.903   0.955  0.8724 -0.0011  2.3175
 9323TIP3   OH249383   3.241   2.534  11.522  0.4223  0.0566 -0.1520
 9323TIP3    H149384   3.183   2.467  11.559  0.6542 -0.5617 -0.8773
 9323TIP3    H249385   3.257   2.504  11.433  0.5721  1.0647 -0.4694
 9324TIP3   OH249386   5.524   1.660   5.473  0.0658 -0.5580  0.2689
 9324TIP3    H149387   5.554   1.640   5.385 -1.2420 -0.5958 -0.2023
 9324TIP3    H249388   5.600   1.697   5.517  0.3988  0.7940 -1.3187
 9325TIP3   OH249389   2.923   0.433  13.776  0.0724  0.1737 -0.3738
 9325TIP3    H149390   2.837   0.474  13.787 -0.4590 -0.8492 -0.5837
 9325TIP3    H249391   2.916   0.350  13.824  0.8002 -0.1158 -0.7553
 9326TIP3   OH249392   6.177   1.220   4.069 -0.2538 -0.3272 -0.3671
 9326TIP3    H149393   6.180   1.288   4.002  3.6798  0.9020  0.8078
 9326TIP3    H249394   6.135   1.261   4.144 -1.0361 -0.3899 -0.7612
 9327TIP3   OH249395   1.678   3.029   4.845 -0.2565  0.1213 -0.2106
 9327TIP3    H149396   1.759   2.979   4.832  0.3844  1.5477 -2.4318
 9327TIP3    H249397   1.635   3.027   4.759 -1.1532  1.7398  0.1620
 9328TIP3   OH249398   0.135   3.403  14.601 -0.6675 -0.4204 -0.4500
 9328TIP3    H149399   0.079   3.325  14.606  0.5590 -1.3614 -0.7954
 9328TIP3    H249400   0.153   3.413  14.508  0.2027 -0.5057 -0.3060
 9329TIP3   OH249401   2.930   0.754  15.062  0.0214  0.4701  0.4290
 9329TIP3    H149402   2.856   0.696  15.082 -0.9633  1.6447  0.3088
 9329TIP3    H249403   2.922   0.772  14.968 -0.2557  1.5453  0.6473
 9330TIP3   OH249404   0.300   6.376  13.875  0.3219  0.1837  0.1353
 9330TIP3    H149405   0.215   6.352  13.912  0.5065 -1.1447 -0.2655
 9330TIP3    H249406   0.278   6.434  13.802 -0.1517  0.9747  0.8718
 9331TIP3   OH249407   0.317   1.529  14.323  0.0536  0.1102 -0.0302
 9331TIP3    H149408   0.326   1.446  14.278  0.1954 -0.1644  0.4987
 9331TIP3    H249409   0.226   1.532  14.353  0.0561  0.1312 -0.0236
 9332TIP3   OH249410   4.587   6.547   1.180  0.5398  0.0495  0.1007
 9332TIP3    H149411   4.670   6.504   1.200  0.7179 -0.2312 -1.1548
 9332TIP3    H249412   4.529   6.476   1.155  0.0798  0.3021  0.4397
 9333TIP3   OH249413   1.287   1.566  12.420 -0.1769 -0.6234  0.3048
 9333TIP3    H149414   1.357   1.501  12.424 -0.1161 -0.5203  1.0882
 9333TIP3    H249415   1.331   1.650  12.434  0.0809 -0.1196 -2.8715
 9334TIP3   OH249416   2.054   0.165  12.489  0.1576 -0.2665 -0.1774
 9334TIP3    H149417   2.050   0.157  12.585  0.0756  1.3808 -0.0259
 9334TIP3    H249418   1.964   0.152  12.461 -0.2167  1.3930  0.1763
 9335TIP3   OH249419   1.636   4.535  14.076 -0.0795 -0.0307  0.4620
 9335TIP3    H149420   1.630   4.472  14.148 -1.8035  0.2943  0.6445
 9335TIP3    H249421   1.703   4.498  14.018 -0.3042 -1.4933  1.0777
 9336TIP3   OH249422   1.370   5.091  11.465  0.1570  0.0827  0.1845
 9336TIP3    H149423   1.370   5.187  11.461 -1.6186  0.1049 -0.6756
 9336TIP3    H249424   1.416   5.063  11.385 -0.6683  0.2566 -0.3686
 9337TIP3   OH249425   1.864   2.625   1.142  0.4039  0.4050 -0.1086
 9337TIP3    H149426   1.781   2.584   1.119  2.0131 -2.8253 -0.7202
 9337TIP3    H249427   1.888   2.677   1.065  0.5873 -1.5797 -1.4688
 9338TIP3   OH249428   0.758   2.175  12.189 -0.2294 -0.1718 -0.0692
 9338TIP3    H149429   0.688   2.217  12.140  0.4945 -0.9613 -1.8869
 9338TIP3    H249430   0.837   2.223  12.165 -0.0264  0.4196  1.6010
 9339TIP3   OH249431   5.478   4.718   3.382 -0.1926  0.2873  0.3860
 9339TIP3    H149432   5.431   4.801   3.381 -1.3300 -0.2970 -1.9987
 9339TIP3    H249433   5.412   4.653   3.407 -0.1312 -0.2745 -0.8558
 9340TIP3   OH249434   0.109   1.450   0.727  0.4335 -0.7137  0.1784
 9340TIP3    H149435   0.022   1.410   0.718 -0.6120  1.2930  0.7353
 9340TIP3    H249436   0.092   1.544   0.724  2.4292 -0.2515  1.7898
 9341TIP3   OH249437   4.974   3.475  13.521  0.2521 -0.3051 -0.3967
 9341TIP3    H149438   4.904   3.441  13.466  0.3162 -1.2979  0.1097
 9341TIP3    H249439   4.943   3.462  13.611 -0.4010  2.4263 -0.1406
 9342TIP3   OH249440   0.728   4.126  13.292 -0.1613  0.0843  0.2593
 9342TIP3    H149441   0.693   4.163  13.211 -0.2195 -0.1844  0.1607
 9342TIP3    H249442   0.660   4.140  13.357  0.9909  2.9206  1.0044
 9343TIP3   OH249443   2.538   6.079  12.895  0.4005 -0.7671 -0.2349
 9343TIP3    H149444   2.579   6.009  12.946 -0.4974 -2.0774 -1.2328
 9343TIP3    H249445   2.453   6.043  12.869  0.0404  0.5936 -1.0276
 9344TIP3   OH249446   1.840   0.959  16.864 -0.7049  0.2388  0.0759
 9344TIP3    H149447   1.805   0.872  16.878 -1.2600  0.5867  0.9241
 9344TIP3    H249448   1.764   1.012  16.839 -0.2705  0.3555 -1.1030
 9345TIP3   OH249449   6.085   6.424  11.596  0.1111  0.5396  0.3088
 9345TIP3    H149450   6.038   6.347  11.628  1.6915 -0.3387  0.6277
 9345TIP3    H249451   6.163   6.388  11.555 -0.2967  1.8483 -1.7274
 9346TIP3   OH249452   2.411   4.932  14.582  0.5807 -0.6948  0.0149
 9346TIP3    H149453   2.365   4.961  14.503  0.7932 -2.0831 -0.6395
 9346TIP3    H249454   2.469   5.006  14.604 -0.4022  0.2150 -0.3717
 9347TIP3   OH249455   4.899   2.048   2.897 -0.6908  0.1341  0.0344
 9347TIP3    H149456   4.910   1.956   2.919 -1.3689  0.4314  1.7757
 9347TIP3    H249457   4.890   2.049   2.802  1.6444 -1.3254 -0.2691
 9348TIP3   OH249458   4.366   0.687  12.454  0.7087 -0.2775 -0.0553
 9348TIP3    H149459   4.271   0.690  12.458  0.7604  0.7693  1.7800
 9348TIP3    H249460   4.394   0.683  12.546  2.4643  1.9555 -0.3873
 9349TIP3   OH249461   3.529   1.402  15.821 -0.1994  0.0255  0.2104
 9349TIP3    H149462   3.522   1.479  15.877 -0.8340  0.1797 -0.0672
 9349TIP3    H249463   3.473   1.422  15.746 -0.1115 -0.5704 -0.0208
 9350TIP3   OH249464   6.254   6.469  16.673 -0.1279 -0.1047 -0.0049
 9350TIP3    H149465   6.237   6.477  16.767  0.4255  1.1778 -0.0009
 9350TIP3    H249466   6.326   6.407  16.668 -1.1086 -1.3197  0.3035
 9351TIP3   OH249467   1.018   4.351  13.106  0.8548  0.1317 -0.3736
 9351TIP3    H149468   0.959   4.424  13.125  2.8223  1.5193  0.8642
 9351TIP3    H249469   1.025   4.303  13.189  0.4169 -0.8500 -0.8845
 9352TIP3   OH249470   6.383   4.724   1.203  0.4942 -0.5689  0.4183
 9352TIP3    H149471   6.346   4.677   1.278  1.1336  0.7258  1.5893
 9352TIP3    H249472   6.461   4.674   1.179  0.9938 -0.3021  1.4489
 9353TIP3   OH249473   0.312   3.193   3.081  0.1237 -0.3073  0.0878
 9353TIP3    H149474   0.245   3.126   3.074  2.1931 -2.6782  1.4685
 9353TIP3    H249475   0.387   3.158   3.032  0.5366  2.1193 -1.1859
 9354TIP3   OH249476   2.437   0.467   3.900 -0.7924  0.1409  0.4030
 9354TIP3    H149477   2.494   0.538   3.871 -0.5563  0.6942  2.0790
 9354TIP3    H249478   2.435   0.476   3.996 -3.2884 -0.1833  0.4442
 9355TIP3   OH249479   0.370   1.752  14.459 -0.0878 -0.2137  0.0638
 9355TIP3    H149480   0.362   1.691  14.533  1.1367 -0.6386 -0.1353
 9355TIP3    H249481   0.358   1.697  14.382 -2.3364  0.3814 -0.0917
 9356TIP3   OH249482   1.871   1.735   3.963  1.0225  0.1098  0.4173
 9356TIP3    H149483   1.901   1.719   4.052  0.9303  1.0812  0.6291
 9356TIP3    H249484   1.931   1.801   3.929  0.4765  0.4415  0.0832
 9357TIP3   OH249485   4.786   5.293  12.419 -0.3139  0.2004  0.2353
 9357TIP3    H149486   4.786   5.230  12.347  0.8405 -0.7826  1.0372
 9357TIP3    H249487   4.699   5.284  12.459  0.0393 -1.4175  0.7351
 9358TIP3   OH249488   6.385   2.415   1.724  0.0394  0.3230 -0.2684
 9358TIP3    H149489   6.415   2.390   1.811  0.8391 -1.0157 -0.8966
 9358TIP3    H249490   6.455   2.469   1.688  0.1811  0.0135 -0.4629
 9359TIP3   OH249491   2.234   3.316   3.955  0.4690  0.4005 -0.1347
 9359TIP3    H149492   2.303   3.251   3.952  0.9735  0.9335 -0.2726
 9359TIP3    H249493   2.155   3.267   3.980  0.8472 -0.2440 -0.2009
 9360TIP3   OH249494   1.240   5.929   5.385  0.9279  0.0684  0.2870
 9360TIP3    H149495   1.187   5.880   5.323  1.3137  0.8053 -0.6430
 9360TIP3    H249496   1.182   5.945   5.459  0.1994 -0.0802 -0.2415
 9361TIP3   OH249497   2.950   1.727   5.684 -0.0784 -0.5884  0.1729
 9361TIP3    H149498   2.930   1.707   5.776 -3.5647  2.7003  0.3980
 9361TIP3    H249499   2.900   1.663   5.635  0.8501 -1.6291  0.5561
 9362TIP3   OH249500   2.032   2.899  10.384 -0.0511 -0.4318 -0.8191
 9362TIP3    H149501   1.996   2.812  10.402  0.4960 -0.5927 -0.4569
 9362TIP3    H249502   2.127   2.888  10.394  0.2756 -0.4290 -3.4462
 9363TIP3   OH249503   1.700   4.192  13.353 -0.4298  0.5285 -0.5077
 9363TIP3    H149504   1.757   4.263  13.381 -1.0850  1.2960 -1.0678
 9363TIP3    H249505   1.611   4.224  13.372 -0.6848 -1.0255  1.2765
 9364TIP3   OH249506   2.264   4.276  14.902 -0.1159 -0.8445  0.2677
 9364TIP3    H149507   2.294   4.197  14.946  0.5938 -0.8891 -0.2753
 9364TIP3    H249508   2.280   4.260  14.809 -1.5763 -0.7476 -0.0180
 9365TIP3   OH249509   6.466   1.084   1.035 -0.3494 -0.5012  0.0612
 9365TIP3    H149510   6.423   1.000   1.052  0.2494 -0.1508  4.4313
 9365TIP3    H249511   6.557   1.061   1.018 -0.1154 -0.7877  1.5786
 9366TIP3   OH249512   0.201   2.434   0.517  0.1954 -0.2030  0.5467
 9366TIP3    H149513   0.163   2.376   0.583  1.0355 -0.8386  0.4832
 9366TIP3    H249514   0.216   2.516   0.563 -1.6951  0.2467  0.4565
 9367TIP3   OH249515   3.265   4.477   0.382  0.0707 -0.3626 -0.1855
 9367TIP3    H149516   3.294   4.540   0.447 -0.0748  0.8410 -1.2390
 9367TIP3    H249517   3.303   4.509   0.300 -2.1201 -0.1622 -1.1811
 9368TIP3   OH249518   6.283   2.560   3.298  0.0105 -0.5679  0.1351
 9368TIP3    H149519   6.297   2.482   3.353 -1.9472 -1.4636 -0.5376
 9368TIP3    H249520   6.212   2.607   3.341 -0.2547 -0.2683 -0.6224
 9369TIP3   OH249521   1.909   2.930  15.956  0.0220 -0.2421 -0.3357
 9369TIP3    H149522   1.893   2.885  15.873 -0.4606 -1.6286  0.4727
 9369TIP3    H249523   2.003   2.945  15.957  0.2842 -1.6801 -0.4556
 9370TIP3   OH249524   4.165   3.027  13.213  0.0199 -0.2429  0.3194
 9370TIP3    H149525   4.070   3.032  13.205  0.0294  1.4005  0.9529
 9370TIP3    H249526   4.181   3.024  13.307  0.6449  1.9120  0.3362
 9371TIP3   OH249527   1.391   3.813   2.976  0.0442  0.2300  0.1553
 9371TIP3    H149528   1.410   3.788   3.067 -1.4041 -0.9675  0.1718
 9371TIP3    H249529   1.397   3.731   2.927 -3.2028 -0.0122 -0.0768
 9372TIP3   OH249530   6.580   0.559  15.480 -0.2028 -0.4163  0.2251
 9372TIP3    H149531   6.524   0.538  15.406 -0.3659  0.4396  0.0911
 9372TIP3    H249532   6.661   0.593  15.440 -0.2155 -0.1382  0.4307
 9373TIP3   OH249533   5.954   2.239   5.460  0.0028 -0.0447 -0.0541
 9373TIP3    H149534   5.939   2.321   5.508  0.7938 -0.4361  0.8888
 9373TIP3    H249535   5.975   2.175   5.527  0.9568 -0.6545 -0.9014
 9374TIP3   OH249536   6.114   3.152  15.223 -0.0804 -0.2500 -0.1590
 9374TIP3    H149537   6.165   3.178  15.299  0.2780 -0.3754 -0.3557
 9374TIP3    H249538   6.171   3.093  15.174 -0.7502 -1.1198  0.0896
 9375TIP3   OH249539   6.065   1.049  13.560  0.0891  0.3454  0.0142
 9375TIP3    H149540   6.025   1.090  13.636  1.3620 -2.4244  2.3718
 9375TIP3    H249541   6.137   1.107  13.536 -0.6891  1.5549  0.5072
 9376TIP3   OH249542   6.400   1.982  14.733 -0.5054 -0.2954  0.2440
 9376TIP3    H149543   6.404   2.068  14.692  1.4370 -1.0548 -1.3271
 9376TIP3    H249544   6.332   1.935  14.684 -1.1574  0.1292  0.7238
 9377TIP3   OH249545   0.681   4.545  14.013 -0.0481  0.0268  0.4368
 9377TIP3    H149546   0.754   4.603  13.993 -0.3160  0.3579  0.4211
 9377TIP3    H249547   0.670   4.552  14.107  0.5733 -0.7793  0.5846
 9378TIP3   OH249548   4.358   4.380  14.937  0.5066  0.2855  0.7151
 9378TIP3    H149549   4.395   4.302  14.898  0.0158  0.7981 -0.8383
 9378TIP3    H249550   4.388   4.378  15.028  1.7162 -0.9213  0.3197
 9379TIP3   OH249551   3.461   2.893   0.749 -0.0476  0.2188  0.3005
 9379TIP3    H149552   3.409   2.870   0.672  0.3049 -1.2326  0.4556
 9379TIP3    H249553   3.402   2.877   0.824 -0.2035  1.0746  0.3713
 9380TIP3   OH249554   6.111   6.398   4.889 -0.7285 -0.6202 -0.9278
 9380TIP3    H149555   6.088   6.392   4.797  1.2742 -0.7766 -1.4587
 9380TIP3    H249556   6.179   6.465   4.893 -0.3566 -1.0439  0.3390
 9381TIP3   OH249557   4.105   0.843  15.941 -0.4822  0.3385 -0.0091
 9381TIP3    H149558   4.048   0.771  15.917 -0.2566  0.8425 -2.3054
 9381TIP3    H249559   4.046   0.914  15.967 -0.7977  0.1581 -0.2383
 9382TIP3   OH249560   1.007   0.501   6.390 -0.4506  0.0478  0.5345
 9382TIP3    H149561   0.983   0.488   6.299  0.7212 -0.7124  0.3181
 9382TIP3    H249562   1.084   0.445   6.403  0.0173  0.9245  1.7017
 9383TIP3   OH249563   2.390   5.956   0.447  0.3635  0.9062  0.9542
 9383TIP3    H149564   2.438   5.915   0.375  0.6063  0.4824  1.3519
 9383TIP3    H249565   2.446   5.943   0.524 -0.5949 -0.0399  1.5291
 9384TIP3   OH249566   6.190   5.086  16.588  0.1014  0.5002 -0.5930
 9384TIP3    H149567   6.228   5.009  16.547  1.7763  0.8101  0.2673
 9384TIP3    H249568   6.120   5.113  16.529 -0.8317 -1.9104 -0.6967
 9385TIP3   OH249569   2.511   2.809  12.137 -0.4116  0.7459 -0.2974
 9385TIP3    H149570   2.602   2.818  12.108 -0.2202 -0.0601  0.0323
 9385TIP3    H249571   2.510   2.848  12.224 -0.0045 -0.6383  0.3581
 9386TIP3   OH249572   3.119   1.249   5.509 -0.0492  0.7130 -0.4431
 9386TIP3    H149573   3.208   1.283   5.522  1.1618 -1.8838 -1.2075
 9386TIP3    H249574   3.066   1.327   5.492  1.5402  2.6404  2.3989
 9387TIP3   OH249575   1.498   3.606   5.836 -0.2288 -0.7112 -0.5891
 9387TIP3    H149576   1.424   3.546   5.846 -0.0320 -0.9095 -0.2955
 9387TIP3    H249577   1.463   3.692   5.860 -0.4361 -0.7590 -0.7242
 9388TIP3   OH249578   6.576   4.520   5.052  0.3446  0.2492 -0.3940
 9388TIP3    H149579   6.616   4.596   5.009 -0.0209  0.4769 -0.3257
 9388TIP3    H249580   6.505   4.494   4.994  1.5843 -1.1602 -1.3624
 9389TIP3   OH249581   6.184   4.452  12.558 -0.5090  0.3380 -0.3552
 9389TIP3    H149582   6.178   4.546  12.541  0.4328  0.1803 -1.7101
 9389TIP3    H249583   6.096   4.427  12.587 -0.1204  2.0853  2.7373
 9390TIP3   OH249584   0.391   6.421   0.811 -0.2644 -0.4414  1.3867
 9390TIP3    H149585   0.466   6.363   0.801 -1.6233 -1.8607 -1.5654
 9390TIP3    H249586   0.324   6.367   0.853 -1.6433 -1.3495 -1.6595
 9391TIP3   OH249587   1.135   2.009   2.991 -0.3735 -0.1554 -0.3356
 9391TIP3    H149588   1.145   2.041   2.902 -0.1679  2.4186  0.5283
 9391TIP3    H249589   1.045   2.033   3.016 -0.7030 -1.5496 -0.0735
 9392TIP3   OH249590   1.807   5.919  14.698 -0.5780 -0.0195 -0.2392
 9392TIP3    H149591   1.746   5.990  14.720  0.8673  1.2421 -0.1916
 9392TIP3    H249592   1.779   5.889  14.612 -1.4508  0.3161 -0.0861
 9393TIP3   OH249593   2.904   1.108   3.998 -0.0613 -0.2784 -0.2329
 9393TIP3    H149594   2.960   1.161   3.942 -0.1102  0.0211 -0.0038
 9393TIP3    H249595   2.966   1.061   4.055  0.1307 -2.3209 -1.9833
 9394TIP3   OH249596   0.695   5.518   4.709  0.0214  0.2658  0.0318
 9394TIP3    H149597   0.674   5.441   4.762  2.0823 -0.1301  0.3828
 9394TIP3    H249598   0.785   5.502   4.679 -0.5860  1.1312 -2.4617
 9395TIP3   OH249599   6.010   3.790  12.350  0.2227  0.7220  0.5786
 9395TIP3    H149600   5.917   3.792  12.325 -0.0641  0.3902  1.5899
 9395TIP3    H249601   6.048   3.720  12.297 -0.5343 -0.4652  1.5609
 9396TIP3   OH249602   3.459   3.400   1.364  0.1396 -0.3803 -0.3319
 9396TIP3    H149603   3.470   3.371   1.273  1.6882  0.0693 -0.3229
 9396TIP3    H249604   3.508   3.483   1.368 -1.3160  0.4832  0.5002
 9397TIP3   OH249605   2.924   0.315  12.178 -0.2000 -0.1303 -0.2407
 9397TIP3    H149606   2.894   0.406  12.179 -1.8086 -0.6282 -0.6397
 9397TIP3    H249607   2.995   0.313  12.243 -0.4017  1.3124  0.0609
 9398TIP3   OH249608   4.303   5.649  11.251 -0.1144  0.8018  0.1119
 9398TIP3    H149609   4.329   5.567  11.292 -0.0139  1.2025  0.8459
 9398TIP3    H249610   4.215   5.631  11.217  0.0273  0.2988  0.0014
 9399TIP3   OH249611   3.242   1.500   1.169  0.4282 -0.2202  0.0511
 9399TIP3    H149612   3.151   1.469   1.165  1.1876 -2.7281  0.0147
 9399TIP3    H249613   3.275   1.488   1.080  0.8821  0.3773  0.1349
 9400TIP3   OH249614   4.049   0.875   3.605 -0.3953 -0.2559 -0.2720
 9400TIP3    H149615   4.084   0.879   3.516  1.4436  1.0665  0.4387
 9400TIP3    H249616   3.987   0.948   3.610  0.6160  0.6208 -0.0791
 9401TIP3   OH249617   0.867   1.263  16.566 -0.5585 -0.1899  0.6226
 9401TIP3    H149618   0.952   1.306  16.554  0.4138 -2.1616 -0.0237
 9401TIP3    H249619   0.838   1.290  16.653 -0.3092  2.1826  0.0327
 9402TIP3   OH249620   0.148   5.457  14.268  0.3110  0.1225 -0.3570
 9402TIP3    H149621   0.122   5.497  14.185 -2.1499  1.8677  1.1045
 9402TIP3    H249622   0.068   5.417  14.302  1.4146 -1.1680  0.8818
 9403TIP3   OH249623   0.395   5.993  13.854 -0.1533  0.4926  0.2711
 9403TIP3    H149624   0.300   6.000  13.866 -0.4021 -2.1506  0.3058
 9403TIP3    H249625   0.431   6.034  13.933 -1.2620  1.1156  0.4874
 9404TIP3   OH249626   1.741   5.984   5.953 -0.0844  0.0034  0.1407
 9404TIP3    H149627   1.799   5.933   6.010  0.4691 -1.2933 -1.4927
 9404TIP3    H249628   1.703   6.050   6.010  1.4115 -0.4333  1.7259
 9405TIP3   OH249629   4.608   1.437  15.305  0.5882 -0.2440 -0.7691
 9405TIP3    H149630   4.646   1.462  15.220  1.5750  1.1787  0.0378
 9405TIP3    H249631   4.517   1.464  15.299  0.8366  0.5669 -1.1188
 9406TIP3   OH249632   0.591   3.891   2.372  0.2366 -0.2648 -0.0143
 9406TIP3    H149633   0.666   3.848   2.330  1.0187  0.7713  0.2826
 9406TIP3    H249634   0.540   3.927   2.299 -0.2220 -1.3474 -0.2427
 9407TIP3   OH249635   5.083   3.096  14.709 -0.4807  0.1807 -0.5231
 9407TIP3    H149636   5.039   3.061  14.631 -2.0599 -0.0402  0.4380
 9407TIP3    H249637   5.085   3.024  14.771  1.6934  0.0473 -0.6698
 9408TIP3   OH249638   6.754   1.371   2.352 -0.2498 -0.7383  0.4484
 9408TIP3    H149639   6.744   1.300   2.416  0.1685 -1.7873 -0.6101
 9408TIP3    H249640   6.721   1.448   2.397  0.8843 -1.2447  2.2846
 9409TIP3   OH249641   2.458   4.994   3.541  0.2359 -0.3493  0.0395
 9409TIP3    H149642   2.462   5.077   3.589 -1.2555 -1.1926  1.7479
 9409TIP3    H249643   2.531   4.943   3.576 -0.9089 -1.0012  1.5910
 9410TIP3   OH249644   5.118   3.702  14.188  0.4425 -0.5132  0.3265
 9410TIP3    H149645   5.084   3.766  14.125  3.3113 -2.0601 -3.1082
 9410TIP3    H249646   5.133   3.752  14.267 -3.0452  1.6472 -0.1573
 9411TIP3   OH249647   1.987   3.292   4.955  0.5178 -0.8272 -0.3969
 9411TIP3    H149648   2.066   3.323   4.911 -0.7282  0.5106 -1.7750
 9411TIP3    H249649   1.947   3.370   4.992  0.7278 -1.7222  1.9162
 9412TIP3   OH249650   5.158   5.234  13.329  0.1742  0.5915  0.1630
 9412TIP3    H149651   5.074   5.243  13.375 -0.7607 -2.1018 -0.7771
 9412TIP3    H249652   5.223   5.229  13.399 -0.7096  0.7503  1.0195
 9413TIP3   OH249653   5.555   1.814  16.840  0.4860 -0.1553  0.3963
 9413TIP3    H149654   5.562   1.846  16.750  0.3345  0.5595  0.6316
 9413TIP3    H249655   5.520   1.888  16.889  1.3816 -0.2512  1.2077
 9414TIP3   OH249656   5.783   4.135  11.916  0.1939 -0.2936 -0.0168
 9414TIP3    H149657   5.870   4.146  11.877 -0.2647  0.2145 -0.9263
 9414TIP3    H249658   5.729   4.202  11.873 -1.2984 -2.3156 -1.4573
 9415TIP3   OH249659   3.022   3.626  15.470  0.2467  0.1054  0.2280
 9415TIP3    H149660   2.969   3.625  15.391  0.3365  2.2036  0.0813
 9415TIP3    H249661   3.093   3.687  15.451  0.7009  0.0727  1.6565
 9416TIP3   OH249662   0.848   2.225   3.383  0.5833  0.7314 -0.1647
 9416TIP3    H149663   0.793   2.180   3.318  0.7234  0.0943  0.1484
 9416TIP3    H249664   0.936   2.222   3.345  0.6121  0.6386 -0.0906
 9417TIP3   OH249665   3.596   3.604   1.474 -0.4957 -0.2292 -0.2201
 9417TIP3    H149666   3.576   3.563   1.559  0.4628 -0.3281 -0.0289
 9417TIP3    H249667   3.543   3.684   1.473 -0.3165 -0.0887  0.5953
 9418TIP3   OH249668   4.986   4.444   5.253 -0.4781 -0.1624  1.0068
 9418TIP3    H149669   4.918   4.378   5.243  0.4262 -1.2803  1.9300
 9418TIP3    H249670   4.972   4.481   5.340 -1.0604  1.0118  0.4490
 9419TIP3   OH249671   5.331   6.292  13.158  0.5548 -0.2651 -0.1551
 9419TIP3    H149672   5.277   6.259  13.086 -1.1313 -0.0226  0.9345
 9419TIP3    H249673   5.408   6.330  13.115 -0.1502 -0.6071 -1.7857
 9420TIP3   OH249674   6.288   1.449  12.197  0.2119 -0.1328 -0.2694
 9420TIP3    H149675   6.354   1.492  12.251 -0.9079 -1.9846  2.8318
 9420TIP3    H249676   6.207   1.497  12.214 -0.3490 -1.3151  0.5715
 9421TIP3   OH249677   4.841   2.050   2.577 -0.5352 -0.1301 -0.2409
 9421TIP3    H149678   4.758   2.094   2.592 -1.1067 -1.1974 -0.1872
 9421TIP3    H249679   4.817   1.962   2.549  0.5622  0.1449 -2.1909
 9422TIP3   OH249680   3.589   1.982   2.457  0.3205  0.3006  0.0774
 9422TIP3    H149681   3.664   1.987   2.398 -0.4629  2.2860 -0.8694
 9422TIP3    H249682   3.622   1.941   2.536  2.3139  0.8017 -0.4427
 9423TIP3   OH249683   6.547   5.226   4.163 -0.0321 -0.2566  0.4660
 9423TIP3    H149684   6.574   5.282   4.236 -0.0432  2.0643 -1.2149
 9423TIP3    H249685   6.454   5.242   4.154  0.3079  0.9900 -1.2240
 9424TIP3   OH249686   1.720   1.394   1.959 -0.1501  0.0588 -0.7119
 9424TIP3    H149687   1.649   1.453   1.984  1.3447  1.2543  1.0199
 9424TIP3    H249688   1.738   1.344   2.039  0.7304 -0.4352 -1.2131
 9425TIP3   OH249689   5.567   4.337   0.218 -0.0514 -0.2239  0.2779
 9425TIP3    H149690   5.620   4.384   0.283  0.7741  0.4379 -0.8384
 9425TIP3    H249691   5.631   4.306   0.154 -0.9142 -0.3556 -0.5311
 9426TIP3   OH249692   4.992   1.341   3.140 -0.0798 -0.5023  0.3710
 9426TIP3    H149693   4.936   1.418   3.134  0.6773  0.1688  1.5986
 9426TIP3    H249694   4.932   1.269   3.156 -0.9576 -0.4662 -2.2317
 9427TIP3   OH249695   4.665   6.723   1.765 -0.2781 -0.1071  0.2337
 9427TIP3    H149696   4.584   6.690   1.725 -0.2927  0.9312 -0.6348
 9427TIP3    H249697   4.725   6.733   1.691  0.0330  0.8841  0.6134
 9428TIP3   OH249698   0.152   2.705   5.621 -0.2152  0.0773 -0.4588
 9428TIP3    H149699   0.151   2.757   5.541  0.4919 -0.0977 -0.5914
 9428TIP3    H249700   0.078   2.645   5.612  0.5788 -0.7830 -1.5593
 9429TIP3   OH249701   5.215   1.342   6.128  0.3816 -0.4819  0.1092
 9429TIP3    H149702   5.188   1.428   6.157  0.0438 -0.2382 -0.8863
 9429TIP3    H249703   5.309   1.350   6.112  0.4410 -0.4373  0.4619
 9430TIP3   OH249704   6.684   0.064  16.739 -0.0431 -0.1107 -0.8773
 9430TIP3    H149705   6.627   0.002  16.785 -0.9986  0.2579 -1.5322
 9430TIP3    H249706   6.698   0.026  16.653 -0.6897  0.5980 -1.3073
 9431TIP3   OH249707   4.535   5.904  15.031  0.0289 -0.2544  0.8270
 9431TIP3    H149708   4.485   5.827  15.058  0.0625 -0.7035 -0.3604
 9431TIP3    H249709   4.469   5.971  15.014 -0.0944 -0.4586  0.4916
 9432TIP3   OH249710   5.433   1.619  16.975  0.2534 -0.6671  0.6323
 9432TIP3    H149711   5.472   1.533  16.961  1.3858 -0.1789  0.6860
 9432TIP3    H249712   5.475   1.676  16.911 -1.6581 -0.4656 -0.4978
 9433TIP3   OH249713   1.649   3.872   6.463  0.0696 -0.7874 -0.3719
 9433TIP3    H149714   1.710   3.840   6.530 -1.4928 -0.7108  1.1772
 9433TIP3    H249715   1.691   3.950   6.427  0.9240 -0.7913  0.5698
 9434TIP3   OH249716   1.402   0.531   2.975 -0.2518 -0.2787 -0.1792
 9434TIP3    H149717   1.325   0.527   3.031 -0.2347 -2.4536 -0.2248
 9434TIP3    H249718   1.476   0.522   3.035 -0.0414  0.8616 -0.2357
 9435TIP3   OH249719   1.171   0.463   1.653  0.2442  0.3452 -0.5445
 9435TIP3    H149720   1.148   0.555   1.642 -4.0130 -0.4015  0.5288
 9435TIP3    H249721   1.190   0.453   1.746  1.7654  0.2433 -0.8314
 9436TIP3   OH249722   3.480   0.521  11.861 -0.0330 -0.0642  0.6687
 9436TIP3    H149723   3.520   0.582  11.923  0.4575 -0.4858  0.7745
 9436TIP3    H249724   3.411   0.572  11.819  3.9322  2.6915 -3.6463
 9437TIP3   OH249725   1.929   4.274  13.966 -0.3863  0.7133 -0.3012
 9437TIP3    H149726   1.864   4.282  13.896  1.3258  0.2576 -2.0246
 9437TIP3    H249727   1.980   4.354  13.962  0.8373 -0.0545 -0.8022
 9438TIP3   OH249728   3.164   5.464   4.842  0.4379 -0.2590  0.0394
 9438TIP3    H149729   3.102   5.509   4.784 -1.4070 -1.7754  0.7196
 9438TIP3    H249730   3.127   5.376   4.852  2.3880 -1.0185  1.0230
 9439TIP3   OH249731   4.780   1.934   3.992 -0.3560  0.0291  0.5506
 9439TIP3    H149732   4.732   1.878   4.054  0.0331  0.9054  1.6693
 9439TIP3    H249733   4.804   2.011   4.043  0.6781  0.4135 -0.4878
 9440TIP3   OH249734   4.311   6.737   0.690 -0.0508 -0.9242  0.1840
 9440TIP3    H149735   4.332   6.703   0.777  1.0058  1.5328  0.9698
 9440TIP3    H249736   4.394   6.774   0.658 -0.9887  0.4218 -0.7959
 9441TIP3   OH249737   2.480   1.046   0.733  0.2476 -0.2796  0.3444
 9441TIP3    H149738   2.563   1.014   0.768  0.7163  0.2555 -0.2428
 9441TIP3    H249739   2.464   1.129   0.779 -0.3339 -0.7318  0.9742
 9442TIP3   OH249740   0.458   3.949  15.496 -0.0455  0.5662 -1.4802
 9442TIP3    H149741   0.478   3.876  15.437 -2.7341  0.9434 -3.0377
 9442TIP3    H249742   0.505   4.023  15.458  0.4256  0.2316 -1.5595
 9443TIP3   OH249743   2.856   4.411  11.625 -0.4172  0.1693  0.2878
 9443TIP3    H149744   2.868   4.398  11.530 -1.8971 -1.2325  0.2670
 9443TIP3    H249745   2.925   4.358  11.665 -0.2419  0.1907  0.0202
 9444TIP3   OH249746   4.667   0.368  13.266 -0.6269 -0.2223 -0.8184
 9444TIP3    H149747   4.744   0.319  13.295 -0.2925  0.2721 -0.8523
 9444TIP3    H249748   4.598   0.302  13.258 -0.2475 -0.6472 -0.6431
 9445TIP3   OH249749   5.172   5.309   5.629  0.4100  0.6048  0.0112
 9445TIP3    H149750   5.213   5.263   5.703  0.7204 -0.0805 -0.5672
 9445TIP3    H249751   5.087   5.267   5.619  0.6579  0.2082 -0.4625
 9446TIP3   OH249752   3.601   6.622   0.863 -0.8066  0.0411 -0.5671
 9446TIP3    H149753   3.684   6.640   0.819 -0.0071  0.7106  1.1240
 9446TIP3    H249754   3.566   6.708   0.884 -1.7539 -0.2467 -0.9365
 9447TIP3   OH249755   6.727   2.016  12.364  0.2426  0.1091  0.1741
 9447TIP3    H149756   6.753   1.940  12.416  0.8382 -0.1941 -0.5552
 9447TIP3    H249757   6.642   1.991  12.327  1.2134 -0.9478 -1.4754
 9448TIP3   OH249758   1.415   1.536  12.846  0.2778 -0.2722  0.1381
 9448TIP3    H149759   1.406   1.548  12.940  0.3084 -0.7859  0.2098
 9448TIP3    H249760   1.382   1.617  12.807  0.3149 -0.0408  0.5914
 9449TIP3   OH249761   3.804   2.201   1.891  0.7661  0.4183 -0.3138
 9449TIP3    H149762   3.734   2.183   1.827  0.7976 -0.6448 -0.0559
 9449TIP3    H249763   3.814   2.119   1.939  0.8171  1.1790  1.0023
 9450TIP3   OH249764   4.396   2.448  16.075  0.4073  0.5960 -0.1039
 9450TIP3    H149765   4.484   2.412  16.079  0.3133  0.1401 -1.5801
 9450TIP3    H249766   4.405   2.538  16.106  1.0228 -0.0051  1.5959
 9451TIP3   OH249767   4.741   0.952  14.645 -0.3062  0.2701 -0.4269
 9451TIP3    H149768   4.673   0.886  14.657 -1.5791  1.6310  0.2411
 9451TIP3    H249769   4.752   0.991  14.731  2.0448 -0.5424 -0.3105
 9452TIP3   OH249770   2.470   4.652  17.171  0.2218 -0.6173  0.6542
 9452TIP3    H149771   2.423   4.638  17.089  0.4507  1.0729  0.1945
 9452TIP3    H249772   2.462   4.569  17.218  0.9954 -2.0144 -1.5140
 9453TIP3   OH249773   5.043   5.471  11.978  0.4978 -0.4575 -0.4748
 9453TIP3    H149774   5.017   5.548  12.030  2.0484  0.0112 -0.3196
 9453TIP3    H249775   5.117   5.502  11.926 -0.1409 -1.3146 -1.9501
 9454TIP3   OH249776   2.757   3.419  15.581  0.0054  0.0372 -0.2336
 9454TIP3    H149777   2.814   3.442  15.654 -1.2530 -1.5833  1.3426
 9454TIP3    H249778   2.678   3.472  15.595 -0.5408 -0.8337  0.0294
 9455TIP3   OH249779   4.546   3.700   4.965 -0.0472  0.2382 -0.0412
 9455TIP3    H149780   4.636   3.679   4.990  0.0394  0.4156 -0.1985
 9455TIP3    H249781   4.556   3.762   4.893 -0.2108 -1.9880 -2.1453
 9456TIP3   OH249782   4.053   2.650   5.005 -0.3632  0.0300  0.6322
 9456TIP3    H149783   4.138   2.606   5.004 -0.1071  0.4988 -1.1473
 9456TIP3    H249784   4.020   2.639   4.916 -1.3152  1.4653  0.7895
 9457TIP3   OH249785   6.228   2.124   1.492  0.2095 -0.5037  0.2299
 9457TIP3    H149786   6.200   2.172   1.413  0.6176  1.9407  1.4871
 9457TIP3    H249787   6.172   2.158   1.561  0.6039 -1.8087  1.2111
 9458TIP3   OH249788   5.388   3.446   5.096  0.1794 -0.6031 -0.5292
 9458TIP3    H149789   5.341   3.529   5.101  0.5863 -0.3684 -0.6048
 9458TIP3    H249790   5.398   3.430   5.002 -0.7372 -1.2188 -0.5427
 9459TIP3   OH249791   2.901   5.422   3.969  0.5236 -0.2374  0.1286
 9459TIP3    H149792   2.991   5.390   3.970  1.3331  1.8194 -0.9918
 9459TIP3    H249793   2.850   5.351   4.009  2.6768 -1.2487  1.2611
 9460TIP3   OH249794   0.049   3.975   1.044  0.1267  0.5342 -0.1999
 9460TIP3    H149795  -0.022   4.024   1.003 -0.3168  0.2242  0.1997
 9460TIP3    H249796   0.006   3.904   1.091  0.4996  1.6830  2.0045
 9461TIP3   OH249797   6.157   0.647   3.904 -0.2727  0.3996 -0.1030
 9461TIP3    H149798   6.218   0.710   3.865 -0.7742  1.4292  0.7202
 9461TIP3    H249799   6.171   0.566   3.854  0.9332  0.9369 -0.6829
 9462TIP3   OH249800   3.217   3.938  11.690 -0.2724 -0.2534  0.6143
 9462TIP3    H149801   3.159   3.987  11.631  1.1618 -0.7846 -1.3356
 9462TIP3    H249802   3.185   3.848  11.686 -0.6364 -0.1613  1.2805
 9463TIP3   OH249803   5.425   4.046  12.605 -0.1498 -0.1502 -0.1762
 9463TIP3    H149804   5.454   4.078  12.690 -1.7119  0.5995  0.1214
 9463TIP3    H249805   5.471   4.101  12.542 -0.5551  0.7161  0.2603
 9464TIP3   OH249806   4.964   6.489  13.540 -0.7108 -0.1220  0.1820
 9464TIP3    H149807   5.056   6.472  13.559 -0.5762  0.5727  0.1996
 9464TIP3    H249808   4.936   6.550  13.608 -0.7206  0.9747 -0.7617
 9465TIP3   OH249809   4.576   4.395   4.444 -0.5075  0.9549  0.0155
 9465TIP3    H149810   4.573   4.478   4.395 -1.3212 -0.3014 -2.2376
 9465TIP3    H249811   4.641   4.342   4.397 -3.0252 -1.1708 -1.3867
 9466TIP3   OH249812   1.413   4.526   2.950 -0.0489 -0.6525 -0.4201
 9466TIP3    H149813   1.349   4.455   2.960 -0.9978  0.3760  1.3167
 9466TIP3    H249814   1.361   4.606   2.956  1.4727  0.2702  2.5954
 9467TIP3   OH249815   5.490   5.797  14.561  0.1416 -0.1368 -0.6018
 9467TIP3    H149816   5.509   5.703  14.561  0.7178 -0.0348  0.6837
 9467TIP3    H249817   5.568   5.836  14.520  1.0527 -0.0456  1.1148
 9468TIP3   OH249818   6.695   3.869   4.441 -0.1836  0.0367  0.6705
 9468TIP3    H149819   6.608   3.896   4.412 -2.1053 -2.9337  3.0973
 9468TIP3    H249820   6.700   3.776   4.419  1.9918 -0.1172  1.5520
 9469TIP3   OH249821   6.451   5.516   3.085 -0.2845  0.0377 -0.5595
 9469TIP3    H149822   6.464   5.471   3.002  1.1076 -2.0321  0.6658
 9469TIP3    H249823   6.412   5.600   3.062 -0.9978 -0.9212 -3.1799
 9470TIP3   OH249824   4.787   0.892   4.729 -0.2736  0.3706  0.3292
 9470TIP3    H149825   4.799   0.962   4.794  0.2217 -0.0110  0.6551
 9470TIP3    H249826   4.695   0.867   4.737 -0.6657  1.5096 -0.3281
 9471TIP3   OH249827   3.096   4.538   3.304 -0.3452  0.6073 -0.4436
 9471TIP3    H149828   3.074   4.547   3.397 -0.7587 -0.2635 -0.4479
 9471TIP3    H249829   3.115   4.627   3.276 -3.7869  1.5188 -0.4143
 9472TIP3   OH249830   1.879   0.806   3.045  0.4352 -0.1995 -0.0848
 9472TIP3    H149831   1.861   0.822   2.953  1.1941  2.3488  0.1205
 9472TIP3    H249832   1.875   0.893   3.086  0.8919 -1.1440  2.1446
 9473TIP3   OH249833   3.926   3.092  11.152 -0.7577 -0.4782 -0.3202
 9473TIP3    H149834   3.953   3.003  11.130  0.2787 -0.1938 -0.2776
 9473TIP3    H249835   3.983   3.148  11.099  1.9374  0.2383  2.9869
 9474TIP3   OH249836   4.729   5.344  14.691  0.0873 -0.0458 -0.4240
 9474TIP3    H149837   4.722   5.439  14.687 -1.0387 -0.1212 -0.6185
 9474TIP3    H249838   4.823   5.326  14.685  0.4036  1.0978  0.6332
 9475TIP3   OH249839   3.317   2.582  13.033 -0.3873 -0.2407 -0.2276
 9475TIP3    H149840   3.255   2.512  13.051  0.1632 -0.5859  0.3802
 9475TIP3    H249841   3.285   2.657  13.083 -1.1122  0.0377 -1.0700
 9476TIP3   OH249842   1.282   5.321  17.111  0.0811  0.3620 -0.5296
 9476TIP3    H149843   1.290   5.377  17.034  0.6461  0.2864 -0.5314
 9476TIP3    H249844   1.236   5.375  17.175  0.0064  0.5841 -0.7678
 9477TIP3   OH249845   6.209   3.778   5.091  0.6969 -0.0364  0.8358
 9477TIP3    H149846   6.121   3.766   5.055  1.6210  1.0972 -2.1776
 9477TIP3    H249847   6.201   3.851   5.151 -0.3743  0.2968  0.3140
 9478TIP3   OH249848   5.738   5.758  15.844 -0.3019 -0.1524 -0.3481
 9478TIP3    H149849   5.805   5.690  15.837  0.5340  0.6064  0.1054
 9478TIP3    H249850   5.711   5.756  15.936  0.6569  0.9821 -0.0266
 9479TIP3   OH249851   0.390   2.646   0.237  0.6875  0.2035 -0.1268
 9479TIP3    H149852   0.375   2.703   0.312  1.0699  2.2443 -1.4886
 9479TIP3    H249853   0.365   2.700   0.161 -1.1969 -2.2887 -1.4146
 9480TIP3   OH249854   0.647   2.605   4.417  0.2389  0.1792 -0.1062
 9480TIP3    H149855   0.650   2.701   4.410  1.0422  0.1765  0.1283
 9480TIP3    H249856   0.730   2.582   4.458 -0.4649 -0.5277  0.9715
 9481TIP3   OH249857   2.847   4.290   1.730  0.1389 -0.3869 -0.2445
 9481TIP3    H149858   2.929   4.332   1.754  0.7133 -0.9792 -1.1249
 9481TIP3    H249859   2.804   4.271   1.814  1.0388 -0.3476  0.2362
 9482TIP3   OH249860   1.329   4.400   1.426 -0.2598 -0.1385  0.8324
 9482TIP3    H149861   1.278   4.481   1.422 -0.0801 -0.0333  0.6622
 9482TIP3    H249862   1.273   4.334   1.386 -0.2944 -0.0392  0.7166
 9483TIP3   OH249863   4.987   0.503   5.084 -0.2698 -0.2777 -0.0990
 9483TIP3    H149864   4.899   0.512   5.047  0.5819  0.7446 -2.0649
 9483TIP3    H249865   4.982   0.543   5.170 -1.5888  0.3155 -0.4308
 9484TIP3   OH249866   3.616   4.096   5.584  0.6150 -0.7244 -0.0543
 9484TIP3    H149867   3.577   4.100   5.672 -0.2151 -0.3788 -0.4207
 9484TIP3    H249868   3.646   4.006   5.575 -0.9388 -1.2834 -0.0686
 9485TIP3   OH249869   2.084   4.602  13.466  0.1121  0.9792  0.3936
 9485TIP3    H149870   2.083   4.696  13.481 -0.5910  1.5017 -2.4857
 9485TIP3    H249871   2.165   4.586  13.418 -0.6661  0.4604 -0.7990
 9486TIP3   OH249872   3.315   0.719  11.195  0.2808  0.7666  0.9740
 9486TIP3    H149873   3.397   0.760  11.222  0.4089  0.8857  0.3961
 9486TIP3    H249874   3.323   0.707  11.101 -0.2114  0.4304  0.9697
 9487TIP3   OH249875   0.216   6.657   0.944  0.0282  0.8040  0.1757
 9487TIP3    H149876   0.283   6.621   0.887  0.1194  2.3499 -0.7441
 9487TIP3    H249877   0.253   6.648   1.032  1.3780  1.4396 -0.2933
 9488TIP3   OH249878   4.810   1.641  12.616  0.2700 -0.3588  0.3774
 9488TIP3    H149879   4.742   1.668  12.554  0.3850  0.6530  0.6618
 9488TIP3    H249880   4.852   1.566  12.575  0.1898  0.1498 -0.6673
 9489TIP3   OH249881   5.008   5.237   3.430  0.2705  0.3075 -0.4750
 9489TIP3    H149882   4.986   5.315   3.379  1.8073  3.0637  2.6899
 9489TIP3    H249883   4.943   5.235   3.501  0.8121 -0.7313  0.0184
 9490TIP3   OH249884   3.978   6.406   1.564  0.8006 -0.1315  0.0022
 9490TIP3    H149885   4.051   6.375   1.617  0.3544 -2.3346 -0.5829
 9490TIP3    H249886   3.913   6.435   1.628  1.4537  0.0807  0.5764
 9491TIP3   OH249887   0.638   3.265   5.563  0.1726  0.1271 -0.2645
 9491TIP3    H149888   0.709   3.319   5.530 -0.9641  0.7011 -1.8844
 9491TIP3    H249889   0.559   3.298   5.520 -0.8351 -1.6281  0.0919
 9492TIP3   OH249890   1.190   4.702  16.049  0.4066  0.0035 -0.2287
 9492TIP3    H149891   1.247   4.659  16.113 -0.8312 -0.9399  0.2911
 9492TIP3    H249892   1.139   4.631  16.011  0.4020  0.6817 -1.5395
 9493TIP3   OH249893   0.772   4.797   1.351  0.5198 -0.4001  0.0480
 9493TIP3    H149894   0.683   4.768   1.374  1.0907 -1.4582  1.0197
 9493TIP3    H249895   0.829   4.734   1.393  1.8258  1.6241  1.4811
 9494TIP3   OH249896   2.383   2.802  12.617 -0.0124  0.9653  0.1153
 9494TIP3    H149897   2.358   2.723  12.664  0.3302  1.4032  1.0552
 9494TIP3    H249898   2.372   2.873  12.680 -2.1621  1.9779 -1.2567
 9495TIP3   OH249899   4.862   3.967   4.558 -0.3464  0.0971 -0.1152
 9495TIP3    H149900   4.898   3.994   4.474 -0.7787  1.2118  0.0430
 9495TIP3    H249901   4.774   4.006   4.560 -0.9810 -1.2923  0.1592
 9496TIP3   OH249902   5.871   0.595  11.126  0.3750 -0.6521 -0.8106
 9496TIP3    H149903   5.820   0.632  11.198  1.0759  0.3343 -0.8014
 9496TIP3    H249904   5.896   0.670  11.072  0.2747 -1.3211 -1.8249
 9497TIP3   OH249905   4.546   3.022   6.080 -0.2053 -0.2633  0.1994
 9497TIP3    H149906   4.567   2.937   6.120  0.1398 -0.7771 -1.0367
 9497TIP3    H249907   4.588   3.086   6.137 -0.2533 -0.9371  1.0114
 9498TIP3   OH249908   0.412   2.592   6.240 -0.1961 -0.0141 -0.9228
 9498TIP3    H149909   0.361   2.673   6.243  1.1863  0.8648  0.4482
 9498TIP3    H249910   0.403   2.562   6.150 -1.5112  1.1387 -1.2239
 9499TIP3   OH249911   0.147   3.182   1.516  0.2731  0.5231  0.0792
 9499TIP3    H149912   0.093   3.216   1.588  0.6150  1.0686  0.0852
 9499TIP3    H249913   0.085   3.138   1.458 -0.1146  0.7710  0.3004
 9500TIP3   OH249914   5.274   4.923  11.606  0.7582 -0.4336  0.0353
 9500TIP3    H149915   5.261   4.917  11.700  2.5937 -2.8790  0.2343
 9500TIP3    H249916   5.211   4.861  11.568  2.5000 -2.3129  0.0284
 9501TIP3   OH249917   0.280   0.333  11.872  0.3790 -0.2724 -0.1459
 9501TIP3    H149918   0.318   0.337  11.960 -0.5847  0.5157  0.2557
 9501TIP3    H249919   0.353   0.353  11.814  1.6320 -3.2303  0.2472
 9502TIP3   OH249920   4.979   4.018   4.256 -0.7663  0.4165  0.3948
 9502TIP3    H149921   4.915   3.985   4.194 -0.4473  0.1104  0.2239
 9502TIP3    H249922   5.036   3.943   4.275  0.1582  0.9356 -0.2353
 9503TIP3   OH249923   5.159   6.629   2.842  0.1950 -0.4535  0.2104
 9503TIP3    H149924   5.086   6.637   2.904  0.7011 -1.5096  0.9711
 9503TIP3    H249925   5.129   6.564   2.779  1.2317 -2.5235  1.7286
 9504TIP3   OH249926   4.911   5.623   5.388 -0.0364  0.3889  0.1420
 9504TIP3    H149927   4.871   5.701   5.349  0.5444  0.0847 -1.1321
 9504TIP3    H249928   4.873   5.550   5.339 -0.0634 -0.0894  0.8595
 9505TIP3   OH249929   6.088   5.695  14.851  0.5115 -0.3911 -0.2260
 9505TIP3    H149930   6.050   5.614  14.884  1.2261 -0.7594 -0.2952
 9505TIP3    H249931   6.058   5.763  14.912  0.7536 -0.8600  0.4187
 9506TIP3   OH249932   0.538   2.489   2.300 -0.0189  0.2399  0.2656
 9506TIP3    H149933   0.629   2.461   2.312  0.5528  1.0000 -1.7355
 9506TIP3    H249934   0.486   2.424   2.347  1.3929 -2.2027 -1.2988
 9507TIP3   OH249935   2.594   6.087  14.017  0.0434 -0.3938  0.0659
 9507TIP3    H149936   2.500   6.094  14.001 -0.0584 -1.3980  0.1507
 9507TIP3    H249937   2.602   6.089  14.113  0.1338 -0.0006  0.0484
 9508TIP3   OH249938   3.839   4.390   1.970  0.4500 -0.0463 -0.1071
 9508TIP3    H149939   3.795   4.472   1.992  1.4497  0.6224 -0.5226
 9508TIP3    H249940   3.781   4.347   1.907 -1.0466 -0.6365  1.5979
 9509TIP3   OH249941   1.776   4.515  14.887  0.4868 -0.8002  0.4442
 9509TIP3    H149942   1.849   4.458  14.863  0.3364 -0.9821  0.4248
 9509TIP3    H249943   1.716   4.509  14.813  0.9188  0.1357 -0.0063
 9510TIP3   OH249944   5.195   6.580   2.375  0.0291  0.8595  0.1635
 9510TIP3    H149945   5.274   6.627   2.347 -0.3821  0.7604 -1.2415
 9510TIP3    H249946   5.123   6.627   2.333 -0.3870 -1.0798 -1.4547
 9511TIP3   OH249947   0.647   5.276   4.822 -0.3230  0.6286 -0.4694
 9511TIP3    H149948   0.574   5.226   4.858 -0.6982  1.1153 -0.5387
 9511TIP3    H249949   0.718   5.263   4.883 -0.7366  0.8604  0.0704
 9512TIP3   OH249950   4.854   0.031   2.382  0.4886 -0.3071  0.6224
 9512TIP3    H149951   4.851   0.011   2.475 -1.9290  0.2866  0.7369
 9512TIP3    H249952   4.849   0.126   2.378 -2.4432 -0.3859 -0.0611
 9513TIP3   OH249953   0.750   5.831  11.001 -0.1934  0.1839  0.0593
 9513TIP3    H149954   0.832   5.839  10.953  0.2977 -0.8967  0.6793
 9513TIP3    H249955   0.746   5.910  11.055 -0.1511  0.8026 -0.8214
 9514TIP3   OH249956   3.194   1.096  14.650  0.2535 -0.8299  0.1709
 9514TIP3    H149957   3.221   1.017  14.698  0.3968 -1.0451 -0.2587
 9514TIP3    H249958   3.265   1.158  14.664 -0.2344 -0.4833  1.1889
 9515TIP3   OH249959   0.602   1.683  17.059 -0.5068 -0.4327  0.2434
 9515TIP3    H149960   0.692   1.681  17.029 -0.4517  0.7739  0.2743
 9515TIP3    H249961   0.557   1.618  17.006  0.6996 -2.2835  1.3727
 9516TIP3   OH249962   0.075   4.247  16.236 -0.4520  0.2718  0.6142
 9516TIP3    H149963  -0.004   4.201  16.211  0.0730 -0.8003  0.8802
 9516TIP3    H249964   0.085   4.230  16.330  0.6357 -0.4656  0.3784
 9517TIP3   OH249965   5.444   5.473  13.238 -0.1820  0.6148  1.0084
 9517TIP3    H149966   5.530   5.515  13.246  0.0542  1.4972 -3.3088
 9517TIP3    H249967   5.463   5.390  13.194 -1.4308  0.4335  0.7741
 9518TIP3   OH249968   2.049   2.343  12.118  0.1297 -0.2702  0.0633
 9518TIP3    H149969   2.137   2.305  12.122  0.0660 -0.5421 -0.7451
 9518TIP3    H249970   2.049   2.392  12.036 -0.6553 -0.7691 -0.2435
 9519TIP3   OH249971   5.343   2.128   3.245 -0.2976  0.4275  0.0304
 9519TIP3    H149972   5.263   2.080   3.268 -0.3926  0.8409  0.5868
 9519TIP3    H249973   5.383   2.076   3.175 -0.9467  0.1087 -0.1120
 9520TIP3   OH249974   5.578   0.429   0.488  0.0084 -0.5152 -0.3985
 9520TIP3    H149975   5.489   0.397   0.468 -0.4529 -1.5166  2.7466
 9520TIP3    H249976   5.634   0.353   0.472  0.1307 -0.2669 -1.1650
 9521TIP3   OH249977   4.488   5.264   6.272 -0.3842 -0.7123 -0.4077
 9521TIP3    H149978   4.563   5.323   6.284  0.0168 -1.4320  0.7263
 9521TIP3    H249979   4.414   5.323   6.258  0.3842  0.0186 -1.6466
 9522TIP3   OH249980   1.421   3.331   3.535  0.3491 -0.1381 -0.1495
 9522TIP3    H149981   1.381   3.267   3.593  0.8916 -0.0797  0.2990
 9522TIP3    H249982   1.371   3.325   3.454 -1.0079  0.4078  0.6049
 9523TIP3   OH249983   4.019   2.475  14.823 -0.0324 -0.3695  0.4485
 9523TIP3    H149984   3.939   2.462  14.873  0.2117  0.9904  1.2334
 9523TIP3    H249985   4.060   2.388  14.819 -0.6459 -0.7199  1.5745
 9524TIP3   OH249986   5.369   2.876  15.961  1.0324 -0.4291  0.2749
 9524TIP3    H149987   5.405   2.793  15.928  1.9024  0.4046 -0.9654
 9524TIP3    H249988   5.444   2.923  15.996  0.4652 -0.3263  1.4008
 9525TIP3   OH249989   2.604   1.344   2.789 -0.0288  0.5261  0.2613
 9525TIP3    H149990   2.563   1.283   2.728 -0.7026 -0.7039  1.8607
 9525TIP3    H249991   2.541   1.416   2.797 -1.1982 -0.5766  1.4614
 9526TIP3   OH249992   2.984   5.222   3.220 -0.2073 -0.2485  0.3110
 9526TIP3    H149993   2.911   5.262   3.268 -0.4718 -0.3922  0.0255
 9526TIP3    H249994   3.042   5.296   3.199 -1.2226  0.1560 -1.1588
 9527TIP3   OH249995   4.482   4.618  12.993  0.7772  0.2924 -0.3835
 9527TIP3    H149996   4.549   4.686  12.991  1.2060  0.3589  4.2299
 9527TIP3    H249997   4.433   4.635  13.073 -1.8503 -2.4269 -1.2148
 9528TIP3   OH249998   0.283   4.253   3.946  0.3484  0.2615 -0.6460
 9528TIP3    H149999   0.334   4.220   3.872 -1.6239 -0.1697 -1.8861
 9528TIP3    H250000   0.249   4.174   3.988  1.5854  0.4936  0.8720
 9529TIP3   OH250001   2.910   6.511  14.750 -0.0816 -0.4016  0.0482
 9529TIP3    H150002   2.849   6.447  14.786  1.1971 -0.8722  1.5521
 9529TIP3    H250003   2.994   6.464  14.745  0.2575  0.2999 -1.6660
 9530TIP3   OH250004   6.011   4.413  12.837  0.1037  0.6391  0.2858
 9530TIP3    H150005   5.976   4.410  12.748  0.5860  0.6303  0.0981
 9530TIP3    H250006   5.944   4.369  12.890  0.1919 -0.0741 -0.1881
 9531TIP3   OH250007   1.004   3.194  13.469 -0.5199 -0.0542 -0.2613
 9531TIP3    H150008   0.965   3.112  13.439 -0.0123 -0.9822  1.5018
 9531TIP3    H250009   1.069   3.168  13.533  1.5696  1.5835 -1.5723
 9532TIP3   OH250010   1.468   5.866   4.553  0.4770 -0.3643 -0.6617
 9532TIP3    H150011   1.510   5.841   4.635  2.6313 -1.1078 -1.9003
 9532TIP3    H250012   1.498   5.956   4.538  0.2202 -0.2886 -0.7252
 9533TIP3   OH250013   2.089   5.161  14.848  0.3899 -0.2508  0.3979
 9533TIP3    H150014   2.024   5.148  14.778  0.7832 -0.2675  0.0321
 9533TIP3    H250015   2.162   5.104  14.823  0.2955 -0.7051  1.1315
 9534TIP3   OH250016   4.170   1.361  14.754 -0.1706  0.0884 -0.0592
 9534TIP3    H150017   4.218   1.327  14.678 -0.0768 -0.9200  0.4342
 9534TIP3    H250018   4.182   1.295  14.822 -1.6344  0.1767  0.3206
 9535TIP3   OH250019   5.006   4.547  11.611 -0.3453  0.8889 -0.0967
 9535TIP3    H150020   5.080   4.590  11.569  0.6368  0.3108  0.9659
 9535TIP3    H250021   4.928   4.593  11.578  0.4572  1.3322 -1.4416
 9536TIP3   OH250022   4.822   3.382   1.172 -0.1073  0.3735  0.2633
 9536TIP3    H150023   4.891   3.414   1.230  0.6711  0.1875 -0.5349
 9536TIP3    H250024   4.813   3.450   1.106  0.2569 -0.1893 -0.3862
 9537TIP3   OH250025   5.483   2.873   3.065 -0.2328  0.4421 -0.4391
 9537TIP3    H150026   5.500   2.960   3.103  0.3840  0.6461 -1.1508
 9537TIP3    H250027   5.482   2.889   2.971 -2.1964  0.0266 -0.5235
 9538TIP3   OH250028   4.336   1.520   1.708  0.4126 -0.2346  1.2659
 9538TIP3    H150029   4.331   1.608   1.672  1.0194 -0.5277  0.4581
 9538TIP3    H250030   4.282   1.467   1.650  1.5873 -0.7551  0.6183
 9539TIP3   OH250031   0.909   3.561  13.562 -0.8878  0.5193  0.1699
 9539TIP3    H150032   0.832   3.615  13.578 -1.3450 -0.1718  0.2948
 9539TIP3    H250033   0.967   3.618  13.511 -1.0775  1.3628  0.8685
 9540TIP3   OH250034   2.966   2.253   2.682  0.1319 -0.0270  0.2174
 9540TIP3    H150035   2.958   2.268   2.588  0.1582 -1.0437  0.0394
 9540TIP3    H250036   2.876   2.243   2.713  0.1362  0.0460  0.2542
 9541TIP3   OH250037   3.904   5.764   0.113 -0.1810 -0.6878 -0.3192
 9541TIP3    H150038   3.811   5.757   0.134 -0.0278  0.2850  0.7703
 9541TIP3    H250039   3.908   5.750   0.018 -1.5607  0.2901 -0.5441
 9542TIP3   OH250040   2.840   1.997   5.746 -0.3953  0.4763  0.1502
 9542TIP3    H150041   2.777   2.035   5.686  0.2636  0.6004 -0.4791
 9542TIP3    H250042   2.866   1.914   5.705 -0.6390  0.1076  0.7288
 9543TIP3   OH250043   1.491   6.009   5.615  0.3876 -0.4464 -0.1389
 9543TIP3    H150044   1.452   5.966   5.692  0.6765  2.0900  1.5718
 9543TIP3    H250045   1.585   5.999   5.627  0.5888  2.2088  1.4525
 9544TIP3   OH250046   3.866   2.742   2.501  0.0311  0.1457  0.0570
 9544TIP3    H150047   3.804   2.757   2.573  1.1255 -0.3485  1.1312
 9544TIP3    H250048   3.825   2.784   2.426 -1.7511 -0.4028  0.6640
 9545TIP3   OH250049   1.905   2.664   5.829  0.1272 -0.2429 -0.0464
 9545TIP3    H150050   1.813   2.689   5.836  0.0051 -0.9563  1.5136
 9545TIP3    H250051   1.902   2.569   5.814  0.6139 -0.0374 -1.5878
 9546TIP3   OH250052   2.262   1.160  14.049  0.0124 -0.2658 -0.4526
 9546TIP3    H150053   2.342   1.121  14.084  0.8318  2.1421  0.5177
 9546TIP3    H250054   2.289   1.201  13.967 -0.2971  0.3225 -0.2614
 9547TIP3   OH250055   5.050   1.863  16.572 -0.0473  0.2791 -0.7658
 9547TIP3    H150056   4.968   1.877  16.525 -0.2146  0.1962 -0.5006
 9547TIP3    H250057   5.053   1.769  16.589  0.1838  0.2565 -0.9202
 9548TIP3   OH250058   1.803   4.366  11.898 -0.0039 -0.3066  0.1320
 9548TIP3    H150059   1.881   4.401  11.855 -0.3843  0.7631  0.2814
 9548TIP3    H250060   1.730   4.396  11.845 -0.4962  1.2346  1.5854
 9549TIP3   OH250061   1.772   4.079   4.674  0.6003 -0.1470  0.1076
 9549TIP3    H150062   1.795   4.158   4.722  0.4169 -0.3052  0.4595
 9549TIP3    H250063   1.738   4.111   4.590  1.1306  0.1199 -0.0054
 9550TIP3   OH250064   0.869   0.921   3.643  0.1079 -0.7568 -1.0356
 9550TIP3    H150065   0.881   0.988   3.575  0.7699 -0.4768 -0.6434
 9550TIP3    H250066   0.952   0.919   3.690 -1.2584  1.2946  1.7776
 9551TIP3   OH250067   0.943   2.131  12.884 -0.1584  0.3226 -0.2674
 9551TIP3    H150068   0.908   2.055  12.931 -0.8128 -0.7867 -2.4229
 9551TIP3    H250069   0.946   2.200  12.950 -1.9220 -0.8721  1.1786
 9552TIP3   OH250070   0.916   6.392  16.343 -0.4443 -0.0204  0.1725
 9552TIP3    H150071   0.884   6.464  16.396  0.1276  0.9226 -0.7352
 9552TIP3    H250072   0.979   6.432  16.282  2.1376 -1.7036  1.5440
 9553TIP3   OH250073   1.011   3.531  14.710  0.0503 -0.9704 -0.0493
 9553TIP3    H150074   1.084   3.592  14.714 -0.1653 -0.7340  0.2882
 9553TIP3    H250075   1.051   3.447  14.685  0.2279 -0.5070 -1.4040
 9554TIP3   OH250076   6.110   5.256   1.704  0.0686 -0.6681  0.1647
 9554TIP3    H150077   6.171   5.324   1.732 -0.8056  1.0564 -1.8499
 9554TIP3    H250078   6.036   5.263   1.764 -0.2740  0.6181 -0.3775
 9555TIP3   OH250079   0.271   3.710  12.896  0.0114 -0.4454 -0.0012
 9555TIP3    H150080   0.194   3.653  12.897 -0.5231  0.2325  1.3697
 9555TIP3    H250081   0.270   3.753  12.982  0.1854  1.8949 -1.0694
 9556TIP3   OH250082   6.079   5.305   4.746 -0.3466  0.1964 -0.2471
 9556TIP3    H150083   6.056   5.234   4.806  1.5584  0.1083  0.4454
 9556TIP3    H250084   6.117   5.260   4.670  0.3063  0.4538 -0.0723
 9557TIP3   OH250085   0.223   3.095   4.300  0.3579  0.3624  0.1058
 9557TIP3    H150086   0.309   3.134   4.283 -0.1213  0.8004 -1.4807
 9557TIP3    H250087   0.170   3.167   4.335  0.6389  0.0653  1.1925
 9558TIP3   OH250088   0.208   4.855   4.230  0.2992  0.0608 -0.3796
 9558TIP3    H150089   0.126   4.902   4.247  0.2333  0.5159 -1.8256
 9558TIP3    H250090   0.276   4.921   4.240  0.4863 -0.2566  0.5591
 9559TIP3   OH250091   3.827   5.054  11.489 -0.3010  0.2466  0.6285
 9559TIP3    H150092   3.902   5.066  11.431 -0.4250 -0.0908  0.3966
 9559TIP3    H250093   3.866   5.049  11.577 -0.1085  0.6944  0.5751
 9560TIP3   OH250094   0.058   1.260   5.752 -0.0566  0.4590 -0.5818
 9560TIP3    H150095   0.086   1.191   5.693 -1.1080 -1.0652  0.6190
 9560TIP3    H250096  -0.035   1.270   5.734 -0.2095  0.5497  0.2344
 9561TIP3   OH250097   2.247   3.364  17.016  0.1405  0.2752 -0.0531
 9561TIP3    H150098   2.182   3.431  16.999 -1.2373 -0.2207  2.6433
 9561TIP3    H250099   2.331   3.409  17.010 -0.6510  1.7665 -0.2583
 9562TIP3   OH250100   2.416   3.484  11.545  0.0363 -0.4823 -0.1823
 9562TIP3    H150101   2.487   3.495  11.482  0.6179 -1.6731  0.2346
 9562TIP3    H250102   2.368   3.567  11.542  2.5268  1.1217  0.8835
 9563TIP3   OH250103   0.716   1.746   5.223  0.0797  0.7424 -0.2870
 9563TIP3    H150104   0.784   1.761   5.157  0.9531 -0.6528  0.2780
 9563TIP3    H250105   0.720   1.653   5.241 -1.9881  0.6212 -0.2177
 9564TIP3   OH250106   0.921   0.550  11.430  0.4940  0.3007  0.4269
 9564TIP3    H150107   0.925   0.456  11.416 -2.3378  0.1088  0.3039
 9564TIP3    H250108   0.951   0.563  11.520  2.3744 -0.4880 -0.0527
 9565TIP3   OH250109   6.699   3.870  12.908  0.6722 -0.3625 -0.3628
 9565TIP3    H150110   6.652   3.882  12.826  2.1142  1.0433 -1.0212
 9565TIP3    H250111   6.777   3.925  12.900 -0.3570  1.8685  2.9263
 9566TIP3   OH250112   4.002   5.587  12.034 -0.1355  0.5554  0.5809
 9566TIP3    H150113   3.980   5.505  12.078  1.2765 -0.7485 -0.9963
 9566TIP3    H250114   3.934   5.599  11.968  0.8320 -0.6080 -0.6942
 9567TIP3   OH250115   5.870   3.201   3.942 -0.6986  0.0923  0.1455
 9567TIP3    H150116   5.862   3.223   4.034 -1.6416  0.3066  0.0244
 9567TIP3    H250117   5.916   3.117   3.940  0.1813  0.5509  0.7560
 9568TIP3   OH250118   3.701   0.278   4.884 -1.0746 -0.2117  0.2236
 9568TIP3    H150119   3.608   0.276   4.907 -1.4538  0.5796 -1.1249
 9568TIP3    H250120   3.716   0.367   4.854 -0.2770 -0.7504 -1.0845
 9569TIP3   OH250121   4.211   3.422  15.391 -0.6895  0.1953  0.2506
 9569TIP3    H150122   4.193   3.328  15.386 -1.5555  0.2656  1.5087
 9569TIP3    H250123   4.127   3.461  15.414 -0.8082  1.5138 -2.0750
 9570TIP3   OH250124   0.491   2.414   1.229 -0.3879  0.0358  0.0799
 9570TIP3    H150125   0.531   2.406   1.142  0.5770  0.1634  0.4970
 9570TIP3    H250126   0.503   2.327   1.268 -0.7377  0.0059  0.1167
 9571TIP3   OH250127   6.425   5.293   5.759  0.0241  0.0902  0.2879
 9571TIP3    H150128   6.486   5.367   5.757  0.4601 -0.1842  1.9954
 9571TIP3    H250129   6.476   5.221   5.797 -1.2396 -0.2502  1.4048
 9572TIP3   OH250130   3.312   1.550  11.102  0.0734  0.5392  0.4246
 9572TIP3    H150131   3.240   1.600  11.063 -1.3522 -1.4563  0.2947
 9572TIP3    H250132   3.269   1.474  11.142  2.0907 -0.5327  0.6925
 9573TIP3   OH250133   5.707   6.584  17.154 -0.3608  0.5394  0.0195
 9573TIP3    H150134   5.735   6.640  17.226 -0.4288  1.1917 -0.4624
 9573TIP3    H250135   5.757   6.503  17.166 -0.4928  0.5797  0.8916
 9574TIP3   OH250136   5.300   4.920  11.886  0.3695  0.3166 -0.1791
 9574TIP3    H150137   5.373   4.982  11.893 -0.2018  1.0118 -0.2640
 9574TIP3    H250138   5.341   4.834  11.895  1.2337  0.6826 -0.4648
 9575TIP3   OH250139   4.211   6.636   3.514 -0.1512 -0.0032 -0.5345
 9575TIP3    H150140   4.299   6.650   3.550 -0.1462 -1.8234  0.2697
 9575TIP3    H250141   4.182   6.553   3.553 -2.2717  0.6005 -0.7020
 9576TIP3   OH250142   6.490   3.896  14.170 -0.0603 -0.2585 -0.1633
 9576TIP3    H150143   6.442   3.829  14.120  2.3203 -0.1043 -2.9410
 9576TIP3    H250144   6.426   3.966  14.184 -1.6979 -1.6838 -0.1745
 9577TIP3   OH250145   5.087   5.975   3.010  0.2483 -0.6801 -0.8375
 9577TIP3    H150146   5.013   6.026   2.978  0.3204 -0.5877 -0.8554
 9577TIP3    H250147   5.140   6.037   3.059 -0.1049 -0.9203 -0.1363
 9578TIP3   OH250148   1.259   3.368   6.081  0.3971  0.0375 -0.3821
 9578TIP3    H150149   1.290   3.286   6.121 -1.6148 -0.6232 -0.0486
 9578TIP3    H250150   1.163   3.360   6.082  0.1590  2.3108 -0.5624
 9579TIP3   OH250151   0.769   0.596   4.438 -0.1441 -0.5683  0.0535
 9579TIP3    H150152   0.701   0.658   4.463 -0.5956 -0.4883 -1.2966
 9579TIP3    H250153   0.724   0.535   4.379  0.7748 -0.9612 -0.2480
 9580TIP3   OH250154   0.884   6.744   4.956 -0.4800 -0.4283  0.3745
 9580TIP3    H150155   0.866   6.814   5.018 -2.2830  0.6351 -1.2315
 9580TIP3    H250156   0.826   6.673   4.982 -1.6033  0.1999 -0.3160
 9581TIP3   OH250157   5.321   4.998  11.032  0.2839  0.4362  0.0207
 9581TIP3    H150158   5.394   5.040  10.987  0.4612 -0.1170 -0.2245
 9581TIP3    H250159   5.255   4.985  10.964 -0.5302  1.9900  0.4850
 9582TIP3   OH250160   1.958   2.416   3.490 -0.8441 -0.0954 -0.1310
 9582TIP3    H150161   1.930   2.442   3.578  1.2233  0.0785  0.5119
 9582TIP3    H250162   1.981   2.499   3.447  1.1400 -0.3941  0.2737
 9583TIP3   OH250163   1.850   2.920   0.027  0.0827  0.2583 -0.1342
 9583TIP3    H150164   1.846   2.943   0.120 -0.9629 -1.0305  0.1678
 9583TIP3    H250165   1.814   2.997  -0.017 -1.0787  0.2080  0.6667
 9584TIP3   OH250166   2.365   2.041  14.491 -0.3004 -0.3964  0.2941
 9584TIP3    H150167   2.405   2.107  14.547  1.0273 -1.7677  0.9999
 9584TIP3    H250168   2.430   2.024  14.423 -0.9269 -0.4759 -0.3020
 9585TIP3   OH250169   5.972   2.058   5.680  0.3408  0.2991 -0.9205
 9585TIP3    H150170   5.913   2.130   5.704  0.9340  1.0616 -1.7110
 9585TIP3    H250171   5.963   1.995   5.752 -0.9062  0.7139 -0.6823
 9586TIP3   OH250172   2.775   4.279  14.246  0.5820  0.1066  0.0952
 9586TIP3    H150173   2.841   4.349  14.239 -1.3635  1.9849 -0.5906
 9586TIP3    H250174   2.762   4.250  14.156  0.1472  0.0634  0.1707
 9587TIP3   OH250175   2.860   5.029  11.601  0.2354 -0.1515 -0.0852
 9587TIP3    H150176   2.889   4.956  11.546  0.8169  0.5102 -0.6822
 9587TIP3    H250177   2.935   5.047  11.657  0.1863  0.1563 -0.1186
 9588TIP3   OH250178   0.316   0.714  12.479 -0.2295 -0.0109  0.0899
 9588TIP3    H150179   0.264   0.789  12.506  0.1325 -0.2086  1.4190
 9588TIP3    H250180   0.364   0.744  12.402 -1.5618  0.4720 -0.5748
 9589TIP3   OH250181   3.239   0.680  11.790  0.1051 -0.2088 -0.2701
 9589TIP3    H150182   3.166   0.672  11.729 -0.7925 -1.9066  0.9430
 9589TIP3    H250183   3.198   0.696  11.875  1.1539 -0.8704  0.3823
 9590TIP3   OH250184   3.606   1.509  15.519 -0.2490  0.0835 -0.0514
 9590TIP3    H150185   3.693   1.542  15.543  0.0995  0.4039 -1.6882
 9590TIP3    H250186   3.545   1.572  15.559  0.2101 -0.4807  1.6354
 9591TIP3   OH250187   0.588   2.265   6.059 -0.1553 -0.1554  0.6921
 9591TIP3    H150188   0.536   2.185   6.059 -1.2572  0.4978  2.5083
 9591TIP3    H250189   0.531   2.331   6.019  1.5754 -0.6563 -2.9601
 9592TIP3   OH250190   1.452   4.949   4.080  0.1278  0.0046  0.2111
 9592TIP3    H150191   1.400   4.976   4.156  0.2776  0.5870  0.1127
 9592TIP3    H250192   1.470   5.030   4.033 -0.3117 -0.3957 -0.6762
 9593TIP3   OH250193   3.243   0.370  14.637 -0.4836 -0.6075  0.3827
 9593TIP3    H150194   3.244   0.466  14.639 -1.4869 -0.5840  0.2781
 9593TIP3    H250195   3.273   0.343  14.724 -1.1116 -0.1747  0.7448
 9594TIP3   OH250196   2.456   6.252  15.191  0.0312 -0.0082 -0.4474
 9594TIP3    H150197   2.453   6.158  15.172 -0.3541 -0.1171  0.1248
 9594TIP3    H250198   2.381   6.267  15.248  0.4187  0.5463 -0.0729
 9595TIP3   OH250199   1.465   4.852  15.424  0.3451 -0.1935 -0.2619
 9595TIP3    H150200   1.375   4.881  15.410  0.8711  1.0236 -1.2969
 9595TIP3    H250201   1.466   4.819  15.514 -1.0952 -0.1044 -0.1927
 9596TIP3   OH250202   6.460   6.031   0.346 -0.6892 -0.4488  0.3196
 9596TIP3    H150203   6.468   6.112   0.296 -1.6846 -1.0732 -0.8828
 9596TIP3    H250204   6.403   6.053   0.419  1.2704  0.6342  1.6301
 9597TIP3   OH250205   5.121   1.191   2.929 -0.3331 -0.3976 -0.0828
 9597TIP3    H150206   5.082   1.249   2.995 -0.0246 -0.0142 -0.2402
 9597TIP3    H250207   5.150   1.115   2.979 -1.0098 -0.5571  0.0823
 9598TIP3   OH250208   0.270   5.688  16.431  0.0561  0.7017  0.0355
 9598TIP3    H150209   0.190   5.739  16.417  0.7280  1.6923 -0.3050
 9598TIP3    H250210   0.320   5.739  16.495  0.5496  0.2487  0.0188
 9599TIP3   OH250211   3.405   2.824   1.967 -0.1779  0.1243  0.3662
 9599TIP3    H150212   3.407   2.797   1.876 -0.6858 -0.2452  0.4614
 9599TIP3    H250213   3.496   2.845   1.988  0.1820 -1.1700  0.1916
 9600TIP3   OH250214   5.497   3.989   4.870  0.0785 -0.1110  0.5822
 9600TIP3    H150215   5.423   4.031   4.827  1.1429  2.0586  0.6931
 9600TIP3    H250216   5.478   3.896   4.867 -0.3618 -0.0426 -3.7538
 9601TIP3   OH250217   2.017   6.438   1.955  0.0394 -0.2369  0.1560
 9601TIP3    H150218   2.092   6.495   1.937 -0.0336 -0.2282 -0.1138
 9601TIP3    H250219   1.984   6.413   1.869 -1.8539  1.8122  0.2089
 9602TIP3   OH250220   4.968   4.555   0.430 -1.1016 -0.0461 -0.0467
 9602TIP3    H150221   4.903   4.500   0.386  0.6273 -0.6945 -1.9394
 9602TIP3    H250222   5.020   4.494   0.482  0.9305 -0.3442 -2.2829
 9603TIP3   OH250223   4.313   1.203  13.725 -0.0491  0.5674 -0.4062
 9603TIP3    H150224   4.322   1.125  13.670  0.2570  0.7288 -0.5869
 9603TIP3    H250225   4.297   1.274  13.662 -1.5994  0.4620 -0.1803
 9604TIP3   OH250226   6.355   5.938   6.632 -0.2024  0.0242 -0.1404
 9604TIP3    H150227   6.430   5.993   6.612  0.1148  0.0152  0.9514
 9604TIP3    H250228   6.321   5.972   6.715  0.5086 -1.9000  1.0029
 9605TIP3   OH250229   1.740   0.806   3.311  0.2848  0.4267 -0.2401
 9605TIP3    H150230   1.720   0.793   3.219 -1.9505  1.4804  0.0433
 9605TIP3    H250231   1.770   0.897   3.317 -2.5394  1.4154  0.4161
 9606TIP3   OH250232   3.020   2.226   5.608  0.4769 -0.2449  0.0935
 9606TIP3    H150233   3.112   2.213   5.585  0.8940  0.1400  1.4244
 9606TIP3    H250234   2.972   2.213   5.526  1.7044 -0.5503 -0.5985
 9607TIP3   OH250235   0.614   4.632   2.721 -0.1886  0.4582 -0.2087
 9607TIP3    H150236   0.524   4.608   2.699  0.4453 -0.9787 -1.3519
 9607TIP3    H250237   0.638   4.571   2.791  0.1647  0.3027 -0.4674
 9608TIP3   OH250238   0.876   2.591   4.591 -0.6437  1.1304 -0.4558
 9608TIP3    H150239   0.879   2.557   4.680  0.5767 -0.0877 -0.9210
 9608TIP3    H250240   0.880   2.686   4.601  1.9113  0.9848  0.7606
 9609TIP3   OH250241   4.537   1.111  16.154  0.3748 -0.4738 -0.1021
 9609TIP3    H150242   4.471   1.065  16.102 -1.2194  1.3932  0.1645
 9609TIP3    H250243   4.610   1.125  16.093 -2.1545  3.3839 -2.7175
 9610TIP3   OH250244   6.553   1.161   2.880 -0.3626 -0.0267  0.0250
 9610TIP3    H150245   6.621   1.228   2.885  0.4445 -0.8074 -0.3134
 9610TIP3    H250246   6.481   1.203   2.833  0.1871  0.5563 -0.3065
 9611TIP3   OH250247   1.163   2.122   2.736 -0.0506 -0.0305 -0.2751
 9611TIP3    H150248   1.255   2.144   2.724 -0.1073  0.3340 -0.0602
 9611TIP3    H250249   1.119   2.206   2.747 -0.8085  0.0056 -2.8550
 9612TIP3   OH250250   3.236   0.448   5.004 -0.4306  0.5118  0.0080
 9612TIP3    H150251   3.284   0.499   4.938  2.8803  0.0345  1.8105
 9612TIP3    H250252   3.209   0.512   5.069 -0.0401  0.5015  0.1836
 9613TIP3   OH250253   5.627   1.390   4.282 -0.3803  0.3986  0.1899
 9613TIP3    H150254   5.563   1.398   4.352  0.8067 -1.3684  1.5839
 9613TIP3    H250255   5.645   1.297   4.276  0.1962  0.5869 -1.9257
 9614TIP3   OH250256   2.411   1.311   1.402  0.4170 -0.2317 -0.2359
 9614TIP3    H150257   2.466   1.235   1.382 -0.7331 -0.7888 -1.4308
 9614TIP3    H250258   2.397   1.305   1.497  2.5141  0.0479  0.1427
 9615TIP3   OH250259   2.901   0.250   0.426  0.5396 -0.2925 -0.1618
 9615TIP3    H150260   2.944   0.292   0.501 -0.2643 -0.5705  0.4720
 9615TIP3    H250261   2.940   0.292   0.350 -0.4426  1.8582  0.4452
 9616TIP3   OH250262   4.023   2.052  13.144 -0.1904  0.4128  0.0708
 9616TIP3    H150263   4.057   2.064  13.233  1.0844 -0.7038 -0.2373
 9616TIP3    H250264   4.067   2.119  13.092 -0.8673  1.0061  0.2431
 9617TIP3   OH250265   3.230   5.142   5.645 -0.7043 -0.2510  0.5998
 9617TIP3    H150266   3.210   5.128   5.737 -0.5768 -1.3396  0.4696
 9617TIP3    H250267   3.248   5.236   5.639  0.1502 -0.3127  1.8392
 9618TIP3   OH250268   5.498   6.058   6.369  0.2330 -0.2328 -0.4224
 9618TIP3    H150269   5.430   6.089   6.430  0.4358 -1.5799  0.5366
 9618TIP3    H250270   5.485   6.110   6.290 -0.3046  1.2849  0.6259
 9619TIP3   OH250271   3.618   0.110   4.103  0.3394  0.5947  0.3535
 9619TIP3    H150272   3.540   0.160   4.128  0.5793  2.7397 -2.7022
 9619TIP3    H250273   3.690   0.154   4.148  0.2006  1.0571  0.1288
 9620TIP3   OH250274   5.361   5.247  14.779  0.3505  0.1188  0.4780
 9620TIP3    H150275   5.287   5.200  14.742  0.2444 -0.0335  0.8780
 9620TIP3    H250276   5.358   5.227  14.873  1.4759 -0.7003  0.3593
 9621TIP3   OH250277   3.754   3.267   3.970 -0.5151 -0.3618  0.0089
 9621TIP3    H150278   3.768   3.274   3.876  1.3811 -1.3013  0.1808
 9621TIP3    H250279   3.692   3.195   3.980 -1.3448  0.2658 -0.5497
 9622TIP3   OH250280   5.894   6.346   3.756  0.6217 -0.5706  0.2693
 9622TIP3    H150281   5.884   6.431   3.798  0.0549 -1.0602  1.1717
 9622TIP3    H250282   5.805   6.309   3.756  1.0190 -1.5676  0.8001
 9623TIP3   OH250283   2.345   6.612   4.229 -0.2782  0.1794  0.0838
 9623TIP3    H150284   2.254   6.603   4.202 -0.7932 -1.5484  2.0781
 9623TIP3    H250285   2.380   6.523   4.226  0.9822  0.6300  0.5349
 9624TIP3   OH250286   0.867   0.673   3.098 -0.1632 -0.0686  0.2714
 9624TIP3    H150287   0.836   0.696   3.185 -0.3889  1.1043 -0.0970
 9624TIP3    H250288   0.827   0.739   3.040  3.3925  1.9415 -0.1877
 9625TIP3   OH250289   3.354   3.367  17.015  0.1801 -0.3259  0.5699
 9625TIP3    H150290   3.329   3.327  17.099 -0.3890 -1.5734 -0.1627
 9625TIP3    H250291   3.447   3.388  17.025  0.6939 -2.4512  0.8070
 9626TIP3   OH250292   4.931   6.396   5.546  0.3188  0.5161  0.0453
 9626TIP3    H150293   4.903   6.337   5.616  1.2756 -0.6673 -0.5382
 9626TIP3    H250294   4.941   6.481   5.590 -2.4962  0.6725  0.6130
 9627TIP3   OH250295   3.660   3.327   4.479 -0.2708  0.5877 -0.6109
 9627TIP3    H150296   3.711   3.393   4.433  1.6727 -1.2758 -1.2773
 9627TIP3    H250297   3.625   3.271   4.410 -1.4344  0.5482 -0.0249
 9628TIP3   OH250298   6.579   4.438   1.874  0.4198 -0.2506  0.5898
 9628TIP3    H150299   6.540   4.439   1.961  0.1132 -1.8643  0.5048
 9628TIP3    H250300   6.521   4.381   1.823  1.4275 -0.5384 -0.2566
 9629TIP3   OH250301   2.135   2.084  16.484 -0.5932 -0.2484  0.0385
 9629TIP3    H150302   2.066   2.021  16.504  0.4409 -1.7468 -0.8819
 9629TIP3    H250303   2.216   2.036  16.500  0.2665  1.3544  0.7608
 9630TIP3   OH250304   4.201   2.086   0.849  0.7354  0.7917 -0.2623
 9630TIP3    H150305   4.247   2.144   0.788 -2.3682  3.2247 -0.5239
 9630TIP3    H250306   4.205   1.999   0.808  2.5003  1.4620 -1.6350
 9631TIP3   OH250307   5.718   0.892   1.865  0.4326 -0.2912 -0.0870
 9631TIP3    H150308   5.629   0.927   1.851  0.5713 -0.0996 -0.5048
 9631TIP3    H250309   5.773   0.970   1.869  0.4030 -0.3161  1.6623
 9632TIP3   OH250310   5.844   2.061   1.500  0.1857  0.3207  1.2583
 9632TIP3    H150311   5.902   2.119   1.548 -0.7018  1.2342  1.2634
 9632TIP3    H250312   5.757   2.100   1.510 -0.0220  0.6261 -1.1543
 9633TIP3   OH250313   5.817   1.210   4.894  0.3876  0.0466  0.0419
 9633TIP3    H150314   5.808   1.305   4.902 -2.1259 -0.0505 -0.7389
 9633TIP3    H250315   5.751   1.174   4.953  1.1332 -1.2395  0.1489
 9634TIP3   OH250316   4.484   1.153  11.451  0.1192  0.9226 -0.5396
 9634TIP3    H150317   4.401   1.197  11.439  0.2788  1.4216  0.1441
 9634TIP3    H250318   4.461   1.066  11.483 -0.1021  1.5450  1.0511
 9635TIP3   OH250319   4.002   6.069  15.497 -0.1684 -0.0177 -0.9703
 9635TIP3    H150320   4.066   6.003  15.471  0.6104  0.1502  0.4309
 9635TIP3    H250321   4.014   6.140  15.434 -0.6692 -0.9658 -2.1885
 9636TIP3   OH250322   2.511   1.815   0.374 -0.2109  0.0006 -0.2658
 9636TIP3    H150323   2.577   1.846   0.311 -0.6919 -0.2308 -0.9018
 9636TIP3    H250324   2.518   1.720   0.369 -1.3911 -0.0647 -1.2390
 9637TIP3   OH250325   2.682   4.014   3.643  0.2659 -0.0028 -0.2019
 9637TIP3    H150326   2.644   3.953   3.579  0.3247  1.4911 -1.7232
 9637TIP3    H250327   2.640   4.098   3.623  1.6148  0.8802  0.5588
 9638TIP3   OH250328   4.331   0.257   0.046  0.2568 -0.2045  0.0282
 9638TIP3    H150329   4.254   0.206   0.070 -0.6530 -0.2119 -2.6290
 9638TIP3    H250330   4.350   0.309   0.124 -2.1371 -0.5564  0.9300
 9639TIP3   OH250331   2.489   4.681  14.581  0.0102 -0.3383 -0.4280
 9639TIP3    H150332   2.540   4.636  14.649  1.5869  0.1321 -1.2558
 9639TIP3    H250333   2.479   4.770  14.613  1.3293  0.0641 -1.0755
 9640TIP3   OH250334   1.374   5.121   0.028  0.4045  0.0525 -0.2338
 9640TIP3    H150335   1.390   5.206  -0.014 -0.8040 -0.6264 -2.2013
 9640TIP3    H250336   1.283   5.100   0.007  0.6227 -1.6495  0.3726
 9641TIP3   OH250337   2.891   0.283  13.158 -0.1313  0.1811 -0.2725
 9641TIP3    H150338   2.881   0.375  13.180  0.2212  0.3161 -0.6497
 9641TIP3    H250339   2.949   0.283  13.081  0.1989 -0.3728 -0.0327
 9642TIP3   OH250340   0.638   2.134   2.572  0.4696  0.1797 -0.6386
 9642TIP3    H150341   0.594   2.098   2.649  1.2153  1.1478  0.2633
 9642TIP3    H250342   0.571   2.133   2.503 -0.4260 -0.0280  0.2143
 9643TIP3   OH250343   6.486   4.270  12.423 -0.2889  0.3345 -0.0117
 9643TIP3    H150344   6.521   4.234  12.504  0.0259  0.4130 -0.1121
 9643TIP3    H250345   6.478   4.194  12.365  1.9301  0.6482 -0.7920
 9644TIP3   OH250346   3.906   2.424   3.552 -0.0956 -0.1003 -0.4661
 9644TIP3    H150347   3.919   2.372   3.632  0.4426 -0.7274 -0.9557
 9644TIP3    H250348   3.859   2.365   3.493  0.8736 -0.1797 -1.1704
 9645TIP3   OH250349   5.582   3.112  11.444  0.3630 -0.0748 -0.1702
 9645TIP3    H150350   5.541   3.128  11.359 -0.1577 -0.6683 -0.0434
 9645TIP3    H250351   5.530   3.041  11.482 -0.7167  1.5293  1.5231
 9646TIP3   OH250352   3.299   6.459  16.909 -0.0765  0.3722 -0.0065
 9646TIP3    H150353   3.260   6.381  16.946 -0.9001  1.2229  0.9769
 9646TIP3    H250354   3.381   6.471  16.957  0.3987 -0.2601 -0.6436
 9647TIP3   OH250355   3.642   2.734   4.000  0.5207 -0.1008 -0.7673
 9647TIP3    H150356   3.656   2.640   3.996  0.8697 -0.0591 -0.5437
 9647TIP3    H250357   3.614   2.758   3.911 -1.2835 -0.6721 -0.3951
 9648TIP3   OH250358   6.599   6.231   2.627  0.6025  0.3583  0.3613
 9648TIP3    H150359   6.624   6.321   2.650  0.2170  0.5914 -0.1030
 9648TIP3    H250360   6.638   6.217   2.541  1.2105 -0.1544  0.7169
 9649TIP3   OH250361   4.963   4.712   1.524 -0.3637  0.0857  0.0475
 9649TIP3    H150362   5.028   4.771   1.485 -0.9732 -0.7497 -2.4422
 9649TIP3    H250363   4.907   4.687   1.450 -0.9210 -2.5310  1.2580
 9650TIP3   OH250364   1.561   1.878  13.601  0.3682  0.0004  0.2521
 9650TIP3    H150365   1.477   1.834  13.591 -0.4789  1.6407 -0.3816
 9650TIP3    H250366   1.618   1.838  13.536  0.0917 -1.1293  0.6934
 9651TIP3   OH250367   4.015   0.688   4.090  0.4717 -0.0747  0.1075
 9651TIP3    H150368   4.031   0.601   4.128 -0.0380 -0.4919 -0.6062
 9651TIP3    H250369   4.102   0.720   4.065  0.5525 -0.8820 -0.6851
 9652TIP3   OH250370   3.097   2.786   4.872  0.0784 -0.3650  0.7248
 9652TIP3    H150371   3.108   2.691   4.863 -2.8616 -0.6674 -1.4643
 9652TIP3    H250372   3.040   2.796   4.949  0.5118 -0.3519  1.0461
 9653TIP3   OH250373   1.808   5.607   2.557 -0.0122 -0.2388  0.2472
 9653TIP3    H150374   1.870   5.621   2.486 -0.1562  1.6083  0.4236
 9653TIP3    H250375   1.737   5.669   2.539 -0.4838 -0.3777  1.5131
 9654TIP3   OH250376   2.375   0.990  11.587  0.4724  0.0883  0.0427
 9654TIP3    H150377   2.361   0.906  11.543  0.6802 -0.3134  0.7307
 9654TIP3    H250378   2.390   1.052  11.515 -0.3291 -0.3280 -0.5036
 9655TIP3   OH250379   4.501   4.172  10.445 -0.1108 -0.0630 -0.7779
 9655TIP3    H150380   4.560   4.098  10.457  0.8194  0.7879  0.0064
 9655TIP3    H250381   4.437   4.141  10.380  1.3703 -0.8969 -1.8997
 9656TIP3   OH250382   3.979   0.246  14.335 -0.2956  0.4521  0.1147
 9656TIP3    H150383   4.072   0.232  14.320 -0.0924  0.0311  1.6455
 9656TIP3    H250384   3.945   0.160  14.360 -1.0352  0.6665 -0.1129
 9657TIP3   OH250385   2.877   0.695   5.171 -0.1057 -0.3481 -0.6142
 9657TIP3    H150386   2.969   0.693   5.144 -0.6617  0.1887 -2.7574
 9657TIP3    H250387   2.836   0.757   5.111 -1.6747  0.3037  1.0437
 9658TIP3   OH250388   1.161   5.111  16.307 -0.0174  0.1195 -0.0644
 9658TIP3    H150389   1.086   5.084  16.253 -0.7177  1.6045  0.1219
 9658TIP3    H250390   1.237   5.096  16.251 -0.5147 -0.6504 -0.5596
 9659TIP3   OH250391   0.804   5.442   0.076 -0.1144 -0.0068  0.1259
 9659TIP3    H150392   0.870   5.499   0.036 -0.5037  0.4048  0.0599
 9659TIP3    H250393   0.720   5.486   0.058 -0.2246  1.0060  2.6801
 9660TIP3   OH250394   1.550   1.874   0.795  0.0493 -0.0206 -0.6355
 9660TIP3    H150395   1.492   1.804   0.826 -1.0428  1.4119  0.7536
 9660TIP3    H250396   1.497   1.920   0.729  0.5456 -0.1506 -1.1301
 9661TIP3   OH250397   5.244   6.425   4.773 -0.1340  0.4285  0.0206
 9661TIP3    H150398   5.247   6.379   4.689  0.2785  0.3402  0.0809
 9661TIP3    H250399   5.322   6.481   4.772 -0.2454  0.5889  0.2520
 9662TIP3   OH250400   3.053   0.972   3.385  0.1290  0.2920 -0.1497
 9662TIP3    H150401   2.967   0.931   3.396  0.1832  0.4332  0.8693
 9662TIP3    H250402   3.065   0.977   3.290 -0.9876  0.2717 -0.3020
 9663TIP3   OH250403   0.986   3.033  15.017  0.0826 -0.4356 -0.1699
 9663TIP3    H150404   1.004   3.124  14.991  2.3605 -0.6971  0.3089
 9663TIP3    H250405   0.922   3.041  15.088 -0.4415  0.7178 -0.7335
 9664TIP3   OH250406   1.763   3.955   2.315 -0.6259 -0.0248 -0.1938
 9664TIP3    H150407   1.711   4.010   2.256  0.1023  2.0621  1.0002
 9664TIP3    H250408   1.853   3.983   2.301 -0.2738 -0.6485  0.7302
 9665TIP3   OH250409   4.403   6.346   1.337  0.0914  0.0862 -0.3008
 9665TIP3    H150410   4.356   6.425   1.361 -1.6554 -1.1276  0.4875
 9665TIP3    H250411   4.418   6.301   1.420  2.0988  0.0955 -0.6064
 9666TIP3   OH250412   2.924   1.487  11.144  0.4321 -0.3341 -0.0934
 9666TIP3    H150413   3.005   1.456  11.186  1.6732  2.4772 -0.1820
 9666TIP3    H250414   2.953   1.557  11.085 -2.1193  1.1442  0.2700
 9667TIP3   OH250415   4.053   2.637  12.722 -0.8001  0.4893 -0.2722
 9667TIP3    H150416   4.137   2.597  12.745 -0.4991  0.5927 -1.1513
 9667TIP3    H250417   4.061   2.728  12.751 -0.9736  0.2673  0.4961
 9668TIP3   OH250418   5.390   0.793  11.804  0.6091  0.2425 -0.2731
 9668TIP3    H150419   5.304   0.757  11.781  0.7392 -0.8220  0.8382
 9668TIP3    H250420   5.418   0.839  11.724 -0.8576  0.3814 -0.7462
 9669TIP3   OH250421   4.820   2.171  11.978  0.6628  0.3263 -0.0556
 9669TIP3    H150422   4.739   2.168  12.030  0.8162  0.3780  0.1899
 9669TIP3    H250423   4.868   2.246  12.013  1.3714 -0.4260  0.6465
 9670TIP3   OH250424   1.594   0.729  13.722  0.4839  0.5199 -0.2527
 9670TIP3    H150425   1.523   0.683  13.767 -0.3080  0.0282 -1.9489
 9670TIP3    H250426   1.593   0.817  13.760 -0.8465  0.4370 -0.0526
 9671TIP3   OH250427   5.199   3.032  12.118 -0.1379  0.7242  0.2903
 9671TIP3    H150428   5.270   3.093  12.095 -1.5535  1.7201 -1.7201
 9671TIP3    H250429   5.141   3.033  12.042 -1.7573 -0.9145  1.4243
 9672TIP3   OH250430   4.418   6.500  14.481 -0.3485 -0.2953  0.3729
 9672TIP3    H150431   4.511   6.497  14.456 -0.4291 -0.6876  0.1052
 9672TIP3    H250432   4.414   6.448  14.561 -0.5058 -1.1986 -0.2000
 9673TIP3   OH250433   4.291   4.344   2.991  0.4343 -0.6791  0.0783
 9673TIP3    H150434   4.302   4.283   2.918  0.3132 -2.6607  1.6417
 9673TIP3    H250435   4.198   4.363   2.992  0.1854 -1.8336  0.5842
 9674TIP3   OH250436   6.320   5.102   1.107  1.2044  0.6009 -0.0464
 9674TIP3    H150437   6.361   5.158   1.172  2.2472 -0.2632  0.0770
 9674TIP3    H250438   6.390   5.084   1.044  1.3161 -1.5777  0.6072
 9675TIP3   OH250439   2.108   2.584  15.841  0.4038 -0.0219 -0.3960
 9675TIP3    H150440   2.020   2.620  15.843 -0.9324 -3.0569  0.4983
 9675TIP3    H250441   2.103   2.511  15.780  1.8606 -1.2525  0.8592
 9676TIP3   OH250442   2.285   1.812  11.378  0.3673  0.3735 -0.0136
 9676TIP3    H150443   2.275   1.724  11.414  0.3959  0.0604 -0.7669
 9676TIP3    H250444   2.197   1.849  11.380  0.5418  0.8155  1.4865
 9677TIP3   OH250445   5.481   2.482   4.817 -0.3212 -0.0027 -0.3098
 9677TIP3    H150446   5.411   2.536   4.780 -0.9795 -0.5957  0.0366
 9677TIP3    H250447   5.492   2.515   4.907  0.9211  1.0988 -0.8338
 9678TIP3   OH250448   4.108   1.198   2.096  0.3372  0.4338  0.5005
 9678TIP3    H150449   4.131   1.261   2.165  1.8609  0.6111 -0.1393
 9678TIP3    H250450   4.045   1.246   2.041  1.7077  1.5631 -0.1560
 9679TIP3   OH250451   1.603   3.156   3.834  0.6064 -0.4817 -0.0658
 9679TIP3    H150452   1.623   3.250   3.825  1.5751 -0.7448 -0.8536
 9679TIP3    H250453   1.679   3.119   3.879 -1.0610 -0.4432  3.0715
 9680TIP3   OH250454   0.146   2.248   1.762  0.4477 -0.0106  0.1749
 9680TIP3    H150455   0.191   2.200   1.832  1.1356  0.6437  0.1860
 9680TIP3    H250456   0.059   2.264   1.797 -0.6347 -3.2171 -0.6780
 9681TIP3   OH250457   0.844   0.182  15.077  0.1911 -0.2440 -0.2758
 9681TIP3    H150458   0.778   0.140  15.021 -0.4742 -1.2442  1.2052
 9681TIP3    H250459   0.807   0.178  15.165  1.3305  1.0660  0.2963
 9682TIP3   OH250460   0.899   3.354   1.661 -0.4484  0.3038 -0.0774
 9682TIP3    H150461   0.921   3.388   1.747  0.4566 -0.7294  0.1223
 9682TIP3    H250462   0.972   3.381   1.605 -0.5834  0.2036 -0.3056
 9683TIP3   OH250463   3.709   5.696   5.860 -0.2013  0.2229 -0.7730
 9683TIP3    H150464   3.801   5.677   5.841 -0.6909 -2.1044 -1.1398
 9683TIP3    H250465   3.710   5.739   5.945  1.1582 -0.9584 -0.1517
 9684TIP3   OH250466   3.385   0.144   1.646  0.1952 -0.0135 -0.6827
 9684TIP3    H150467   3.329   0.186   1.712 -0.5765 -2.0304  0.0117
 9684TIP3    H250468   3.471   0.138   1.688 -0.2436 -1.1077  0.1149
 9685TIP3   OH250469   3.492   4.050  11.453  0.1317 -0.4581  0.0282
 9685TIP3    H150470   3.488   4.112  11.381 -1.1505 -0.8861 -0.3018
 9685TIP3    H250471   3.509   4.103  11.530 -0.6516  0.2834 -0.2897
 9686TIP3   OH250472   6.230   4.972  12.958 -0.5153  0.1398  0.1445
 9686TIP3    H150473   6.240   5.042  12.894 -2.2664  0.7229  0.4752
 9686TIP3    H250474   6.150   4.927  12.932  1.3379 -2.8093 -1.0112
 9687TIP3   OH250475   0.251   3.477   5.135  0.2280 -0.4256 -0.1635
 9687TIP3    H150476   0.165   3.509   5.163  0.3374 -1.1760  1.1003
 9687TIP3    H250477   0.304   3.557   5.128 -0.3614 -0.0287 -0.2201
 9688TIP3   OH250478   2.522   3.138  15.491  0.4309  0.0919 -0.4520
 9688TIP3    H150479   2.505   3.111  15.581 -2.7646 -0.9666 -1.2598
 9688TIP3    H250480   2.472   3.219  15.480  0.6132  0.0970 -1.3198
 9689TIP3   OH250481   0.617   3.191  12.732 -0.8273 -0.0511 -0.1440
 9689TIP3    H150482   0.608   3.150  12.818 -0.8168 -0.4640 -0.3348
 9689TIP3    H250483   0.590   3.282  12.746 -0.7716 -0.0988  0.3059
 9690TIP3   OH250484   0.299   5.326  11.362 -0.8137  0.2509 -0.2955
 9690TIP3    H150485   0.338   5.250  11.319 -1.6882  0.1161 -0.8769
 9690TIP3    H250486   0.313   5.398  11.300 -0.5343  0.4355 -0.0205
 9691TIP3   OH250487   1.231   5.733   1.026  0.0225 -0.1000 -0.0060
 9691TIP3    H150488   1.283   5.684   1.090 -2.2570  1.1001  3.0164
 9691TIP3    H250489   1.277   5.817   1.017  0.1276 -0.1172  0.3614
 9692TIP3   OH250490   6.466   2.599  13.109  0.6106  0.0077 -0.4419
 9692TIP3    H150491   6.502   2.512  13.093  0.6082  0.2988 -2.2500
 9692TIP3    H250492   6.373   2.591  13.087  0.2062  0.0675  1.0798
 9693TIP3   OH250493   4.605   1.751  16.594  0.0274  0.0212 -0.2865
 9693TIP3    H150494   4.511   1.753  16.616  0.3186  0.9464  1.0380
 9693TIP3    H250495   4.623   1.660  16.572 -0.7512 -0.6459  1.5833
 9694TIP3   OH250496   2.455   4.067  11.160 -0.5387  0.6820  0.1115
 9694TIP3    H150497   2.422   4.120  11.087 -1.5569 -0.5804 -0.4009
 9694TIP3    H250498   2.511   4.002  11.119 -0.8203  0.1940  0.4835
 9695TIP3   OH250499   3.958   5.602  11.474 -0.1300 -0.2803  0.7705
 9695TIP3    H150500   3.974   5.536  11.542  0.6961 -3.0796 -1.9094
 9695TIP3    H250501   3.864   5.596  11.457  0.2051 -2.4409 -0.8367
 9696TIP3   OH250502   5.624   6.714  11.068  0.1583 -0.5909 -0.0415
 9696TIP3    H150503   5.659   6.758  10.991 -2.2820 -0.3587 -1.1303
 9696TIP3    H250504   5.676   6.635  11.076  1.3094  0.0123 -1.1540
 9697TIP3   OH250505   6.721   0.595  14.698 -0.4979 -0.1016 -0.3074
 9697TIP3    H150506   6.726   0.557  14.610 -0.6314  0.3006 -0.4916
 9697TIP3    H250507   6.734   0.521  14.757 -1.2750 -0.5241 -0.6532
 9698TIP3   OH250508   6.682   5.463   1.970  0.2219 -0.2902  0.1999
 9698TIP3    H150509   6.595   5.501   1.964  0.5652  0.3607 -0.8453
 9698TIP3    H250510   6.684   5.420   2.056 -0.6261  0.9196  0.8407
 9699TIP3   OH250511   5.920   3.688  12.777  0.0601  0.3596  0.4530
 9699TIP3    H150512   5.989   3.646  12.829 -0.1334  0.2061  0.5868
 9699TIP3    H250513   5.841   3.639  12.798  0.2294 -0.6591 -1.0876
 9700TIP3   OH250514   6.491   2.420  12.414  0.5317  0.6418  0.2695
 9700TIP3    H150515   6.508   2.360  12.341  1.6692  0.5131  0.6096
 9700TIP3    H250516   6.542   2.498  12.393 -0.0192  1.0382  0.3937
 9701TIP3   OH250517   5.056   0.881  16.590  0.9949  0.2173  1.0466
 9701TIP3    H150518   5.041   0.787  16.584 -1.3751  0.6036  0.0716
 9701TIP3    H250519   5.125   0.899  16.526  0.5582 -0.6876  0.3014
 9702TIP3   OH250520   6.689   3.566  14.048 -0.1964  0.1950  0.4224
 9702TIP3    H150521   6.593   3.562  14.043 -0.1867 -0.6902  0.7534
 9702TIP3    H250522   6.708   3.658  14.063 -1.0342  0.2970  0.9620
 9703TIP3   OH250523   1.112   0.470  13.847 -0.1100  0.1911 -0.0559
 9703TIP3    H150524   1.077   0.546  13.893  1.4911  0.4294  0.8307
 9703TIP3    H250525   1.083   0.395  13.900  3.1683  0.5269  2.5899
 9704TIP3   OH250526   0.144   5.861  16.022  0.4122  0.1862  0.1907
 9704TIP3    H150527   0.139   5.948  15.983  0.3848 -0.6981 -1.8608
 9704TIP3    H250528   0.072   5.859  16.085 -0.3359  1.2357 -0.6064
 9705TIP3   OH250529   6.216   6.007  15.151  0.1945  0.1406 -0.3037
 9705TIP3    H150530   6.141   6.066  15.140  0.3623  0.1375 -1.5947
 9705TIP3    H250531   6.198   5.961  15.232 -0.8761  0.6194 -0.2464
 9706TIP3   OH250532   2.926   4.202   1.473  0.3552  0.1894  0.1927
 9706TIP3    H150533   2.937   4.291   1.439  1.0694  0.0826  0.1115
 9706TIP3    H250534   2.894   4.213   1.562 -1.4978  0.4805 -0.4779
 9707TIP3   OH250535   1.401   3.075   1.928  0.1299 -0.3128  0.0194
 9707TIP3    H150536   1.325   3.037   1.971  0.0051 -2.3782 -1.8221
 9707TIP3    H250537   1.382   3.169   1.924 -1.6219 -0.5826  0.8979
 9708TIP3   OH250538   1.446   2.074  16.847  0.3495 -0.1013 -0.0838
 9708TIP3    H150539   1.463   2.166  16.826 -2.4769  0.1627 -1.7390
 9708TIP3    H250540   1.402   2.077  16.933  0.8708  0.0101  0.1850
 9709TIP3   OH250541   3.012   1.813  13.438 -0.6956 -0.1582 -0.2391
 9709TIP3    H150542   2.942   1.859  13.484  0.2787  1.7085 -0.5431
 9709TIP3    H250543   3.088   1.821  13.495  0.2428  1.2521 -1.6045
 9710TIP3   OH250544   1.947   0.375   1.730 -0.0387  0.3326  0.8108
 9710TIP3    H150545   1.935   0.407   1.641  3.0069 -0.9383 -0.1787
 9710TIP3    H250546   1.878   0.310   1.742 -0.1472  0.1122 -0.8262
 9711TIP3   OH250547   5.661   4.398  11.245  0.7680  0.0405  0.1481
 9711TIP3    H150548   5.729   4.455  11.281  1.6651  0.5938 -2.1989
 9711TIP3    H250549   5.693   4.309  11.262  0.2974  0.2236  2.1621
 9712TIP3   OH250550   2.037   6.163   2.452 -0.4639  0.1000  0.7772
 9712TIP3    H150551   2.084   6.164   2.536 -2.2303  0.5579  1.8064
 9712TIP3    H250552   2.020   6.071   2.435 -0.8145  0.0545  1.3544
 9713TIP3   OH250553   0.595   0.073   2.792 -0.3960  0.4535  0.2300
 9713TIP3    H150554   0.523   0.122   2.752 -2.7425 -2.4455  0.5685
 9713TIP3    H250555   0.601   0.108   2.881 -1.2542  0.9060  0.1261
 9714TIP3   OH250556   3.109   3.468   4.005  0.3948 -0.1753  0.0547
 9714TIP3    H150557   3.130   3.489   4.096 -2.1228 -1.8066  1.1351
 9714TIP3    H250558   3.028   3.518   3.988  0.8106  0.0735 -1.3063
 9715TIP3   OH250559   2.935   2.653  15.262  0.3111  0.0432  0.4838
 9715TIP3    H150560   2.936   2.560  15.283  0.9027 -0.1884 -0.5075
 9715TIP3    H250561   2.967   2.696  15.341 -2.1692 -0.3722  1.8149
 9716TIP3   OH250562   4.044   2.670  13.989 -0.1194 -0.2400  0.1561
 9716TIP3    H150563   4.115   2.638  13.933 -1.0342 -2.5516  0.1710
 9716TIP3    H250564   3.967   2.670  13.932 -0.4045  0.7118  0.5341
 9717TIP3   OH250565   1.200   1.483   1.546 -0.2049  0.6353 -0.2812
 9717TIP3    H150566   1.200   1.545   1.619 -0.1699  0.8683 -0.4749
 9717TIP3    H250567   1.290   1.452   1.541 -0.0271  1.1876 -0.6927
 9718TIP3   OH250568   6.320   3.475  16.475  0.3424  0.5296  0.0039
 9718TIP3    H150569   6.225   3.461  16.474  0.2879  0.8976  0.0209
 9718TIP3    H250570   6.331   3.563  16.510  0.7842 -0.1903  1.7736
 9719TIP3   OH250571   0.314   6.309  13.269 -0.0883  0.0732 -0.1345
 9719TIP3    H150572   0.384   6.356  13.315  0.3704  0.1812 -0.9110
 9719TIP3    H250573   0.237   6.319  13.324  0.6358 -0.4999  1.0180
 9720TIP3   OH250574   0.089   0.791  15.035  0.6848  0.2590 -0.0756
 9720TIP3    H150575   0.080   0.781  14.940 -1.4810  0.2877  0.0822
 9720TIP3    H250576   0.099   0.701  15.067 -0.7922  0.0390 -0.1724
 9721TIP3   OH250577   4.806   5.493   0.390  0.3023  0.2032  0.7470
 9721TIP3    H150578   4.894   5.466   0.364  0.2597  0.6221  0.1304
 9721TIP3    H250579   4.768   5.416   0.430  0.4782 -0.3974 -0.2033
 9722TIP3   OH250580   5.273   0.972   1.932 -0.8082 -0.2021 -0.4725
 9722TIP3    H150581   5.228   0.913   1.992  0.1783 -1.2045 -0.6807
 9722TIP3    H250582   5.209   0.991   1.864 -1.7552  0.4913  0.5753
 9723TIP3   OH250583   4.668   5.061   0.973 -0.1961  0.3135 -0.1335
 9723TIP3    H150584   4.703   5.050   1.062  1.7633  0.1624 -0.8782
 9723TIP3    H250585   4.592   5.118   0.984 -0.5201 -0.4022  1.7356
 9724TIP3   OH250586   4.723   2.030   0.797  0.6338  0.0102 -0.0543
 9724TIP3    H150587   4.787   1.976   0.751  0.3292 -2.1492  1.8407
 9724TIP3    H250588   4.729   2.001   0.888  0.2642  3.1057  1.0670
 9725TIP3   OH250589   6.483   5.867  14.856 -0.2114  0.3141  0.5013
 9725TIP3    H150590   6.467   5.818  14.937  0.9358 -0.1465  0.4695
 9725TIP3    H250591   6.444   5.952  14.872 -0.1505  0.1767  1.4861
 9726TIP3   OH250592   5.702   6.135   5.781 -0.2169  0.4809  0.2989
 9726TIP3    H150593   5.711   6.230   5.781  0.0593  0.4858  2.1855
 9726TIP3    H250594   5.648   6.115   5.857 -0.7857 -0.8415 -0.4141
 9727TIP3   OH250595   3.893   3.997  15.787  0.3573 -0.2075 -0.0579
 9727TIP3    H150596   3.853   3.910  15.782  0.0792 -0.4031  3.2333
 9727TIP3    H250597   3.850   4.047  15.717 -0.2373 -2.4028 -1.3505
 9728TIP3   OH250598   0.890   0.676   3.511  0.2056  0.1698 -0.7117
 9728TIP3    H150599   0.836   0.741   3.555  0.6723  0.2874 -0.3015
 9728TIP3    H250600   0.885   0.698   3.418  0.1622  0.6373 -0.5983
 9729TIP3   OH250601   2.390   2.580  12.051 -0.0882  0.1297  0.1636
 9729TIP3    H150602   2.441   2.651  12.092 -0.7145  0.2053  0.8374
 9729TIP3    H250603   2.444   2.502  12.064  0.2773  0.3614  0.0578
 9730TIP3   OH250604   6.106   2.081  17.094  1.0602 -0.1537 -0.0369
 9730TIP3    H150605   6.178   2.144  17.090  0.0913  0.9416 -0.7022
 9730TIP3    H250606   6.036   2.127  17.140  0.7310 -1.1696  0.5146
 9731TIP3   OH250607   4.700   3.804   2.820  0.0401 -0.0554  0.2181
 9731TIP3    H150608   4.608   3.785   2.835 -0.2136 -0.4414 -1.6338
 9731TIP3    H250609   4.705   3.898   2.808 -0.2754 -0.1506 -0.6792
 9732TIP3   OH250610   0.378   5.280  14.235 -0.0708 -0.2069 -0.7042
 9732TIP3    H150611   0.320   5.335  14.287 -0.2291 -2.1818  1.3636
 9732TIP3    H250612   0.323   5.246  14.165 -1.0689 -0.8468  0.3495
 9733TIP3   OH250613   2.950   3.634  13.954  0.1010  0.1938 -0.2633
 9733TIP3    H150614   2.876   3.655  14.011 -0.1176  0.4700 -0.6483
 9733TIP3    H250615   3.000   3.715  13.947 -1.1495  0.8634 -2.3449
 9734TIP3   OH250616   1.546   2.974   3.612  0.0062 -0.4101  0.7564
 9734TIP3    H150617   1.598   3.026   3.674  2.2756 -2.3379  0.6419
 9734TIP3    H250618   1.604   2.962   3.537 -0.4948 -2.7524  0.6578
 9735TIP3   OH250619   4.502   1.557  12.621  0.2048 -0.1141  0.0829
 9735TIP3    H150620   4.515   1.467  12.652  1.3482 -0.2698 -0.7664
 9735TIP3    H250621   4.545   1.559  12.536  2.0329  1.7904  0.9728
 9736TIP3   OH250622   3.585   6.748   4.785  0.0854  0.4121  0.6283
 9736TIP3    H150623   3.669   6.713   4.754  1.1460  2.7879  0.6661
 9736TIP3    H250624   3.573   6.708   4.871 -0.0511 -1.7693 -0.3159
 9737TIP3   OH250625   2.060   4.210   2.838 -0.3528 -0.6099 -0.1318
 9737TIP3    H150626   2.082   4.262   2.915  0.8299 -2.1231  0.6010
 9737TIP3    H250627   1.967   4.191   2.847 -0.6802  0.8551 -0.1266
 9738TIP3   OH250628   0.624   5.909   2.224  0.2491  0.4359  0.1410
 9738TIP3    H150629   0.674   5.828   2.231  1.9917  1.3116 -1.3187
 9738TIP3    H250630   0.658   5.965   2.293  0.9347  0.8372 -0.5089
 9739TIP3   OH250631   5.129   2.710  11.307  0.0125  0.0235  0.8700
 9739TIP3    H150632   5.166   2.702  11.394  2.3906 -1.5814 -0.1958
 9739TIP3    H250633   5.169   2.639  11.257  0.9690  2.5079 -2.2521
 9740TIP3   OH250634   2.714   0.375  11.150 -0.3741 -0.6246 -0.4018
 9740TIP3    H150635   2.645   0.314  11.177  0.0210 -1.2758 -0.8249
 9740TIP3    H250636   2.708   0.375  11.054  0.6754 -1.2576 -0.4861
 9741TIP3   OH250637   4.318   1.654   2.306  0.4326  0.1385 -0.3151
 9741TIP3    H150638   4.243   1.713   2.301 -0.3327 -0.8755 -1.0966
 9741TIP3    H250639   4.377   1.685   2.237 -1.1351 -1.5437 -2.5366
 9742TIP3   OH250640   1.635   5.520   5.732 -0.7256 -0.0857  0.0924
 9742TIP3    H150641   1.639   5.511   5.827 -0.4036  0.3828  0.1293
 9742TIP3    H250642   1.586   5.601   5.718 -1.5628 -0.6269 -0.1638
 9743TIP3   OH250643   4.980   0.675   0.022 -0.5595  0.5510  0.5917
 9743TIP3    H150644   4.957   0.748  -0.036 -0.0374 -1.5595 -2.5389
 9743TIP3    H250645   4.907   0.614   0.015  0.9743 -1.2941 -0.7524
 9744TIP3   OH250646   1.178   2.900  16.255 -0.3391 -0.1947  0.3915
 9744TIP3    H150647   1.222   2.923  16.338 -0.5609  0.4706  0.3304
 9744TIP3    H250648   1.249   2.871  16.198 -0.0501  0.3311  0.4813
 9745TIP3   OH250649   0.222   0.200   4.845 -0.0616  0.1340 -0.0873
 9745TIP3    H150650   0.141   0.157   4.818 -0.0824 -1.4397  2.1792
 9745TIP3    H250651   0.231   0.177   4.938  1.7724  2.2303  0.3205
 9746TIP3   OH250652   2.607   0.433   4.781 -0.5277  0.5860 -0.1090
 9746TIP3    H150653   2.546   0.505   4.796 -0.7725  0.2253  0.6592
 9746TIP3    H250654   2.656   0.426   4.863 -0.4690 -0.0867 -0.1989
 9747TIP3   OH250655   0.945   3.559   3.205  0.2995  0.2537 -0.2328
 9747TIP3    H150656   0.871   3.551   3.145  0.5648 -0.9909 -0.4278
 9747TIP3    H250657   0.907   3.592   3.286 -0.1996  1.1536 -0.8221
 9748TIP3   OH250658   1.736   6.708  13.603  0.3594 -0.0358 -0.0450
 9748TIP3    H150659   1.693   6.761  13.670 -1.6360 -3.0305  1.2639
 9748TIP3    H250660   1.672   6.702  13.532  0.2715 -1.1389  0.1038
 9749TIP3   OH250661   0.207   0.554   1.195  0.0497  0.1836 -0.2813
 9749TIP3    H150662   0.227   0.495   1.268 -2.3442  1.1460  1.2798
 9749TIP3    H250663   0.202   0.496   1.119  3.2555 -0.7633  0.1046
 9750TIP3   OH250664   3.358   2.316  16.987 -0.5560  0.8165 -0.0775
 9750TIP3    H150665   3.385   2.313  17.079  1.3302 -0.2151 -0.5980
 9750TIP3    H250666   3.425   2.370  16.944 -0.7718  0.3650 -1.0189
 9751TIP3   OH250667   0.164   1.855  12.090  0.5159  0.3113 -0.1953
 9751TIP3    H150668   0.075   1.883  12.067  0.2363 -0.0351  0.4399
 9751TIP3    H250669   0.156   1.761  12.104  1.0024  0.2703 -0.2048
 9752TIP3   OH250670   0.068   5.261  11.776 -0.5706 -0.4035 -0.2011
 9752TIP3    H150671  -0.007   5.316  11.799 -0.2952 -0.6416  1.4133
 9752TIP3    H250672   0.129   5.272  11.849  1.3164  0.3357 -1.8071
 9753TIP3   OH250673   3.750   3.060  14.927  0.6836  0.0103  0.5608
 9753TIP3    H150674   3.835   3.100  14.943  1.0323 -0.9143  1.1375
 9753TIP3    H250675   3.770   2.969  14.902 -0.0462  0.3259 -1.3551
 9754TIP3   OH250676   3.288   0.104  12.761  0.3262  0.4755 -0.8003
 9754TIP3    H150677   3.337   0.048  12.821 -1.6720 -0.3779  0.1268
 9754TIP3    H250678   3.345   0.180  12.747  1.1742  0.3523  1.5813
 9755TIP3   OH250679   2.028   3.507  14.163 -0.2721 -0.1324  0.2948
 9755TIP3    H150680   2.060   3.591  14.130 -0.7978 -1.1887 -3.3235
 9755TIP3    H250681   2.101   3.447  14.152 -1.1946 -1.0324 -1.4337
 9756TIP3   OH250682   2.700   6.552  15.521 -0.2590  0.4628 -0.2509
 9756TIP3    H150683   2.665   6.510  15.599  0.3702  0.9126  0.2919
 9756TIP3    H250684   2.674   6.495  15.449  0.3270 -0.7096  0.4253
 9757TIP3   OH250685   5.123   6.750  14.447 -0.1970 -0.2338 -0.1236
 9757TIP3    H150686   5.092   6.823  14.500 -0.0713  0.8572 -1.5084
 9757TIP3    H250687   5.162   6.690  14.510  0.7723  1.4484  0.9477
 9758TIP3   OH250688   4.072   0.273   6.155 -0.4899  0.2831  0.2556
 9758TIP3    H150689   4.160   0.297   6.182 -0.8199  0.5276  1.1497
 9758TIP3    H250690   4.054   0.190   6.200  0.5605 -1.6970 -2.6448
 9759TIP3   OH250691   6.362   5.919   5.116 -0.1188 -0.2332  0.1824
 9759TIP3    H150692   6.310   5.996   5.092  1.2302  0.5476 -0.3503
 9759TIP3    H250693   6.312   5.844   5.082 -0.8117  0.5065 -0.4647
 9760TIP3   OH250694   1.987   3.157   1.385  0.7589  0.1656  0.3077
 9760TIP3    H150695   2.072   3.117   1.367  1.2486 -0.2546  3.1377
 9760TIP3    H250696   2.009   3.246   1.414  0.1259  0.4303 -0.0034
 9761TIP3   OH250697   1.476   3.354  13.356  0.1557  0.5145  0.2440
 9761TIP3    H150698   1.424   3.275  13.369  1.9842 -0.7088  0.5498
 9761TIP3    H250699   1.487   3.359  13.261  0.4202  0.1072  0.2482
 9762TIP3   OH250700   1.362   3.165   0.001 -0.2410 -0.0588 -0.2362
 9762TIP3    H150701   1.407   3.185  -0.081  0.2889 -1.4908 -0.3298
 9762TIP3    H250702   1.432   3.153   0.065 -0.5795 -0.3709  0.0799
 9763TIP3   OH250703   0.967   6.531  12.652 -0.4460 -0.0161  0.0712
 9763TIP3    H150704   1.041   6.473  12.672 -1.2558 -0.4188  2.1935
 9763TIP3    H250705   0.987   6.566  12.565  1.7563 -0.8388  0.1688
 9764TIP3   OH250706   4.822   5.776   4.167 -0.1729 -0.3059  0.0626
 9764TIP3    H150707   4.916   5.770   4.186 -0.1039 -0.6694 -0.3729
 9764TIP3    H250708   4.781   5.786   4.253  0.3185  0.6836  0.2040
 9765TIP3   OH250709   3.228   0.134   2.351 -0.0958  0.2577  0.5750
 9765TIP3    H150710   3.233   0.228   2.366  2.4158  0.4627 -0.9418
 9765TIP3    H250711   3.135   0.113   2.361 -0.7778  2.9360  0.6326
 9766TIP3   OH250712   1.265   5.630   1.360  0.2805 -0.1539 -0.4950
 9766TIP3    H150713   1.220   5.708   1.327  1.7506  1.1983  0.5264
 9766TIP3    H250714   1.325   5.605   1.290  0.3318  0.1002 -0.5447
 9767TIP3   OH250715   3.675   2.329   5.161 -0.0829  0.2287 -0.2049
 9767TIP3    H150716   3.726   2.409   5.171 -0.8900  0.9346 -1.4550
 9767TIP3    H250717   3.690   2.281   5.242  1.6342  0.9271 -0.0604
 9768TIP3   OH250718   0.856   3.506   0.411 -0.1825  0.2230 -0.1643
 9768TIP3    H150719   0.846   3.454   0.490  2.2260 -0.0706  0.0199
 9768TIP3    H250720   0.945   3.487   0.380 -0.4798  1.5504 -2.0551
 9769TIP3   OH250721   5.268   4.653  16.272  0.2574 -0.1528 -0.0214
 9769TIP3    H150722   5.241   4.618  16.187  2.3863 -2.4021  0.1212
 9769TIP3    H250723   5.191   4.642  16.328  0.0791 -2.4604 -0.6364
 9770TIP3   OH250724   6.644   2.618   4.022  0.2759 -0.1148 -0.0648
 9770TIP3    H150725   6.675   2.576   3.942 -2.0147 -1.6643 -0.2375
 9770TIP3    H250726   6.720   2.667   4.055  2.0961 -1.7003 -1.6726
 9771TIP3   OH250727   6.141   2.625   1.210 -0.1091 -0.3485  0.3137
 9771TIP3    H150728   6.067   2.685   1.212  1.4451  1.7108  0.3772
 9771TIP3    H250729   6.137   2.584   1.124 -0.7348  0.5345 -0.0925
 9772TIP3   OH250730   1.760   1.296  15.212 -0.2913  0.2612  0.0291
 9772TIP3    H150731   1.825   1.226  15.211 -0.4189  0.0768  1.5708
 9772TIP3    H250732   1.770   1.340  15.128 -1.0287 -2.3370 -1.5111
 9773TIP3   OH250733   0.057   5.960   1.988 -0.3496  0.2914 -0.1722
 9773TIP3    H150734   0.096   5.964   1.900 -0.3633  1.0418 -0.1471
 9773TIP3    H250735   0.028   6.049   2.005  0.2008  0.2865  0.8467
 9774TIP3   OH250736   2.932   0.475   4.871  0.0075  0.7539 -0.0048
 9774TIP3    H150737   2.862   0.486   4.936  0.0405  0.0981  0.1484
 9774TIP3    H250738   2.993   0.414   4.912 -0.2968 -0.1905 -0.9064
 9775TIP3   OH250739   6.193   0.900   3.732 -0.3969 -0.3699 -0.2380
 9775TIP3    H150740   6.208   0.843   3.657  2.2971  0.0297 -0.0826
 9775TIP3    H250741   6.280   0.916   3.769 -1.6321 -1.0872  3.4055
 9776TIP3   OH250742   4.419   0.751   1.430 -0.2798 -0.9021 -0.0067
 9776TIP3    H150743   4.470   0.827   1.404 -1.5306  0.5083  1.4809
 9776TIP3    H250744   4.412   0.698   1.350  1.2463  0.1463 -0.8735
 9777TIP3   OH250745   3.634   4.104   0.413  0.0435 -0.0027 -0.1421
 9777TIP3    H150746   3.705   4.053   0.375 -2.0929 -3.0006 -0.4243
 9777TIP3    H250747   3.600   4.156   0.339  1.5482  1.1231 -0.0983
 9778TIP3   OH250748   2.144   4.832   0.764 -0.5415 -0.2572  0.1437
 9778TIP3    H150749   2.153   4.764   0.697  1.0260 -0.8149  0.8561
 9778TIP3    H250750   2.198   4.905   0.732  0.0385 -0.4433  0.6686
 9779TIP3   OH250751   1.255   2.725   3.649 -0.2919 -0.4985  0.2129
 9779TIP3    H150752   1.169   2.695   3.678  0.4906 -4.1723 -0.7168
 9779TIP3    H250753   1.248   2.727   3.553  0.6279 -0.8618  0.1319
 9780TIP3   OH250754   0.599   5.638  10.753 -0.0549 -0.0935 -0.0947
 9780TIP3    H150755   0.663   5.574  10.722 -0.6611 -1.4614  1.3150
 9780TIP3    H250756   0.637   5.723  10.732  2.3820 -0.8235  0.9638
 9781TIP3   OH250757   1.838   1.337  14.022 -0.3982 -0.1354  0.1929
 9781TIP3    H150758   1.850   1.365  14.113 -0.9290 -0.6176  0.4193
 9781TIP3    H250759   1.763   1.387  13.990  0.6275  1.0584 -0.4366
 9782TIP3   OH250760   1.886   0.414  14.124 -0.5451 -0.5734  0.1678
 9782TIP3    H150761   1.938   0.338  14.150 -2.4109 -1.7942  0.5883
 9782TIP3    H250762   1.916   0.436  14.036  1.0133 -0.8825  0.6008
 9783TIP3   OH250763   1.075   2.529  11.443 -0.0440  0.0047  0.4536
 9783TIP3    H150764   1.096   2.567  11.358 -1.6191 -0.7457 -0.3088
 9783TIP3    H250765   1.073   2.435  11.427  0.5340 -0.2084  1.5448
 9784TIP3   OH250766   4.140   2.282   3.352 -0.4819  1.0808 -0.1913
 9784TIP3    H150767   4.195   2.355   3.380  1.6958 -0.3551 -0.4572
 9784TIP3    H250768   4.118   2.236   3.433  2.5557 -0.8429 -0.2784
 9785TIP3   OH250769   0.563   5.150   5.029 -0.3858 -0.2313 -0.0680
 9785TIP3    H150770   0.524   5.064   5.012  0.0257 -0.3452 -0.4580
 9785TIP3    H250771   0.559   5.160   5.125  0.0048 -0.9001  0.0226
 9786TIP3   OH250772   3.370   6.631  13.968 -0.3442 -0.2402  0.4589
 9786TIP3    H150773   3.345   6.664  14.054 -0.2298 -0.5548  0.6172
 9786TIP3    H250774   3.287   6.625  13.920 -0.5440 -0.9509  0.8648
 9787TIP3   OH250775   2.989   3.037  13.969  1.0411  0.2183 -0.7412
 9787TIP3    H150776   3.056   3.052  13.903  2.0701 -1.4914 -0.1640
 9787TIP3    H250777   3.035   2.995  14.042 -0.7542 -1.8776 -0.6771
 9788TIP3   OH250778   0.973   3.361   6.068  0.1063  0.0621  0.1622
 9788TIP3    H150779   0.926   3.307   6.131 -0.1865 -0.3754 -0.4165
 9788TIP3    H250780   0.918   3.358   5.989  0.8493 -0.0392 -0.3662
 9789TIP3   OH250781   2.610   1.547  16.188 -0.1844 -0.3424 -0.1079
 9789TIP3    H150782   2.537   1.547  16.250 -1.4507 -0.3003 -1.5286
 9789TIP3    H250783   2.685   1.577  16.239 -1.4894  1.1871  1.0343
 9790TIP3   OH250784   6.304   2.917   3.160  0.3034  0.2304  0.2452
 9790TIP3    H150785   6.395   2.890   3.173 -0.0667  0.3071  4.4502
 9790TIP3    H250786   6.297   3.001   3.207 -1.6777  0.8844 -1.0939
 9791TIP3   OH250787   0.530   4.954  13.020  0.2055 -0.2371 -0.0972
 9791TIP3    H150788   0.503   4.970  12.929 -0.8261  1.3278  0.4490
 9791TIP3    H250789   0.524   5.040  13.062 -0.3062 -1.1212  1.7180
 9792TIP3   OH250790   3.126   1.330  11.663  0.2847 -0.1971  0.7103
 9792TIP3    H150791   3.141   1.298  11.574  0.1438  0.2456  0.5251
 9792TIP3    H250792   3.044   1.380  11.657  0.5676  0.3018  0.9670
 9793TIP3   OH250793   6.090   2.842  15.186  0.5724  0.0290 -0.6211
 9793TIP3    H150794   6.115   2.831  15.278  0.0827 -0.5335 -0.5493
 9793TIP3    H250795   5.995   2.829  15.185  0.5602  0.1510 -1.1847
 9794TIP3   OH250796   3.676   2.307   1.263 -0.3702 -0.2589 -0.0632
 9794TIP3    H150797   3.728   2.387   1.257 -2.0799  0.8363 -0.8060
 9794TIP3    H250798   3.740   2.237   1.249  1.2862  0.8967  1.2799
 9795TIP3   OH250799   0.749   4.784   4.490  0.7809 -0.2632 -0.3120
 9795TIP3    H150800   0.664   4.744   4.472  0.8945 -0.2711 -0.8476
 9795TIP3    H250801   0.738   4.824   4.576  0.6872 -1.4813  0.2528
 9796TIP3   OH250802   3.288   2.302  12.737  0.5267  0.0569  0.2213
 9796TIP3    H150803   3.361   2.340  12.786  1.6359 -0.6626 -0.8300
 9796TIP3    H250804   3.327   2.232  12.685 -0.8506 -0.1057 -0.6523
 9797TIP3   OH250805   0.028   5.634  15.319  0.0190 -0.2270 -0.2625
 9797TIP3    H150806   0.013   5.542  15.296 -1.5787 -0.3520  1.0416
 9797TIP3    H250807  -0.045   5.681  15.278  0.7708  0.4679 -0.8351
 9798TIP3   OH250808   3.607   5.555   4.202  0.4139  0.6102  0.3430
 9798TIP3    H150809   3.653   5.521   4.126 -0.8299 -1.2624  0.3449
 9798TIP3    H250810   3.561   5.633   4.170 -0.1168 -0.1688 -0.8610
 9799TIP3   OH250811   2.252   4.382  12.456 -0.3494 -0.2612  0.0181
 9799TIP3    H150812   2.206   4.415  12.379 -1.1495  3.0260  1.7163
 9799TIP3    H250813   2.197   4.408  12.530  1.5572 -1.1516  1.8594
 9800TIP3   OH250814   3.454   2.696   6.219 -0.3131  0.3866 -0.1335
 9800TIP3    H150815   3.480   2.738   6.301 -1.2089  0.2272  0.2431
 9800TIP3    H250816   3.464   2.764   6.153  1.0468  0.3333 -0.0213
 9801TIP3   OH250817   2.293   2.763  15.646  0.4248 -0.8033  0.1965
 9801TIP3    H150818   2.234   2.766  15.571 -2.0540 -1.2601  2.0339
 9801TIP3    H250819   2.314   2.670  15.657  0.9070 -0.7210 -0.0019
 9802TIP3   OH250820   6.647   6.016   0.552 -0.0068 -0.1206  0.1480
 9802TIP3    H150821   6.577   6.007   0.489 -0.1717  0.4659  0.2418
 9802TIP3    H250822   6.604   6.044   0.633  0.2824 -0.1763  0.3248
 9803TIP3   OH250823   2.251   6.442   1.054 -0.0576 -0.0514  0.8642
 9803TIP3    H150824   2.326   6.385   1.071  0.0753  0.0999  0.7947
 9803TIP3    H250825   2.239   6.491   1.135 -0.4393 -0.4822  1.0676
 9804TIP3   OH250826   0.456   3.367   4.244 -0.9738 -0.0933  0.2045
 9804TIP3    H150827   0.388   3.413   4.294 -2.0361 -1.8173  0.4380
 9804TIP3    H250828   0.420   3.360   4.155  0.1235  1.3673 -0.3971
 9805TIP3   OH250829   3.573   1.334   4.643  0.0256 -0.6040  0.0591
 9805TIP3    H150830   3.531   1.345   4.558 -4.4683 -3.6517  1.5061
 9805TIP3    H250831   3.545   1.409   4.695 -0.8051 -0.8751  0.0104
 9806TIP3   OH250832   5.896   5.780  14.090 -0.8458  0.2094 -0.5498
 9806TIP3    H150833   5.814   5.819  14.058 -0.4233  0.9309 -0.7864
 9806TIP3    H250834   5.918   5.713  14.025  0.0625  1.7376 -1.8896
 9807TIP3   OH250835   0.175   6.277  10.628 -0.0097 -0.1215 -0.0165
 9807TIP3    H150836   0.235   6.237  10.565  0.7041  0.5016  0.2384
 9807TIP3    H250837   0.099   6.220  10.630  0.4569 -0.7725 -0.5797
 9808TIP3   OH250838   4.938   0.340   0.524  0.0992 -0.4461  0.3444
 9808TIP3    H150839   4.895   0.365   0.442  0.6049  1.7739  0.7128
 9808TIP3    H250840   5.012   0.286   0.496 -0.6110 -1.0056 -0.5340
 9809TIP3   OH250841   3.529   6.472  14.845  0.3914 -0.0042  0.0741
 9809TIP3    H150842   3.581   6.509  14.916 -1.6977 -0.5957  2.0094
 9809TIP3    H250843   3.441   6.462  14.881 -1.0194  0.5328 -2.9172
 9810TIP3   OH250844   2.037   1.260  12.262  0.0026 -0.5449 -0.0610
 9810TIP3    H150845   2.074   1.217  12.339 -1.2707 -0.8047  0.4232
 9810TIP3    H250846   2.104   1.323  12.235  0.2873 -0.1461  1.5129
 9811TIP3   OH250847   3.449   5.595   5.795  0.0352 -0.0625  0.0622
 9811TIP3    H150848   3.404   5.635   5.721  0.1095 -0.1920 -0.0541
 9811TIP3    H250849   3.530   5.645   5.804 -0.8295  1.1806  1.2553
 9812TIP3   OH250850   2.002   3.081   4.617  0.3049  0.0921  0.7174
 9812TIP3    H150851   2.027   3.108   4.705 -0.4688  0.0196  0.9716
 9812TIP3    H250852   1.911   3.109   4.609 -0.0705 -1.1493  0.4638
 9813TIP3   OH250853   0.031   0.316   5.128 -0.6971 -0.3035  0.1137
 9813TIP3    H150854   0.003   0.286   5.214  0.4322  1.6192  1.2288
 9813TIP3    H250855   0.122   0.287   5.121 -1.0430 -1.2227 -0.8494
 9814TIP3   OH250856   6.002   0.325  13.732 -0.2309 -0.3774  0.1673
 9814TIP3    H150857   5.956   0.403  13.764 -1.9700 -1.7787  1.2395
 9814TIP3    H250858   5.945   0.289  13.665 -0.1304 -1.4955  0.6724
 9815TIP3   OH250859   3.967   2.024   0.978  0.6008  0.2504 -0.4212
 9815TIP3    H150860   3.899   2.041   0.913 -0.3590  0.1672  0.5083
 9815TIP3    H250861   4.046   2.066   0.944  0.7044 -1.6120 -2.6401
 9816TIP3   OH250862   5.083   5.889  14.115  0.2862  0.0749  0.4599
 9816TIP3    H150863   5.017   5.899  14.045  0.9628  0.2623 -0.1633
 9816TIP3    H250864   5.047   5.820  14.171 -0.4588  0.1935  0.1500
 9817TIP3   OH250865   2.030   0.912   5.202 -0.5139  0.3673  0.0965
 9817TIP3    H150866   1.953   0.967   5.188 -1.2683 -0.7309 -0.2359
 9817TIP3    H250867   1.995   0.832   5.243  0.6574  0.4570  1.3609
 9818TIP3   OH250868   1.666   3.755   5.653 -0.3931  0.0239  0.4878
 9818TIP3    H150869   1.664   3.719   5.564  2.2759  0.9966 -0.0491
 9818TIP3    H250870   1.611   3.695   5.704 -0.9928 -1.2740 -1.5517
 9819TIP3   OH250871   5.946   0.400  15.174 -0.2452 -0.2020 -0.8138
 9819TIP3    H150872   5.871   0.364  15.126  1.1404 -1.2815 -2.2572
 9819TIP3    H250873   5.953   0.490  15.142 -0.5085 -0.3100 -1.1856
 9820TIP3   OH250874   1.016   2.215   3.752 -0.1641  0.6169  0.1426
 9820TIP3    H150875   0.935   2.173   3.726  1.3302 -3.0139  0.7761
 9820TIP3    H250876   1.073   2.209   3.676  0.3516  0.7156  0.5107
 9821TIP3   OH250877   3.348   4.947  12.852 -0.5628 -0.7359 -0.0739
 9821TIP3    H150878   3.274   4.906  12.895 -0.3976 -2.5350 -1.4115
 9821TIP3    H250879   3.381   4.881  12.790  0.3623  1.0303 -1.5917
 9822TIP3   OH250880   5.788   5.057  12.142  0.3034 -0.4854 -0.2782
 9822TIP3    H150881   5.739   5.113  12.201  1.1738 -1.2829  1.2706
 9822TIP3    H250882   5.870   5.103  12.126  0.1039 -0.3081 -0.8273
 9823TIP3   OH250883   2.657   2.080   4.770  0.3967 -0.1762 -0.0766
 9823TIP3    H150884   2.621   2.020   4.705  0.0533 -2.0983  1.7741
 9823TIP3    H250885   2.582   2.106   4.823  1.1230 -1.3623  1.6146
 9824TIP3   OH250886   0.418   1.412   1.767  0.0099  0.2400  0.0513
 9824TIP3    H150887   0.349   1.477   1.757  0.6107  0.9566  0.4332
 9824TIP3    H250888   0.479   1.450   1.830  0.5436 -0.5554  0.0433
 9825TIP3   OH250889   2.082   3.442   2.859  0.5307  0.1352  0.2622
 9825TIP3    H150890   2.071   3.525   2.813  1.1511  0.4787  0.7345
 9825TIP3    H250891   2.123   3.465   2.942 -0.2412 -0.5280  0.8402
 9826TIP3   OH250892   4.216   2.742   0.057  0.1137 -0.2924  0.1912
 9826TIP3    H150893   4.184   2.701   0.138 -3.9190 -0.2001 -1.1384
 9826TIP3    H250894   4.292   2.689   0.032 -0.6462 -2.5256  2.2117
 9827TIP3   OH250895   4.426   2.571  12.626 -0.3748 -0.8142 -0.3374
 9827TIP3    H150896   4.370   2.569  12.703 -0.3257  0.5448 -0.2469
 9827TIP3    H250897   4.370   2.607  12.557  0.2507  0.1300 -0.3563
 9828TIP3   OH250898   0.349   4.013  16.422 -0.4282  0.5787  0.4196
 9828TIP3    H150899   0.279   3.993  16.360  0.9678 -1.2915 -0.6454
 9828TIP3    H250900   0.350   3.938  16.482  0.6724  0.5644  0.4022
 9829TIP3   OH250901   0.705   2.548  15.592  0.0862  0.7239 -0.0139
 9829TIP3    H150902   0.758   2.593  15.658 -0.1048  0.8574  0.0478
 9829TIP3    H250903   0.615   2.557  15.622 -0.2057  2.4589 -1.2720
 9830TIP3   OH250904   2.251   2.097  14.155  0.2291 -0.4544 -0.3694
 9830TIP3    H150905   2.182   2.032  14.171 -0.1227 -0.6006 -2.3149
 9830TIP3    H250906   2.205   2.180  14.144  0.3665 -0.5175 -1.4868
 9831TIP3   OH250907   2.271   4.842   0.421 -0.4744 -0.2563  0.0349
 9831TIP3    H150908   2.180   4.829   0.396 -0.5894 -1.1976  0.9048
 9831TIP3    H250909   2.297   4.923   0.376 -1.4142 -0.5434 -1.0500
 9832TIP3   OH250910   5.602   1.723  13.035 -0.1838  0.4346 -0.0848
 9832TIP3    H150911   5.525   1.779  13.023  0.9503  2.0510 -0.2142
 9832TIP3    H250912   5.639   1.715  12.947  0.7359  1.1265  0.2247
 9833TIP3   OH250913   5.503   1.246  13.584 -0.4476  0.0838  0.1155
 9833TIP3    H150914   5.560   1.306  13.632 -0.0879  0.7690 -1.1088
 9833TIP3    H250915   5.536   1.249  13.494 -1.3384 -0.8484 -0.2627
 9834TIP3   OH250916   4.842   1.028  11.455  0.0992  0.0166  0.1261
 9834TIP3    H150917   4.774   0.963  11.436 -0.3481  0.1936  1.0648
 9834TIP3    H250918   4.820   1.103  11.401 -0.5701  0.1414  0.5582
 9835TIP3   OH250919   6.037   2.145   4.078  0.0563 -0.3370 -0.5068
 9835TIP3    H150920   6.004   2.227   4.114  0.4053  0.5658 -2.1425
 9835TIP3    H250921   6.127   2.163   4.054 -0.1061 -0.9088 -1.6763
 9836TIP3   OH250922   0.177   5.716  17.166  0.4064 -0.0660 -0.3638
 9836TIP3    H150923   0.258   5.672  17.140 -0.6319 -1.8710 -0.6904
 9836TIP3    H250924   0.112   5.687  17.102 -0.7533  0.4725  0.5361
 9837TIP3   OH250925   6.125   6.406   2.233  0.6524 -0.5560 -0.2367
 9837TIP3    H150926   6.046   6.352   2.234  0.3248 -0.1131  1.6651
 9837TIP3    H250927   6.193   6.350   2.272  0.9340 -0.4493 -0.5676
 9838TIP3   OH250928   4.205   3.961  16.102  0.0958  0.1367 -0.1918
 9838TIP3    H150929   4.232   3.916  16.182 -1.3130 -1.8965 -0.8006
 9838TIP3    H250930   4.236   4.051  16.115  2.2000 -0.7246  1.4775
 9839TIP3   OH250931   0.191   1.117   1.512 -0.2869 -0.1256 -0.1966
 9839TIP3    H150932   0.168   1.062   1.587 -1.0132 -0.8217 -0.9109
 9839TIP3    H250933   0.284   1.100   1.497 -0.4079 -0.8462 -0.1524
 9840TIP3   OH250934   4.796   0.064   6.805  0.1337  0.4712 -0.1932
 9840TIP3    H150935   4.730  -0.003   6.825  0.9561 -0.2390  0.2036
 9840TIP3    H250936   4.875   0.014   6.784  1.1756  1.3155  1.5059
 9841TIP3   OH250937   1.282   2.856  15.165  0.6580  0.1430 -0.3844
 9841TIP3    H150938   1.262   2.853  15.071 -0.7484 -0.9123 -0.0947
 9841TIP3    H250939   1.197   2.871  15.206  1.2397  0.4370  0.7406
 9842TIP3   OH250940   1.890   0.344  15.360 -0.5507  0.3618  0.1186
 9842TIP3    H150941   1.865   0.268  15.308  1.8629 -0.0146 -0.5948
 9842TIP3    H250942   1.823   0.350  15.428 -1.4308 -1.6855 -0.5071
 9843TIP3   OH250943   0.191   3.000  16.546 -0.0962  0.0022 -0.1351
 9843TIP3    H150944   0.122   3.025  16.485  0.3925 -0.5543 -0.9403
 9843TIP3    H250945   0.145   2.966  16.622 -0.7440  1.7572  0.3106
 9844TIP3   OH250946   3.832   4.949  17.231 -0.4042  0.1501 -0.4056
 9844TIP3    H150947   3.892   5.005  17.182 -1.2116  0.4971 -1.0186
 9844TIP3    H250948   3.745   4.979  17.206 -0.9166  1.6744  2.7228
 9845TIP3   OH250949   5.368   4.891  14.864  0.2621  0.5487 -0.1878
 9845TIP3    H150950   5.276   4.868  14.851 -0.0357  1.1000  0.9068
 9845TIP3    H250951   5.388   4.951  14.792  0.0300 -0.2613 -0.9507
 9846TIP3   OH250952   0.360   5.004  15.455 -0.3328 -0.2376 -0.0169
 9846TIP3    H150953   0.416   4.975  15.383 -0.8156  1.3589 -1.0820
 9846TIP3    H250954   0.419   5.048  15.516  0.1405 -1.9286  0.8173
 9847TIP3   OH250955   2.408   0.748  15.832 -0.2296 -0.3856 -0.1442
 9847TIP3    H150956   2.467   0.675  15.813  0.8315  0.3290  0.3053
 9847TIP3    H250957   2.429   0.774  15.922 -1.2782 -0.1387  0.0544
 9848TIP3   OH250958   4.660   4.038   2.677  0.0010 -0.3578 -0.3215
 9848TIP3    H150959   4.570   4.063   2.659  0.2208  1.2082  0.5992
 9848TIP3    H250960   4.696   4.014   2.591 -0.6603  1.1991 -1.0745
 9849TIP3   OH250961   0.662   0.610  12.396  0.4986 -0.6772  0.3389
 9849TIP3    H150962   0.591   0.674  12.386  0.2186 -1.0389  0.0265
 9849TIP3    H250963   0.703   0.606  12.310  0.0815 -1.4278  0.1679
 9850TIP3   OH250964   5.366   0.107   5.912 -0.1609  0.0604 -0.1863
 9850TIP3    H150965   5.452   0.077   5.885  1.2116  3.4260 -0.0949
 9850TIP3    H250966   5.318   0.120   5.830  1.4376  3.2514 -0.7912
 9851TIP3   OH250967   5.860   3.064  12.267  0.0725  0.4523  0.3089
 9851TIP3    H150968   5.830   2.981  12.304 -1.2168  1.7284  2.2774
 9851TIP3    H250969   5.782   3.104  12.229  1.1702 -0.3481 -3.0824
 9852TIP3   OH250970   2.100   4.717   5.564 -0.0369 -0.0532  0.1902
 9852TIP3    H150971   2.101   4.749   5.654 -1.2048 -2.3559  1.1171
 9852TIP3    H250972   2.148   4.634   5.568  0.0365 -0.1245 -1.3629
 9853TIP3   OH250973   0.768   1.585  15.453 -0.1078 -0.2016  0.1522
 9853TIP3    H150974   0.756   1.560  15.545 -3.6396  5.4684  1.7594
 9853TIP3    H250975   0.823   1.664  15.457  1.8857 -1.2386 -3.0835
 9854TIP3   OH250976   6.516   1.757  12.014 -0.1761  0.2188  0.6353
 9854TIP3    H150977   6.505   1.823  11.946 -0.1948  0.9017  1.2833
 9854TIP3    H250978   6.572   1.691  11.974 -1.6028 -0.2789 -0.6361
 9855TIP3   OH250979   1.402   5.973   3.658  0.3148  0.2481 -0.2304
 9855TIP3    H150980   1.448   5.982   3.575 -1.2988 -0.7839 -1.2795
 9855TIP3    H250981   1.353   6.055   3.667 -2.8911 -1.1965 -2.5384
 9856TIP3   OH250982   5.770   0.717  11.865  0.3943  0.5020  0.4346
 9856TIP3    H150983   5.698   0.663  11.898 -1.1257  1.4032 -1.2133
 9856TIP3    H250984   5.777   0.789  11.927 -0.5834  0.7385  0.2894
 9857TIP3   OH250985   3.906   2.460   0.032  0.5117 -0.9249 -0.4575
 9857TIP3    H150986   3.885   2.480  -0.059 -2.5219 -1.3060  0.0356
 9857TIP3    H250987   3.881   2.540   0.080 -2.4529 -2.2352  0.4481
 9858TIP3   OH250988   4.055   2.300  13.015 -0.0745 -0.4484 -0.0533
 9858TIP3    H150989   4.030   2.328  12.927  1.5591  0.6604 -0.2038
 9858TIP3    H250990   3.997   2.349  13.074  0.8281  1.1309 -0.4294
 9859TIP3   OH250991   2.279   2.503   2.163  0.3333  0.0537  0.2705
 9859TIP3    H150992   2.332   2.450   2.224 -0.2589 -1.8245 -0.7592
 9859TIP3    H250993   2.333   2.510   2.084 -0.3941 -0.7953 -0.3273
 9860TIP3   OH250994   6.245   0.014  15.003 -0.6176 -0.0347 -0.7806
 9860TIP3    H150995   6.257   0.108  14.988  0.5404  0.4660  2.5940
 9860TIP3    H250996   6.164   0.008  15.054  0.2589 -0.6343  0.5915
 9861TIP3   OH250997   6.301   0.641  11.664 -0.0232  0.1391 -0.5553
 9861TIP3    H150998   6.288   0.558  11.618  1.0465 -0.7267  0.6265
 9861TIP3    H250999   6.213   0.677  11.673 -0.9491 -2.3215  1.4837
 9862TIP3   OH251000   2.705   2.225  12.220  0.3699 -0.3048 -0.0346
 9862TIP3    H151001   2.709   2.149  12.278 -1.4216 -0.7954 -0.4861
 9862TIP3    H251002   2.741   2.194  12.137 -0.8906 -0.8822 -0.3961
 9863TIP3   OH251003   4.161   2.662   4.516 -0.0125  0.8188 -0.1231
 9863TIP3    H151004   4.168   2.755   4.495  0.9217  0.6379 -0.6556
 9863TIP3    H251005   4.251   2.632   4.526 -0.2871 -0.0776 -0.1495
 9864TIP3   OH251006   1.354   6.199   3.406  0.0839 -0.5241  0.0205
 9864TIP3    H151007   1.303   6.121   3.385  0.2698 -0.0644 -2.4128
 9864TIP3    H251008   1.446   6.172   3.396  0.1736 -0.1498 -0.1894
 9865TIP3   OH251009   5.291   4.612   5.876 -0.4234 -0.3608 -0.0836
 9865TIP3    H151010   5.280   4.643   5.966 -3.2017  1.0439 -0.8315
 9865TIP3    H251011   5.260   4.521   5.878 -0.5503 -0.3087  0.3304
 9866TIP3   OH251012   4.140   0.477   4.271  0.2212  0.2377  0.1105
 9866TIP3    H151013   4.234   0.492   4.279  0.2902 -0.4321  0.6584
 9866TIP3    H251014   4.101   0.522   4.346  0.1976 -0.2142  0.3774
 9867TIP3   OH251015   5.294   2.928   2.285 -0.2831  0.2272  0.5424
 9867TIP3    H151016   5.351   2.864   2.243  0.4672  1.6339 -0.6731
 9867TIP3    H251017   5.325   2.933   2.375  0.6591  0.0102  0.2422
 9868TIP3   OH251018   1.641   5.940  14.029 -0.3279  0.2654  1.1327
 9868TIP3    H151019   1.680   5.992  14.099 -0.4848  0.0672  1.3698
 9868TIP3    H251020   1.710   5.932  13.963  0.0809 -0.1923  1.6046
 9869TIP3   OH251021   1.506   3.950  14.114 -0.4238  0.5960 -0.2103
 9869TIP3    H151022   1.509   3.870  14.062  0.3881  0.5845 -0.1496
 9869TIP3    H251023   1.586   3.996  14.093  0.0922  0.4364  1.2615
 9870TIP3   OH251024   4.114   3.243  11.329  0.4169 -0.4885  0.7596
 9870TIP3    H151025   4.131   3.151  11.348 -2.0423 -0.9658  0.9758
 9870TIP3    H251026   4.165   3.261  11.250  0.1282 -2.3519  0.0996
 9871TIP3   OH251027   3.876   1.420  17.201  0.0626  0.5146  0.0870
 9871TIP3    H151028   3.878   1.475  17.279  0.5205 -0.2121  0.6064
 9871TIP3    H251029   3.843   1.336  17.233  1.3669 -0.1530 -0.2467
 9872TIP3   OH251030   0.929   4.694   2.439  0.1501 -0.3727  0.0696
 9872TIP3    H151031   1.010   4.740   2.420  0.0051  0.6139  1.6189
 9872TIP3    H251032   0.950   4.640   2.516 -0.7769  0.3282  0.8407
 9873TIP3   OH251033   2.168   1.267  17.022 -0.4788  0.3617  0.4102
 9873TIP3    H151034   2.082   1.225  17.026 -0.0318 -0.4832  1.7480
 9873TIP3    H251035   2.162   1.340  17.084 -0.5495  0.9483 -0.2729
 9874TIP3   OH251036   3.657   3.632   1.135 -0.4582 -0.3221  0.4542
 9874TIP3    H151037   3.737   3.676   1.106 -0.1020  0.1969  2.1123
 9874TIP3    H251038   3.610   3.613   1.054  0.1302  1.6844 -0.4290
 9875TIP3   OH251039   1.004   0.263   4.413 -1.1428  0.2807  0.1858
 9875TIP3    H151040   0.980   0.347   4.374 -3.0719 -1.2925 -2.2872
 9875TIP3    H251041   1.074   0.229   4.358 -1.9551 -0.7084 -0.2809
 9876TIP3   OH251042   2.400   4.672  13.651  0.2616  0.1899 -0.0892
 9876TIP3    H151043   2.430   4.737  13.587  0.5950  0.9103  0.7734
 9876TIP3    H251044   2.345   4.613  13.600 -1.3460  2.0391 -0.6254
 9877TIP3   OH251045   0.508   0.380  16.357  0.3714 -0.4605 -0.5518
 9877TIP3    H151046   0.452   0.324  16.411  1.6131 -2.1495 -0.9327
 9877TIP3    H251047   0.506   0.465  16.401 -2.5974 -0.3685 -0.6552
 9878TIP3   OH251048   3.037   1.538   5.401  0.2145 -0.4729 -0.1988
 9878TIP3    H151049   2.946   1.538   5.430  0.2578 -1.6560 -0.0169
 9878TIP3    H251050   3.086   1.573   5.475 -0.1589  0.9001 -0.5766
 9879TIP3   OH251051   2.977   4.245  12.724 -0.1728 -0.2322  0.4735
 9879TIP3    H151052   2.910   4.206  12.779 -0.7929  0.0905 -0.0320
 9879TIP3    H251053   3.003   4.175  12.664 -1.7938  0.2761 -0.9040
 9880TIP3   OH251054   6.248   1.670  13.584 -0.7455  0.3846  0.5661
 9880TIP3    H151055   6.294   1.642  13.506 -1.1191 -0.7972  0.7597
 9880TIP3    H251056   6.168   1.711  13.552 -0.5783  0.5121  0.3126
 9881TIP3   OH251057   5.934   3.008  11.627 -0.3235  0.1948  0.6472
 9881TIP3    H151058   5.958   3.088  11.673  0.5742 -0.0887  0.7044
 9881TIP3    H251059   5.848   2.984  11.662 -0.1437  0.5841  1.3622
 9882TIP3   OH251060   4.129   3.156  14.814  0.0241 -0.6953  0.7080
 9882TIP3    H151061   4.148   3.139  14.906 -0.5089  0.2443  1.0105
 9882TIP3    H251062   4.040   3.192  14.814  0.3014  0.0287 -0.0831
 9883TIP3   OH251063   4.507   3.409   2.899 -0.3387  0.1239 -0.4727
 9883TIP3    H151064   4.451   3.404   2.977  1.3066  0.7999  0.8126
 9883TIP3    H251065   4.515   3.318   2.870 -0.0942 -0.3046  0.8380
 9884TIP3   OH251066   3.708   3.817  12.786 -0.8711  0.4938 -0.1416
 9884TIP3    H151067   3.772   3.886  12.769 -0.3072 -0.0777 -0.3916
 9884TIP3    H251068   3.683   3.829  12.877 -0.2417  0.5950  0.0204
 9885TIP3   OH251069   6.344   3.637   4.198  0.4082 -0.0080  0.8134
 9885TIP3    H151070   6.333   3.732   4.192 -0.8054 -0.1408  0.4963
 9885TIP3    H251071   6.277   3.602   4.139  1.8902 -1.0531 -0.3349
 9886TIP3   OH251072   2.535   2.119  13.616 -0.1776 -0.2132  0.6747
 9886TIP3    H151073   2.533   2.182  13.688 -2.4616  1.5536 -0.7880
 9886TIP3    H251074   2.560   2.171  13.540  2.7199 -2.1490  0.1558
 9887TIP3   OH251075   6.076   4.391   5.371  0.3260 -0.7782  0.1686
 9887TIP3    H151076   6.067   4.350   5.457  1.9538 -1.0543  0.2388
 9887TIP3    H251077   6.164   4.428   5.371  0.9123 -2.0002 -1.8670
 9888TIP3   OH251078   1.130   4.053   2.148 -0.0352 -0.0782  0.3418
 9888TIP3    H151079   1.080   4.003   2.083  0.6722 -0.3150 -0.0339
 9888TIP3    H251080   1.206   4.084   2.099 -1.2560  2.8141  0.0978
 9889TIP3   OH251081   5.974   2.311   3.533 -0.4353  1.0066  0.0655
 9889TIP3    H151082   5.969   2.407   3.537  0.4642  1.0383  0.6393
 9889TIP3    H251083   6.065   2.292   3.512 -0.4001  0.2564  0.8316
 9890TIP3   OH251084   3.284   3.651  17.301  0.2988 -0.1685 -0.4007
 9890TIP3    H151085   3.351   3.587  17.325 -0.0059 -0.8128 -1.2081
 9890TIP3    H251086   3.323   3.699  17.227  0.6369  0.7778  0.3746
 9891TIP3   OH251087   6.175   4.272   0.023 -0.1012 -0.0219 -0.0089
 9891TIP3    H151088   6.154   4.315   0.106  1.5112 -0.9263  0.9249
 9891TIP3    H251089   6.169   4.342  -0.042  0.6087  1.2065  1.1805
 9892TIP3   OH251090   4.586   4.496  14.111 -0.6255  0.5179 -0.2521
 9892TIP3    H151091   4.629   4.506  14.026  0.0582 -1.6678 -0.2185
 9892TIP3    H251092   4.594   4.403  14.131 -1.4264  0.8599  1.8843
 9893TIP3   OH251093   6.648   0.995  16.168  0.4515  0.8968 -0.3124
 9893TIP3    H151094   6.632   0.941  16.091 -3.5488 -0.0406  0.9517
 9893TIP3    H251095   6.604   1.077  16.150 -1.8469  0.1439  1.3969
 9894TIP3   OH251096   2.602   6.738   3.582 -0.2068  0.3319  0.1161
 9894TIP3    H151097   2.552   6.729   3.663 -1.6246 -1.1942 -0.8568
 9894TIP3    H251098   2.654   6.658   3.577  0.0676  0.5361 -0.3589
 9895TIP3   OH251099   1.055   6.357   0.665  0.3499  0.3011  0.2482
 9895TIP3    H151100   1.005   6.341   0.745  2.2549  1.2969  1.7213
 9895TIP3    H251101   1.061   6.452   0.658 -1.7394  0.3734 -2.4585
 9896TIP3   OH251102   0.213   3.468  11.905 -0.2135 -0.2861  0.2124
 9896TIP3    H151103   0.197   3.483  11.998  1.7828 -0.8788  0.7161
 9896TIP3    H251104   0.299   3.509  11.890 -1.9757  2.9754 -2.2478
 9897TIP3   OH251105   3.017   6.577   3.770  0.5388 -0.0562  0.1758
 9897TIP3    H151106   2.991   6.527   3.847 -0.8455 -0.3907 -0.4780
 9897TIP3    H251107   2.946   6.563   3.708  0.5289  2.0491 -0.3380
 9898TIP3   OH251108   6.535   5.251  10.526  0.3294 -0.0368 -0.0726
 9898TIP3    H151109   6.518   5.187  10.595 -0.7148 -0.5240 -0.7563
 9898TIP3    H251110   6.474   5.322  10.544  1.6402  0.9176  0.8175
 9899TIP3   OH251111   2.411   6.451  12.691  0.3794 -0.2379  0.0042
 9899TIP3    H151112   2.430   6.466  12.599  0.3473  0.5917  0.1168
 9899TIP3    H251113   2.324   6.490  12.704  0.2884 -0.5447  0.3296
 9900TIP3   OH251114   0.768   3.400   6.895  0.1729 -0.4494 -0.1925
 9900TIP3    H151115   0.814   3.327   6.853 -0.1836 -1.1545  0.6077
 9900TIP3    H251116   0.706   3.358   6.954  1.4116  0.4759  1.8846
 9901TIP3   OH251117   5.194   0.180  11.245 -0.4004 -0.4633 -0.1971
 9901TIP3    H151118   5.286   0.205  11.242  0.0836 -2.1240 -0.2011
 9901TIP3    H251119   5.160   0.200  11.158 -0.5439  1.8080  0.3276
 9902TIP3   OH251120   1.275   1.600   5.013  0.7689  0.7585 -0.2621
 9902TIP3    H151121   1.332   1.565   5.081 -1.5082 -2.5022  0.1986
 9902TIP3    H251122   1.292   1.545   4.937  0.0311  1.3981 -0.9140
 9903TIP3   OH251123   4.438   5.351   3.523  0.4582 -0.2754 -0.0298
 9903TIP3    H151124   4.525   5.373   3.491  1.4721 -2.0897  1.2352
 9903TIP3    H251125   4.416   5.420   3.586  1.7480 -0.6363  0.8595
 9904TIP3   OH251126   4.704   0.436  11.998 -0.2496  0.3516  0.4698
 9904TIP3    H151127   4.625   0.413  12.046 -0.7732  0.8341 -0.1409
 9904TIP3    H251128   4.698   0.387  11.916 -0.0015  0.5243  0.3466
 9905TIP3   OH251129   0.145   4.699   2.898  0.6507  0.0623  0.0661
 9905TIP3    H151130   0.120   4.622   2.848  0.3063  0.1045  0.1705
 9905TIP3    H251131   0.112   4.682   2.986 -0.1787  0.6940 -0.1106
 9906TIP3   OH251132   1.713   0.605  12.370  0.0419 -0.1356 -0.4741
 9906TIP3    H151133   1.755   0.535  12.321 -0.3329 -0.0198 -0.9585
 9906TIP3    H251134   1.620   0.585  12.369 -0.0563  0.3048 -0.5123
 9907TIP3   OH251135   4.701   2.481   4.595 -0.7102 -0.0597  0.0264
 9907TIP3    H151136   4.755   2.403   4.595 -0.9727 -0.2439  0.2161
 9907TIP3    H251137   4.739   2.538   4.662  1.0816  1.1119 -1.8753
 9908TIP3   OH251138   4.074   5.224   6.241  0.9502  0.0053 -0.3807
 9908TIP3    H151139   3.983   5.205   6.263  1.0726 -0.8583 -0.5911
 9908TIP3    H251140   4.114   5.138   6.227  1.8364  0.3677 -0.1495
 9909TIP3   OH251141   1.187   1.117  16.607  0.1981  0.0251  0.1146
 9909TIP3    H151142   1.109   1.069  16.580  0.7982 -2.3386  2.1593
 9909TIP3    H251143   1.235   1.133  16.525 -1.4481 -0.2425 -0.9455
 9910TIP3   OH251144   5.724   3.830  15.269 -0.3666 -0.0614  0.0846
 9910TIP3    H151145   5.767   3.916  15.265 -1.3322  0.3905 -2.7089
 9910TIP3    H251146   5.794   3.767  15.250  0.2193  0.1052  1.5487
 9911TIP3   OH251147   0.499   6.386  16.092 -0.0572 -0.2186  0.0201
 9911TIP3    H151148   0.555   6.314  16.062 -0.5134 -0.7731  0.4871
 9911TIP3    H251149   0.534   6.464  16.047  0.1078 -0.8090 -0.9026
 9912TIP3   OH251150   4.897   2.228  14.837  0.1106  0.5919  0.0875
 9912TIP3    H151151   4.824   2.259  14.891  0.4056 -3.3863  3.2590
 9912TIP3    H251152   4.970   2.285  14.861 -0.8525  1.7741  0.3257
 9913TIP3   OH251153   4.054   5.777   6.094 -0.7989 -0.1292 -0.3193
 9913TIP3    H151154   4.135   5.752   6.138  0.8778  0.6627 -2.7709
 9913TIP3    H251155   4.003   5.822   6.162  0.7271 -0.7714  1.3224
 9914TIP3   OH251156   5.864   0.318  12.117  0.0520  0.4003 -0.1072
 9914TIP3    H151157   5.824   0.260  12.182 -0.3086  0.3271 -0.3872
 9914TIP3    H251158   5.943   0.272  12.088 -1.5277 -1.2186 -2.1872
 9915TIP3   OH251159   2.229   1.144  15.684 -0.1028  0.0646 -0.0574
 9915TIP3    H151160   2.306   1.089  15.672 -1.2899 -1.4354 -1.1389
 9915TIP3    H251161   2.250   1.225  15.638  0.9565 -0.1709 -0.0219
 9916TIP3   OH251162   5.471   6.100  11.250  0.2879  0.2749  0.3881
 9916TIP3    H151163   5.476   6.182  11.201  2.1752  0.7166  1.2306
 9916TIP3    H251164   5.454   6.033  11.184  0.0496  1.1810 -0.4885
 9917TIP3   OH251165   6.459   2.726   2.934 -0.3253  0.4064  0.3239
 9917TIP3    H151166   6.420   2.801   2.889  1.2052  0.2137 -1.4670
 9917TIP3    H251167   6.486   2.760   3.019 -0.3156  1.7189 -0.1806
 9918TIP3   OH251168   6.608   2.318   2.416 -0.2219  0.6545 -0.0907
 9918TIP3    H151169   6.582   2.279   2.333 -0.9992 -0.3588  0.6016
 9918TIP3    H251170   6.699   2.292   2.427 -0.4159 -0.0787 -0.1532
 9919TIP3   OH251171   5.387   3.066   5.806 -0.5665  0.2900 -0.6148
 9919TIP3    H151172   5.347   3.008   5.742 -1.0984  0.4923 -0.4668
 9919TIP3    H251173   5.431   3.007   5.868  0.2890  0.1051 -1.3785
 9920TIP3   OH251174   4.834   0.456  16.106 -0.0657 -0.5684  0.3892
 9920TIP3    H151175   4.799   0.508  16.179  1.0473  0.7592 -0.0070
 9920TIP3    H251176   4.919   0.426  16.137 -0.7266 -2.3093  0.6541
 9921TIP3   OH251177   0.943   0.361  14.061  0.3430  0.3112 -0.1178
 9921TIP3    H151178   0.891   0.342  14.139  2.3345  1.7253  1.6293
 9921TIP3    H251179   0.949   0.456  14.058  0.8055  0.2714 -1.7085
 9922TIP3   OH251180   0.937   3.273   4.400  0.3828 -0.0401  0.7225
 9922TIP3    H151181   0.894   3.357   4.384 -1.3060 -0.5742  2.0400
 9922TIP3    H251182   0.973   3.248   4.315  0.4331  1.7389  0.1765
 9923TIP3   OH251183   0.027   0.232  15.758  0.2473 -0.2076 -0.0481
 9923TIP3    H151184   0.046   0.164  15.823  1.2759  0.0513 -0.0673
 9923TIP3    H251185  -0.042   0.285  15.798  1.0909  0.1399  0.9792
 9924TIP3   OH251186   0.320   5.915   3.453  0.3017 -0.3287  0.1732
 9924TIP3    H151187   0.310   5.947   3.363 -1.8411 -0.8285  0.1851
 9924TIP3    H251188   0.298   5.989   3.508  1.4932 -0.0612  0.3285
 9925TIP3   OH251189   6.734   1.756  12.452 -0.3774  0.4875 -0.5028
 9925TIP3    H151190   6.682   1.715  12.383 -0.4202  0.6694 -0.5812
 9925TIP3    H251191   6.680   1.747  12.531 -0.8419  1.2809 -0.7187
 9926TIP3   OH251192   2.936   5.884   2.392  0.1457 -0.2874 -0.0091
 9926TIP3    H151193   3.022   5.882   2.350 -0.2403  0.6217 -0.9079
 9926TIP3    H251194   2.874   5.882   2.318 -0.5879 -0.1080  0.5917
 9927TIP3   OH251195   2.809   4.613   0.684 -0.2051 -0.0021  0.4196
 9927TIP3    H151196   2.852   4.689   0.645  1.0325 -0.5763  0.6142
 9927TIP3    H251197   2.881   4.558   0.716 -1.1013 -0.8124  1.1208
 9928TIP3   OH251198   4.631   2.834  15.860 -1.2627  0.0540  0.0344
 9928TIP3    H151199   4.556   2.795  15.907 -0.3985 -0.6596  0.8586
 9928TIP3    H251200   4.680   2.881  15.928  0.5001 -1.7426  0.0911
 9929TIP3   OH251201   5.524   1.427  11.839 -0.7247  0.5370  0.0982
 9929TIP3    H151202   5.520   1.523  11.830  1.4920  0.5432 -1.4660
 9929TIP3    H251203   5.473   1.395  11.765 -1.0012  0.5056  0.3019
 9930TIP3   OH251204   2.510   5.391   1.567  0.3656  0.3835 -0.7857
 9930TIP3    H151205   2.420   5.399   1.535 -0.1167 -0.1180  0.3707
 9930TIP3    H251206   2.510   5.308   1.615  1.0199  1.0990  0.5092
 9931TIP3   OH251207   1.789   1.577  17.250 -0.1649 -0.5040 -0.1965
 9931TIP3    H151208   1.746   1.611  17.172  0.9631 -0.4127 -0.7955
 9931TIP3    H251209   1.845   1.649  17.280 -1.7579  0.0563  1.6511
 9932TIP3   OH251210   5.352   4.215  13.618  0.5109  0.2991 -0.3924
 9932TIP3    H151211   5.404   4.296  13.617  0.1312  0.5825  0.7274
 9932TIP3    H251212   5.412   4.148  13.650  0.1323  0.7022  1.2661
 9933TIP3   OH251213   4.329   1.392   2.223 -0.3828 -0.2151 -0.4278
 9933TIP3    H151214   4.335   1.425   2.134 -1.1184  0.7173 -0.1535
 9933TIP3    H251215   4.309   1.469   2.276 -0.8582 -0.8940  0.4159
 9934TIP3   OH251216   6.234   5.940  16.408 -0.5763  0.4854  0.1583
 9934TIP3    H151217   6.219   6.019  16.459 -1.3436 -0.2565  1.1417
 9934TIP3    H251218   6.220   5.966  16.317  0.2886  1.7211  0.3521
 9935TIP3   OH251219   2.167   6.077   0.716  0.2407  0.2614 -0.0076
 9935TIP3    H151220   2.158   6.046   0.626 -1.2124 -1.5234  0.6738
 9935TIP3    H251221   2.157   6.172   0.711 -2.1701  0.0065 -1.4909
 9936TIP3   OH251222   3.869   3.586  12.964 -0.2711 -0.3144  0.1871
 9936TIP3    H151223   3.891   3.516  13.025  0.1486 -0.6886 -0.3776
 9936TIP3    H251224   3.829   3.653  13.018  0.3885 -0.4951  0.9241
 9937TIP3   OH251225   1.667   4.171  16.097 -0.1873  0.0535  0.0936
 9937TIP3    H151226   1.649   4.265  16.097  0.3867  0.2051  1.5991
 9937TIP3    H251227   1.628   4.140  16.179 -1.2648 -1.2324 -0.8581
 9938TIP3   OH251228   1.353   3.297   0.511 -0.1026  0.2428  0.4566
 9938TIP3    H151229   1.286   3.347   0.464 -0.2678  0.1547  0.6000
 9938TIP3    H251230   1.435   3.341   0.489 -0.2243  0.4454  0.4077
 9939TIP3   OH251231   3.398   3.352   2.932 -0.2632 -0.4705 -0.2104
 9939TIP3    H151232   3.444   3.403   2.866 -0.4638 -0.4139 -0.3064
 9939TIP3    H251233   3.415   3.399   3.014 -1.8545  0.7328 -0.5274
 9940TIP3   OH251234   2.209   1.611   5.322  0.4274 -0.4441 -0.6083
 9940TIP3    H151235   2.280   1.579   5.378  0.8964 -0.4788 -1.2126
 9940TIP3    H251236   2.242   1.693   5.286  0.3264 -0.6518 -1.1960
 9941TIP3   OH251237   2.682   3.426   5.820  0.4585  0.5337 -0.0717
 9941TIP3    H151238   2.594   3.455   5.843  0.8971  1.0988  0.9947
 9941TIP3    H251239   2.729   3.424   5.903  1.8232  1.5502 -0.7746
 9942TIP3   OH251240   0.367   4.758  16.315 -0.5006 -1.1642  0.1937
 9942TIP3    H151241   0.417   4.789  16.391 -1.6793 -1.3623  1.0714
 9942TIP3    H251242   0.277   4.785  16.333 -0.9239 -1.8729 -0.7907
 9943TIP3   OH251243   0.508   0.906   1.342 -0.4274 -0.0513 -0.3365
 9943TIP3    H151244   0.529   0.987   1.388 -0.4767 -0.4069  0.3184
 9943TIP3    H251245   0.591   0.877   1.304 -0.2533 -0.1000  0.0812
 9944TIP3   OH251246   1.749   5.545   1.778 -0.3868  0.1091 -0.5166
 9944TIP3    H151247   1.813   5.615   1.785 -0.0727 -0.2134 -0.1874
 9944TIP3    H251248   1.719   5.550   1.687 -1.5442  1.6921 -0.1098
 9945TIP3   OH251249   0.348   1.503  14.650 -0.3048  0.4135 -0.5786
 9945TIP3    H151250   0.256   1.479  14.654 -0.6360  1.7022  0.1947
 9945TIP3    H251251   0.394   1.429  14.689 -1.3664  1.3472  2.7897
 9946TIP3   OH251252   3.129   0.020  12.543 -0.5552  0.1854  0.2550
 9946TIP3    H151253   3.198   0.038  12.607  0.9351 -2.0249 -0.6080
 9946TIP3    H251254   3.149  -0.068  12.511 -2.4897  0.3882 -1.7019
 9947TIP3   OH251255   1.240   1.395   2.693  0.8304 -0.7136  0.5774
 9947TIP3    H151256   1.206   1.310   2.721  0.5571 -0.8512 -0.1471
 9947TIP3    H251257   1.223   1.453   2.766 -1.7781 -0.5642 -0.0500
 9948TIP3   OH251258   2.195   5.606   6.427  0.0910 -0.5605 -0.3900
 9948TIP3    H151259   2.173   5.573   6.515 -1.4149  0.1555 -0.4635
 9948TIP3    H251260   2.289   5.592   6.419  0.4039  0.0105  1.6333
 9949TIP3   OH251261   0.917   3.655  12.193  0.2315  0.1735  0.1869
 9949TIP3    H151262   0.893   3.734  12.143  2.2742 -0.0793 -1.3865
 9949TIP3    H251263   0.960   3.689  12.272 -0.9764  0.6039  0.6723
 9950TIP3   OH251264   6.266   2.579   2.716 -0.8368 -0.0858  0.1735
 9950TIP3    H151265   6.356   2.556   2.739 -0.8877  0.4855  0.9952
 9950TIP3    H251266   6.275   2.655   2.658 -0.7944  0.2860  0.6567
 9951TIP3   OH251267   4.967   3.460  15.786  0.0161  0.3319 -1.0647
 9951TIP3    H151268   5.014   3.527  15.837 -0.2524  1.2098 -1.9502
 9951TIP3    H251269   5.018   3.380  15.800  0.9201  0.9371 -0.8007
 9952TIP3   OH251270   2.347   1.123   6.286 -0.6095  0.0499 -0.3999
 9952TIP3    H151271   2.439   1.097   6.293 -0.8782 -1.1962 -1.1475
 9952TIP3    H251272   2.303   1.071   6.353 -0.7560  0.8190  0.1158
 9953TIP3   OH251273   3.762   1.503   3.389 -0.2997  0.0856  0.3172
 9953TIP3    H151274   3.671   1.481   3.369 -0.4764  0.2109  0.9702
 9953TIP3    H251275   3.778   1.585   3.342  0.1651 -1.0239 -1.5984
 9954TIP3   OH251276   6.406   2.851   2.348  0.7412  0.0296  0.7691
 9954TIP3    H151277   6.500   2.863   2.339  0.4311  1.6871 -0.7774
 9954TIP3    H251278   6.368   2.893   2.271 -1.2960 -0.2454  1.5392
 9955TIP3   OH251279   4.334   5.526  16.746  0.6310 -0.4657  0.0104
 9955TIP3    H151280   4.343   5.608  16.794 -0.4086  0.1173 -0.7483
 9955TIP3    H251281   4.342   5.458  16.813 -0.1730  0.3043  0.9131
 9956TIP3   OH251282   2.720   3.421   1.506 -0.3462  0.1635 -0.5360
 9956TIP3    H151283   2.720   3.411   1.411 -0.6035  1.9062 -0.7496
 9956TIP3    H251284   2.764   3.505   1.521  0.0461 -0.2699  0.9196
 9957TIP3   OH251285   0.700   1.857   4.522 -0.0128  0.0298  0.6952
 9957TIP3    H151286   0.698   1.865   4.618  0.3392  1.1275  0.6211
 9957TIP3    H251287   0.729   1.942   4.492 -2.9099  0.6962 -0.5455
 9958TIP3   OH251288   1.694   1.214  15.611 -0.2326  0.0838  0.7133
 9958TIP3    H151289   1.775   1.265  15.615 -0.1030  0.0323 -0.7151
 9958TIP3    H251290   1.723   1.123  15.603 -0.4656 -0.2320  2.9108
 9959TIP3   OH251291   5.742   5.827  10.641 -0.3033 -0.3915  0.2232
 9959TIP3    H151292   5.834   5.806  10.655 -0.4103 -0.3675  0.9863
 9959TIP3    H251293   5.729   5.909  10.689 -1.1155 -1.2537  1.5206
 9960TIP3   OH251294   0.118   0.566  15.405 -0.0514  0.1211  0.0382
 9960TIP3    H151295   0.194   0.625  15.414 -0.3223  0.8151 -1.8301
 9960TIP3    H251296   0.152   0.481  15.432  1.8044  0.1441 -1.9594
 9961TIP3   OH251297   4.533   5.553  12.650  0.4289 -0.0796  0.4997
 9961TIP3    H151298   4.591   5.625  12.625 -0.8096  1.0037  0.6620
 9961TIP3    H251299   4.590   5.493  12.699  1.3364  1.1619  1.0275
 9962TIP3   OH251300   2.265   3.082   6.563  0.2370 -0.6092  0.4132
 9962TIP3    H151301   2.307   3.079   6.649  0.6762  0.8920  0.2804
 9962TIP3    H251302   2.180   3.040   6.577  0.3050 -0.3982  1.5791
 9963TIP3   OH251303   2.553   1.767  13.489 -0.1243  0.0729 -0.5138
 9963TIP3    H151304   2.536   1.853  13.450  2.1933 -0.3274 -2.6618
 9963TIP3    H251305   2.577   1.786  13.579  0.4345  1.7108 -0.9716
 9964TIP3   OH251306   2.687   2.590  16.590 -0.4903  0.1119  0.4017
 9964TIP3    H151307   2.650   2.519  16.643  0.1608  0.1285  0.8908
 9964TIP3    H251308   2.756   2.548  16.539  0.1484  0.4486  0.9645
 9965TIP3   OH251309   2.725   4.783   2.947 -0.7808  0.3622  0.1884
 9965TIP3    H151310   2.752   4.857   3.001  1.1844  0.8527 -1.3197
 9965TIP3    H251311   2.807   4.751   2.908 -1.9210 -0.8471 -1.3552
 9966TIP3   OH251312   0.523   4.685   4.609  0.1811  0.3319 -0.4764
 9966TIP3    H151313   0.473   4.749   4.659 -0.3380 -1.0726  0.8813
 9966TIP3    H251314   0.461   4.617   4.587  1.0046 -0.3617 -0.7230
 9967TIP3   OH251315   0.266   0.402  16.024 -0.2413  0.0650  0.0520
 9967TIP3    H151316   0.358   0.401  16.047 -0.0110  2.6096 -0.3949
 9967TIP3    H251317   0.224   0.344  16.087  1.5585 -0.5152  0.7661
 9968TIP3   OH251318   5.700   3.051   4.852 -0.1498 -0.9385  0.0151
 9968TIP3    H151319   5.739   3.117   4.909  1.4276 -1.4694 -0.3899
 9968TIP3    H251320   5.659   2.988   4.912 -3.0164  1.0819  0.3876
 9969TIP3   OH251321   0.020   5.525   4.175 -0.4477 -0.0817  0.0502
 9969TIP3    H151322  -0.048   5.575   4.128  1.4388  1.6866 -0.9484
 9969TIP3    H251323   0.078   5.493   4.106  0.7638  0.0332  0.9868
 9970TIP3   OH251324   1.213   6.602  13.630 -0.4191  0.3962  0.5045
 9970TIP3    H151325   1.200   6.557  13.546 -0.8738  0.7711  0.3705
 9970TIP3    H251326   1.176   6.689  13.617  1.0943  1.0685  0.5410
 9971TIP3   OH251327   0.660   2.620   4.911 -0.0011 -0.1146 -0.8127
 9971TIP3    H151328   0.702   2.538   4.885  0.0915 -0.4640  0.3692
 9971TIP3    H251329   0.577   2.621   4.862 -1.4536 -2.4453  1.3540
 9972TIP3   OH251330   0.640   5.362   2.756 -0.5758 -0.5314  0.3670
 9972TIP3    H151331   0.621   5.429   2.822  0.2925 -0.7516  0.8528
 9972TIP3    H251332   0.705   5.305   2.797  0.1257 -0.5701 -0.7462
 9973TIP3   OH251333   4.274   1.571  12.954  0.5731  0.1862  0.4370
 9973TIP3    H151334   4.345   1.559  13.017 -1.3884 -0.2716  2.7346
 9973TIP3    H251335   4.217   1.636  12.995 -0.2493  0.6948 -1.4221
 9974TIP3   OH251336   6.309   0.385  11.592 -0.0946  0.7217  0.5053
 9974TIP3    H151337   6.366   0.314  11.621 -1.2092 -0.5679 -0.3080
 9974TIP3    H251338   6.230   0.375  11.645 -1.7795 -1.0748 -2.1049
 9975TIP3   OH251339   2.132   0.437  15.451  0.3825  0.4828  0.1834
 9975TIP3    H151340   2.052   0.393  15.423 -0.3130  0.0505  2.6086
 9975TIP3    H251341   2.191   0.430  15.376 -0.6888 -2.1654 -0.5209
 9976TIP3   OH251342   3.178   4.762  12.943 -1.0076 -0.3487  0.3967
 9976TIP3    H151343   3.140   4.771  13.030  1.2142  1.0631  1.3315
 9976TIP3    H251344   3.250   4.700  12.954 -0.6438 -0.0811 -0.3846
 9977TIP3   OH251345   4.073   2.887   3.380 -0.3925 -0.4475 -0.1719
 9977TIP3    H151346   3.995   2.926   3.419  0.9985  1.1593  1.2037
 9977TIP3    H251347   4.118   2.845   3.453  0.9928  0.3832 -0.5026
 9978TIP3   OH251348   1.497   0.449  12.375  0.3012  0.6502 -0.8096
 9978TIP3    H151349   1.487   0.391  12.300  0.2254 -0.6194  0.1460
 9978TIP3    H251350   1.545   0.397  12.440  0.9785  1.9409 -0.2125
 9979TIP3   OH251351   4.194   1.858   4.087  0.2853  0.0068  0.4382
 9979TIP3    H151352   4.157   1.946   4.091 -2.7695 -1.1590  0.1265
 9979TIP3    H251353   4.230   1.852   3.998  0.1142  0.7699  0.3072
 9980TIP3   OH251354   4.355   4.497   3.526  0.1880  0.4016 -0.1364
 9980TIP3    H151355   4.318   4.465   3.443  0.2282 -0.9736  0.3650
 9980TIP3    H251356   4.335   4.591   3.525  1.0104  0.6115 -2.1302
 9981TIP3   OH251357   0.012   2.653  14.790  0.4281  0.2550  0.2358
 9981TIP3    H151358   0.065   2.582  14.825  3.3274  1.8877 -0.4721
 9981TIP3    H251359   0.074   2.709  14.743 -2.0850  1.9850 -1.3135
 9982TIP3   OH251360   5.552   5.839  16.787  0.1521  0.0803 -0.3737
 9982TIP3    H151361   5.467   5.821  16.746  0.3916 -0.0114 -0.8411
 9982TIP3    H251362   5.574   5.757  16.832 -0.4706  0.4335  0.5981
 9983TIP3   OH251363   0.132   1.155  15.991 -0.4299 -0.1158 -0.5303
 9983TIP3    H151364   0.083   1.164  15.909  0.6603 -0.3358 -1.2309
 9983TIP3    H251365   0.156   1.062  15.994  0.5528  0.1290 -0.5678
 9984TIP3   OH251366   1.453   5.223  12.330 -0.2435  0.2920 -0.0250
 9984TIP3    H151367   1.446   5.226  12.425 -0.4479  2.0352 -0.0601
 9984TIP3    H251368   1.500   5.304  12.307  0.2262 -0.3299 -1.3726
 9985TIP3   OH251369   3.351   6.170  17.038  0.0722 -0.1981 -0.4422
 9985TIP3    H151370   3.276   6.123  17.001  0.4939 -0.4660 -0.9653
 9985TIP3    H251371   3.424   6.150  16.979  0.0793  1.7972 -1.1810
 9986TIP3   OH251372   5.755   3.948  11.467  0.4498 -0.5164 -0.3030
 9986TIP3    H151373   5.712   3.873  11.508  1.7489 -2.1318 -1.7443
 9986TIP3    H251374   5.826   3.970  11.527 -1.0567  0.8362  1.0597
 9987TIP3   OH251375   3.565   3.938   4.568  0.1150  0.1790 -0.2284
 9987TIP3    H151376   3.497   3.919   4.633  1.9508  0.1915  1.7943
 9987TIP3    H251377   3.584   3.853   4.528  0.4820 -0.2511  0.8300
 9988TIP3   OH251378   2.219   3.158  14.860  0.4875 -0.4333 -0.2068
 9988TIP3    H151379   2.153   3.227  14.861 -0.2460 -1.1168  0.2849
 9988TIP3    H251380   2.168   3.077  14.857  1.3543 -0.9456 -2.2129
 9989TIP3   OH251381   3.223   2.738   5.837 -0.0260 -0.2479  0.6007
 9989TIP3    H151382   3.286   2.807   5.817 -0.5935  0.4472  1.1375
 9989TIP3    H251383   3.275   2.670   5.880  0.9098 -1.0946 -1.7371
 9990TIP3   OH251384   5.479   0.136  12.711  0.3582 -0.0793 -0.2089
 9990TIP3    H151385   5.421   0.207  12.685 -1.9242 -1.9261 -0.5008
 9990TIP3    H251386   5.531   0.117  12.633  1.6049  1.7692  0.1302
 9991TIP3   OH251387   4.535   4.781  13.891 -0.2478  0.6109  0.1819
 9991TIP3    H151388   4.609   4.816  13.941 -0.1618  1.4176 -0.4899
 9991TIP3    H251389   4.573   4.755  13.808 -0.8550  1.8591 -0.5128
 9992TIP3   OH251390   2.799   1.476   2.954  0.0674  0.0929  0.5838
 9992TIP3    H151391   2.711   1.491   2.919 -0.5784 -1.0407  1.6420
 9992TIP3    H251392   2.836   1.407   2.898 -0.2328 -0.3597  0.9338
 9993TIP3   OH251393   1.520   1.932  13.049 -0.5777 -0.0304 -0.6652
 9993TIP3    H151394   1.489   1.946  13.139  0.4732 -3.9157  0.5364
 9993TIP3    H251395   1.458   1.870  13.012  2.0129 -3.0761 -0.3931
 9994TIP3   OH251396   3.855   2.465   5.836 -0.0488  0.3118 -0.1555
 9994TIP3    H151397   3.909   2.483   5.912  0.8473 -1.9174 -0.1716
 9994TIP3    H251398   3.905   2.501   5.762  0.2030  0.4636  0.0876
 9995TIP3   OH251399   2.338   6.364  14.564 -0.5190 -0.0324  0.7262
 9995TIP3    H151400   2.257   6.354  14.614 -1.2085 -0.1950 -0.3735
 9995TIP3    H251401   2.315   6.423  14.492 -0.2637 -1.7026 -0.8083
 9996TIP3   OH251402   0.442   4.793   2.209  0.5807 -0.6646 -0.2939
 9996TIP3    H151403   0.422   4.780   2.116  0.2194 -2.3880 -0.0005
 9996TIP3    H251404   0.438   4.705   2.247 -0.9544  0.1993  1.6921
 9997TIP3   OH251405   2.041   5.738   4.052 -0.2132 -0.0718  0.0632
 9997TIP3    H151406   1.966   5.761   3.997 -0.2931  1.7130  0.8519
 9997TIP3    H251407   2.095   5.817   4.054 -0.4985  0.1522  2.9635
 9998TIP3   OH251408   3.582   3.413   5.443 -0.0033  0.3475 -0.0289
 9998TIP3    H151409   3.555   3.486   5.498 -1.4783  0.5510 -0.9475
 9998TIP3    H251410   3.563   3.335   5.496  0.8518  0.5879  0.6531
 9999TIP3   OH251411   5.491   1.403   1.714  0.0241  0.2195 -0.0603
 9999TIP3    H151412   5.538   1.461   1.654 -0.7063  0.2164 -0.6572
 9999TIP3    H251413   5.443   1.344   1.657 -2.9187  1.9665  0.3856
10000TIP3   OH251414   1.169   0.159   5.108  0.3425  0.1063  0.4381
10000TIP3    H151415   1.174   0.155   5.013  3.1482  2.2543  0.3575
10000TIP3    H251416   1.142   0.071   5.135  1.2544 -1.1001 -2.2767
10001TIP3   OH251417   6.395   1.343  12.665  0.5327 -0.2016  0.7886
10001TIP3    H151418   6.377   1.373  12.575 -0.4681 -1.2427  0.6172
10001TIP3    H251419   6.480   1.380  12.686  0.5335  0.5155 -0.3971
10002TIP3   OH251420   4.604   4.016  15.666 -0.7839 -0.6617 -0.1189
10002TIP3    H151421   4.591   3.921  15.661 -0.3047 -0.6756 -1.5338
10002TIP3    H251422   4.591   4.047  15.576 -1.7537  0.7429  0.4761
10003TIP3   OH251423   6.211   4.338   3.478  0.1281 -0.1478 -0.0002
10003TIP3    H151424   6.117   4.326   3.474  0.0996 -1.1730  2.1571
10003TIP3    H251425   6.245   4.287   3.405 -0.9558  0.0506 -0.6648
10004TIP3   OH251426   4.170   6.340   4.967 -0.0176 -0.3539  0.2440
10004TIP3    H151427   4.160   6.245   4.967  2.0998 -0.6773 -2.1491
10004TIP3    H251428   4.250   6.355   5.019  0.9145 -0.1288 -1.2113
10005TIP3   OH251429   0.384   0.503  10.953 -0.4565 -0.1313  0.0616
10005TIP3    H151430   0.307   0.559  10.939 -0.6681  0.2394  2.3523
10005TIP3    H251431   0.374   0.433  10.889 -3.1692 -0.5240  0.7757
10006TIP3   OH251432   2.043   0.377  13.350 -0.3786 -0.5032  0.0975
10006TIP3    H151433   2.121   0.422  13.318  0.6450 -1.7741  0.6642
10006TIP3    H251434   2.054   0.375  13.445 -1.9435  0.7170  0.3459
10007TIP3   OH251435   2.613   4.291  10.932  0.2396 -0.0081  0.9750
10007TIP3    H151436   2.599   4.359  10.998 -1.9172 -0.0591  0.6345
10007TIP3    H251437   2.536   4.235  10.939  0.8211 -1.0346 -0.4032
10008TIP3   OH251438   1.735   1.361   6.632 -0.5424 -0.0531  0.2475
10008TIP3    H151439   1.784   1.443   6.626 -1.8714  0.7281 -0.4163
10008TIP3    H251440   1.704   1.344   6.543 -0.4550 -1.1729  0.4168
10009TIP3   OH251441   2.677   4.877  13.267  0.4417  0.6220  0.3398
10009TIP3    H151442   2.762   4.913  13.293  1.8953 -2.7606  0.8195
10009TIP3    H251443   2.694   4.836  13.182 -1.0048  0.7213 -0.0183
10010TIP3   OH251444   1.522   3.590   2.522  0.1408 -0.3427 -0.2172
10010TIP3    H151445   1.601   3.546   2.551 -0.1000 -1.3992 -1.0935
10010TIP3    H251446   1.479   3.527   2.464 -1.2596  0.2695  0.1129
10011TIP3   OH251447   3.003   5.305   0.448 -0.0429 -0.0955 -0.2023
10011TIP3    H151448   2.973   5.216   0.469 -1.4445 -0.7641 -4.1544
10011TIP3    H251449   3.098   5.299   0.446 -0.1318 -1.7716 -1.1675
10012TIP3   OH251450   6.443   4.323   2.598 -0.0252 -0.2311  0.1208
10012TIP3    H151451   6.420   4.296   2.687 -0.1564 -0.1908  0.0997
10012TIP3    H251452   6.376   4.388   2.575 -0.2371 -0.5420 -0.1608
10013TIP3   OH251453   5.316   6.163   1.250  0.0187  0.3963 -0.1029
10013TIP3    H151454   5.354   6.192   1.333  0.5284  0.0374 -0.2053
10013TIP3    H251455   5.231   6.206   1.247 -0.0902  0.2638  0.7005
10014TIP3   OH251456   3.658   6.360  13.451  0.1322 -0.8592  0.0634
10014TIP3    H151457   3.725   6.321  13.508  0.9584 -1.2206 -1.1232
10014TIP3    H251458   3.654   6.451  13.478  2.0080 -0.5170 -0.6405
10015TIP3   OH251459   2.906   0.687  13.953  0.2132 -0.5432 -0.7291
10015TIP3    H151460   3.000   0.671  13.946  0.9157  1.9722  1.2859
10015TIP3    H251461   2.877   0.630  14.025  0.2836 -0.8736 -0.9575
10016TIP3   OH251462   5.477   6.419  15.206 -0.5278 -0.3683 -0.2428
10016TIP3    H151463   5.424   6.342  15.226 -1.9655  0.5994 -0.1682
10016TIP3    H251464   5.554   6.410  15.261 -0.6140 -1.8097 -0.3298
10017TIP3   OH251465   5.748   0.707   4.191 -0.5347 -0.0419 -0.6391
10017TIP3    H151466   5.826   0.702   4.246 -0.7616  1.0024 -0.1917
10017TIP3    H251467   5.746   0.623   4.144 -0.8495 -1.3684  1.6131
10018TIP3   OH251468   4.258   1.292  15.971 -0.1527 -0.1866  0.0466
10018TIP3    H151469   4.350   1.317  15.973 -0.4621  0.9485  0.8910
10018TIP3    H251470   4.229   1.316  15.882  0.5284 -1.2412 -0.4795
10019TIP3   OH251471   5.809   4.339   1.002 -0.2841  0.0190  0.1323
10019TIP3    H151472   5.753   4.400   0.953  0.3904  0.1627 -0.4697
10019TIP3    H251473   5.821   4.381   1.087  0.4540  0.9123 -0.3895
10020TIP3   OH251474   1.445   1.249   2.953  0.7309 -0.3016 -0.1897
10020TIP3    H151475   1.395   1.249   2.872  0.3002  0.1055  0.0736
10020TIP3    H251476   1.529   1.209   2.929  0.4820 -0.4986 -0.7530
10021TIP3   OH251477   1.639   4.528   2.429  0.4198  0.7663  0.0606
10021TIP3    H151478   1.681   4.442   2.442  2.1943  1.4848 -0.5640
10021TIP3    H251479   1.662   4.552   2.339  2.5589  3.1910  1.1191
10022TIP3   OH251480   0.353   0.272   3.166 -0.9785  0.3437  0.3566
10022TIP3    H151481   0.364   0.193   3.220  0.6618  1.1029  1.2141
10022TIP3    H251482   0.301   0.331   3.221 -1.1706  0.3171  0.2050
10023TIP3   OH251483   5.064   6.549   3.474  0.3460  0.0572 -0.1672
10023TIP3    H151484   5.022   6.471   3.512 -1.6397  0.9560 -0.3841
10023TIP3    H251485   5.111   6.589   3.548  0.1343 -0.5375  0.3005
10024TIP3   OH251486   6.175   1.008  15.782  0.2700 -0.0105  0.9297
10024TIP3    H151487   6.082   1.002  15.805  0.4341 -1.0520  1.4154
10024TIP3    H251488   6.194   1.101  15.781 -0.5261  0.1800  1.9078
10025TIP3   OH251489   5.426   4.482   1.729 -0.4222  0.2719  0.6837
10025TIP3    H151490   5.360   4.457   1.664  0.6584  0.6714 -0.6269
10025TIP3    H251491   5.441   4.402   1.781 -1.4235 -0.0120  0.5474
10026TIP3   OH251492   1.618   0.866   2.147  0.4250  0.8877 -0.1700
10026TIP3    H151493   1.680   0.880   2.219  1.0562  0.8923 -0.7068
10026TIP3    H251494   1.637   0.777   2.116 -1.0439  0.1945  0.8052
10027TIP3   OH251495   3.608   5.352  11.188  0.1058  0.5120  0.5640
10027TIP3    H151496   3.593   5.275  11.134 -0.1920 -0.4272  1.9351
10027TIP3    H251497   3.531   5.407  11.173 -1.3233 -0.9640  1.9908
10028TIP3   OH251498   6.352   4.682  12.801 -0.3618 -0.0166 -0.4559
10028TIP3    H151499   6.348   4.685  12.897 -0.2215 -0.6721 -0.4290
10028TIP3    H251500   6.262   4.700  12.773 -0.1464  1.6147 -0.2498
10029TIP3   OH251501   6.045   0.102   5.961 -0.7987  0.2868  0.7432
10029TIP3    H151502   6.084   0.159   6.028  1.5773 -0.1370 -0.1763
10029TIP3    H251503   6.109   0.033   5.948 -2.8052 -1.6265  0.5105
10030TIP3   OH251504   4.150   3.851  17.098 -0.3764  0.0752 -0.4209
10030TIP3    H151505   4.076   3.897  17.057 -1.0767  0.4567  1.1822
10030TIP3    H251506   4.221   3.858  17.034 -0.8690  2.2264 -0.8240
10031TIP3   OH251507   3.090   2.730   2.960 -0.5840  0.2125 -0.2950
10031TIP3    H151508   3.003   2.745   2.997 -0.1737  0.6101  0.5429
10031TIP3    H251509   3.147   2.790   3.009 -0.0495  0.9533 -1.7591
10032TIP3   OH251510   6.722   2.835  15.582  0.5215 -0.2172 -0.6060
10032TIP3    H151511   6.645   2.811  15.531  0.4857 -1.1816 -0.1155
10032TIP3    H251512   6.694   2.911  15.634  0.2966  0.2216 -1.3480
10033TIP3   OH251513   4.286   2.439   5.087 -0.0894  0.1422  0.1004
10033TIP3    H151514   4.379   2.422   5.073  0.1687  0.3169  1.4266
10033TIP3    H251515   4.252   2.358   5.124  0.2089  0.9793  2.3868
10034TIP3   OH251516   5.044   6.400  13.247 -0.1058 -0.0880  0.1318
10034TIP3    H151517   5.118   6.352  13.210  0.9865  2.1807 -0.7926
10034TIP3    H251518   5.058   6.397  13.342  1.9373  1.3591 -0.0616
10035TIP3   OH251519   5.614   2.867   5.065  0.4127 -0.2579  0.6939
10035TIP3    H151520   5.641   2.776   5.074  0.6997 -0.2467  0.0012
10035TIP3    H251521   5.641   2.909   5.147  0.1597 -0.8214  1.0673
10036TIP3   OH251522   4.985   6.571  17.165 -0.4239 -0.4728 -0.1163
10036TIP3    H151523   5.049   6.631  17.128  0.7015 -1.7375 -0.3153
10036TIP3    H251524   4.929   6.625  17.221  0.2008  0.8231 -0.7214
10037TIP3   OH251525   0.252   5.704   4.177 -0.0489  0.7504  0.3840
10037TIP3    H151526   0.185   5.771   4.164 -0.0724  0.5106 -0.8053
10037TIP3    H251527   0.219   5.651   4.250 -0.1160  1.8980  1.2198
10038TIP3   OH251528   1.237   4.284   5.333  0.4148 -0.2161  0.1692
10038TIP3    H151529   1.264   4.193   5.322 -0.8402 -0.5829 -0.0447
10038TIP3    H251530   1.313   4.336   5.305  0.5786 -1.1873 -1.2732
10039TIP3   OH251531   0.220   4.818   2.637 -0.5504  0.0692  0.0136
10039TIP3    H151532   0.202   4.768   2.715  0.5274 -0.2514  0.0792
10039TIP3    H251533   0.157   4.890   2.638 -1.2838 -0.5844  0.5650
10040TIP3   OH251534   3.676   6.184   4.364 -0.2722 -0.0468 -0.7960
10040TIP3    H151535   3.627   6.198   4.283  1.1291  0.2409 -1.6278
10040TIP3    H251536   3.636   6.243   4.427 -0.8653  0.3204 -1.5024
10041TIP3   OH251537   1.906   5.716   3.431 -0.4788 -0.2021 -0.2193
10041TIP3    H151538   1.956   5.797   3.442 -1.1204  0.3310 -1.0745
10041TIP3    H251539   1.942   5.656   3.496  0.8766  0.3506 -0.4365
10042TIP3   OH251540   6.075   3.218   1.396  0.0681  0.3428 -0.3450
10042TIP3    H151541   6.074   3.240   1.303  0.1207 -0.8996 -0.6549
10042TIP3    H251542   6.064   3.302   1.440 -1.5536  0.7860 -1.4964
10043TIP3   OH251543   2.959   1.714   3.114  0.5771 -0.3577 -0.2129
10043TIP3    H151544   2.988   1.700   3.203  2.8044 -0.3936 -0.8949
10043TIP3    H251545   2.961   1.627   3.074 -0.4046 -0.3421 -0.3325
10044TIP3   OH251546   2.401   6.626   3.439 -0.4457 -0.0028  0.0450
10044TIP3    H151547   2.457   6.677   3.497 -0.3493 -1.0903  0.9459
10044TIP3    H251548   2.460   6.589   3.373  0.0726 -1.6792  1.3674
10045TIP3   OH251549   1.587   1.237   1.277 -0.5709  0.0408  0.5485
10045TIP3    H151550   1.630   1.187   1.208 -1.2076 -1.1046  0.9358
10045TIP3    H251551   1.649   1.306   1.300  0.2500 -0.4377 -0.1741
10046TIP3   OH251552   5.243   1.251  14.064 -0.2139  0.0751 -0.2717
10046TIP3    H151553   5.335   1.258  14.037 -0.2056  0.6090 -0.1121
10046TIP3    H251554   5.229   1.157  14.076  0.8766  0.1105  1.6801
10047TIP3   OH251555   4.884   2.289  13.665 -0.0666 -0.2083 -0.2616
10047TIP3    H151556   4.974   2.297  13.636 -0.4890  1.3723 -1.2628
10047TIP3    H251557   4.841   2.368  13.632 -1.6374 -0.5554  0.8441
10048TIP3   OH251558   5.918   1.528   4.015 -0.1036 -0.3165 -0.1571
10048TIP3    H151559   5.984   1.574   3.963  1.0686 -0.6013  1.0340
10048TIP3    H251560   5.917   1.439   3.980  0.9444 -0.6072  0.5196
10049TIP3   OH251561   3.159   0.224   3.338 -0.4100  0.2474  0.1100
10049TIP3    H151562   3.179   0.268   3.421  0.3776  0.7949 -0.3502
10049TIP3    H251563   3.096   0.282   3.295 -2.9509 -1.3479  1.4449
10050TIP3   OH251564   1.914   2.870   5.234  0.0857 -0.0619 -0.3559
10050TIP3    H151565   1.986   2.932   5.233 -0.3744  0.4880  0.2505
10050TIP3    H251566   1.881   2.870   5.144  1.5152 -1.1345 -0.9204
10051TIP3   OH251567   3.529   1.289  14.090  0.0141  0.1131 -0.4336
10051TIP3    H151568   3.437   1.298  14.064  0.1049 -0.0415 -0.8172
10051TIP3    H251569   3.526   1.268  14.183 -0.3036  1.1394 -0.2071
10052TIP3   OH251570   0.555   2.145   0.528  0.6739  0.0881  0.4802
10052TIP3    H151571   0.567   2.053   0.505  0.5636  0.4493 -1.1495
10052TIP3    H251572   0.474   2.147   0.580  0.5999 -0.7005  0.3993
10053TIP3   OH251573   0.725   2.245   5.637  0.3035  0.0196 -0.0555
10053TIP3    H151574   0.720   2.253   5.732  0.2242  0.0653 -0.0634
10053TIP3    H251575   0.666   2.172   5.617 -0.5028  0.6932 -0.1687
10054TIP3   OH251576   1.951   3.740   1.128 -0.5420  0.3194 -0.0625
10054TIP3    H151577   1.960   3.760   1.221 -0.6513  0.9275 -0.1775
10054TIP3    H251578   1.899   3.813   1.093  0.2687  0.5732 -0.7663
10055TIP3   OH251579   6.673   4.415   3.967 -0.0615 -0.1048 -0.3407
10055TIP3    H151580   6.689   4.323   3.985  1.0003 -0.1619 -1.3969
10055TIP3    H251581   6.583   4.419   3.935  0.5832 -1.1680 -2.4902
10056TIP3   OH251582   4.154   4.948  11.866 -0.0343  0.5839  0.0986
10056TIP3    H151583   4.224   4.908  11.917  0.9838 -0.2024 -1.7853
10056TIP3    H251584   4.079   4.951  11.925  0.4422 -2.2463  1.0156
10057TIP3   OH251585   1.298   5.671   3.071  0.3412 -0.0246  0.1998
10057TIP3    H151586   1.383   5.704   3.099  1.5264 -2.4239 -0.3124
10057TIP3    H251587   1.278   5.600   3.132 -1.3003  0.4960  0.3091
10058TIP3   OH251588   0.307   1.857   4.302  0.4204  0.6609  0.1282
10058TIP3    H151589   0.314   1.952   4.294 -1.6768  0.7447 -1.4302
10058TIP3    H251590   0.219   1.836   4.273  0.1359 -1.6157  2.2065
10059TIP3   OH251591   1.643   4.398   2.972  0.3755 -0.8258 -0.4178
10059TIP3    H151592   1.575   4.461   2.949 -0.3313 -1.5935 -0.4985
10059TIP3    H251593   1.604   4.344   3.041  1.5534 -0.1707  0.7958
10060TIP3   OH251594   0.862   3.866   0.605  0.1472 -0.1302  0.5672
10060TIP3    H151595   0.880   3.839   0.515 -0.7944  1.1974 -0.0435
10060TIP3    H251596   0.943   3.909   0.633  0.1288  0.2638  0.0353
10061TIP3   OH251597   6.684   3.139  16.841 -0.8129 -0.1414 -0.5105
10061TIP3    H151598   6.757   3.151  16.901 -0.6821  0.8006 -0.8254
10061TIP3    H251599   6.719   3.086  16.770 -0.8352 -0.8586  0.0093
10062TIP3   OH251600   4.386   4.041   4.659 -0.3182  0.0522  0.3201
10062TIP3    H151601   4.398   4.131   4.628 -0.7404  0.0563  0.1679
10062TIP3    H251602   4.386   4.048   4.754 -0.0850  0.1782  0.3112
10063TIP3   OH251603   2.384   1.716   4.071 -0.0583  0.4280  0.6567
10063TIP3    H151604   2.300   1.761   4.073  0.2263  0.9596  1.8778
10063TIP3    H251605   2.408   1.714   3.978 -1.1455  0.7680  0.3534
10064TIP3   OH251606   0.532   1.901  15.484  0.0736  0.4293  0.0392
10064TIP3    H151607   0.611   1.940  15.523  0.3257  2.3706 -2.1626
10064TIP3    H251608   0.563   1.823  15.439  0.4271  0.2660  0.5540
10065TIP3   OH251609   5.879   5.810  12.291 -0.2707 -0.0731  0.7140
10065TIP3    H151610   5.811   5.756  12.331 -0.4499  0.0902  0.6314
10065TIP3    H251611   5.911   5.865  12.362  1.0577 -1.4130  1.2032
10066TIP3   OH251612   0.304   3.243  14.070 -0.7394  0.3402 -0.5849
10066TIP3    H151613   0.251   3.267  14.147  0.6887  0.1974  0.4832
10066TIP3    H251614   0.268   3.159  14.041 -1.3103  0.4054 -0.0821
10067TIP3   OH251615   0.198   1.557   3.203 -0.1008 -0.3894 -0.1756
10067TIP3    H151616   0.229   1.508   3.279  0.0328 -0.5310 -0.3196
10067TIP3    H251617   0.276   1.568   3.148 -0.5944 -2.1814 -1.3361
10068TIP3   OH251618   4.963   6.605  14.247 -0.4456 -0.3757  0.3958
10068TIP3    H151619   5.022   6.660  14.300 -0.7581 -1.2567  1.7204
10068TIP3    H251620   4.981   6.516  14.277 -2.6425 -0.6471  1.0929
10069TIP3   OH251621   6.167   1.133  13.203  0.1187  0.0294  0.1112
10069TIP3    H151622   6.216   1.097  13.130  1.4479 -0.2079  1.0885
10069TIP3    H251623   6.232   1.179  13.256 -1.1082  1.7417  0.2326
10070TIP3   OH251624   0.021   0.208   2.784  0.3142  0.1000  0.0240
10070TIP3    H151625   0.112   0.222   2.812  0.0079  1.9002  0.2335
10070TIP3    H251626  -0.012   0.296   2.766 -1.4302 -0.5198  0.0660
10071TIP3   OH251627   3.122   0.969  16.205 -0.1694  0.0433 -0.2020
10071TIP3    H151628   3.177   0.930  16.137  0.0278  1.0246 -0.6340
10071TIP3    H251629   3.033   0.967  16.169 -0.3410 -1.0313  0.2607
10072TIP3   OH251630   1.221   0.972  16.876  0.3490  0.3071  0.7512
10072TIP3    H151631   1.274   0.895  16.853  1.6348  1.0943  0.9603
10072TIP3    H251632   1.164   0.984  16.800  1.5261  0.3163 -0.1729
10073TIP3   OH251633   1.730   6.759  16.635  0.4847 -0.3212  0.6613
10073TIP3    H151634   1.810   6.796  16.671  0.4194  0.3359  0.1545
10073TIP3    H251635   1.682   6.835  16.601 -0.0277 -0.7852  0.3334
10074TIP3   OH251636   1.477   0.204  15.296  0.1103  0.5454 -0.6473
10074TIP3    H151637   1.564   0.238  15.314  0.0378  0.1186  0.6424
10074TIP3    H251638   1.458   0.147  15.371 -0.6115 -0.6621 -1.7121
10075TIP3   OH251639   1.052   4.116  10.909 -0.5944 -0.0686  0.3196
10075TIP3    H151640   1.009   4.187  10.861 -0.8842  0.5920  1.5078
10075TIP3    H251641   1.017   4.036  10.869  0.3256  0.4157 -1.5688
10076TIP3   OH251642   2.732   0.252  11.439  0.6280  0.3971 -0.7550
10076TIP3    H151643   2.746   0.218  11.350 -1.6731  1.9862 -1.8295
10076TIP3    H251644   2.820   0.262  11.475  1.5471 -2.0391 -2.1414
10077TIP3   OH251645   5.624   1.420  13.871  0.0956 -0.4801  0.3109
10077TIP3    H151646   5.667   1.400  13.788  3.0226  0.3336  1.4795
10077TIP3    H251647   5.684   1.481  13.914 -0.7834 -1.6286  3.4376
10078TIP3   OH251648   0.571   2.602  14.254 -0.0829 -0.8651  0.7260
10078TIP3    H151649   0.650   2.575  14.300  0.3782  0.0705  0.5103
10078TIP3    H251650   0.586   2.694  14.232 -1.0540 -0.7917  0.3078
10079TIP3   OH251651   2.388   1.948  15.547  0.7801 -0.1897 -0.0463
10079TIP3    H151652   2.403   1.862  15.507  0.5760 -0.9070  1.3504
10079TIP3    H251653   2.379   1.929  15.640  0.4015  1.3222  0.2419
10080TIP3   OH251654   4.759   1.399   4.613 -0.1350 -0.2868  0.2673
10080TIP3    H151655   4.668   1.407   4.582 -0.3450 -0.3324  0.8601
10080TIP3    H251656   4.811   1.438   4.543 -0.5355 -1.1400 -0.5370
10081TIP3   OH251657   5.142   5.695   3.977 -0.1464 -0.0483 -0.6779
10081TIP3    H151658   5.194   5.644   3.914 -1.3148  1.3219 -2.8812
10081TIP3    H251659   5.104   5.629   4.035 -1.1127 -1.6915 -3.0221
10082TIP3   OH251660   3.030   1.562  15.959  0.0885  0.4025  0.1293
10082TIP3    H151661   3.058   1.561  15.868  0.9343 -1.0476  0.3842
10082TIP3    H251662   3.074   1.639  15.997  1.4644 -0.2076 -0.1753
10083TIP3   OH251663   1.080   0.436  17.158  0.0896 -0.4057 -0.0962
10083TIP3    H151664   1.100   0.345  17.137 -0.7907 -0.2879 -1.5926
10083TIP3    H251665   1.035   0.470  17.080 -1.9022  0.5697  1.3667
10084TIP3   OH251666   3.429   6.097   5.462 -0.2753 -0.6517 -0.4395
10084TIP3    H151667   3.405   6.052   5.381 -2.5800 -1.0358  0.3755
10084TIP3    H251668   3.411   6.033   5.531 -0.9966  0.5685  0.5455
10085TIP3   OH251669   6.710   0.407  12.420  0.3161  0.1346 -0.6503
10085TIP3    H151670   6.733   0.474  12.485  2.1499  1.4295 -2.5154
10085TIP3    H251671   6.637   0.360  12.460  0.2592  1.9345  1.6106
10086TIP3   OH251672   2.981   1.875  12.003 -0.8188 -0.4268  0.2541
10086TIP3    H151673   2.974   1.804  11.939 -2.7795  0.3264 -0.4470
10086TIP3    H251674   2.894   1.880  12.043 -0.3286  0.7167  1.2449
10087TIP3   OH251675   3.861   4.726   3.487 -0.2370  0.3238  0.2897
10087TIP3    H151676   3.867   4.792   3.556 -0.2345  0.1168  0.4909
10087TIP3    H251677   3.862   4.775   3.406 -4.5312  0.9956  0.4043
10088TIP3   OH251678   0.195   6.579  12.998 -0.2069  0.2427 -0.1203
10088TIP3    H151679   0.145   6.660  12.999 -1.0486 -0.1893 -1.9947
10088TIP3    H251680   0.256   6.589  12.924  2.1488  0.5254  1.7365
10089TIP3   OH251681   1.009   5.275   2.878 -0.3040  1.2568  0.0318
10089TIP3    H151682   0.920   5.246   2.895  0.5900 -1.3326  0.7073
10089TIP3    H251683   1.028   5.336   2.950 -0.9632  0.4538  0.9160
10090TIP3   OH251684   6.148   5.183   0.920 -0.6436 -0.0880  0.6034
10090TIP3    H151685   6.187   5.152   1.001 -1.6934  0.9306  1.5447
10090TIP3    H251686   6.068   5.228   0.948 -2.0119 -1.2895 -1.1590
10091TIP3   OH251687   6.258   5.410  13.716 -0.3235  0.3205 -0.4203
10091TIP3    H151688   6.255   5.323  13.676  1.1594 -1.0330  2.1335
10091TIP3    H251689   6.260   5.470  13.642  1.3784 -1.9360 -2.3924
10092TIP3   OH251690   3.855   5.912  16.857 -0.0705  0.0023 -0.0165
10092TIP3    H151691   3.781   5.893  16.914 -0.6586 -0.1363 -0.8088
10092TIP3    H251692   3.932   5.902  16.913 -0.7348  3.2555  1.7248
10093TIP3   OH251693   3.429   6.012  12.735 -0.3844  0.3284  0.3537
10093TIP3    H151694   3.443   5.967  12.652 -0.1025  1.2330 -0.1088
10093TIP3    H251695   3.363   5.960  12.781 -2.1721  0.9670 -1.3551
10094TIP3   OH251696   3.363   5.393  14.232 -0.5992 -0.0140 -0.3691
10094TIP3    H151697   3.380   5.298  14.235 -0.6295 -0.0169 -0.3070
10094TIP3    H251698   3.278   5.401  14.188 -1.2561 -0.0873  0.8615
10095TIP3   OH251699   3.686   0.427   4.149  0.1685  0.3758 -0.1416
10095TIP3    H151700   3.605   0.375   4.154  0.3777  0.0401 -0.2557
10095TIP3    H251701   3.753   0.372   4.190  0.5972  0.1414 -1.1270
10096TIP3   OH251702   4.784   5.622  14.737 -0.2009 -0.5746  0.3868
10096TIP3    H151703   4.854   5.688  14.733 -1.0292  0.3171  0.2229
10096TIP3    H251704   4.703   5.673  14.732 -0.8608 -1.6943 -1.3761
10097TIP3   OH251705   4.749   1.476   1.927  0.1743  0.1189 -0.1511
10097TIP3    H151706   4.672   1.527   1.900  0.0810 -0.3319 -0.7440
10097TIP3    H251707   4.821   1.538   1.921 -0.3835  1.1188  2.2691
10098TIP3   OH251708   1.465   6.637  16.280 -0.6437 -0.0951  0.4303
10098TIP3    H151709   1.533   6.574  16.257  0.5114  1.1692  0.2737
10098TIP3    H251710   1.513   6.714  16.311 -2.0047  0.8141  0.3499
10099TIP3   OH251711   1.586   5.391   2.581 -0.5969  0.2151 -0.3342
10099TIP3    H151712   1.661   5.390   2.641 -0.8024 -0.6913 -0.0684
10099TIP3    H251713   1.622   5.424   2.499  0.0397  0.0516 -0.1296
10100TIP3   OH251714   0.957   3.923  13.294 -0.5629  0.5237  0.5057
10100TIP3    H151715   0.986   3.867  13.365 -1.3682 -2.2227 -1.1711
10100TIP3    H251716   0.874   3.961  13.325 -0.9183 -0.6603  1.0455
10101TIP3   OH251717   5.848   2.809  14.313  0.0304 -0.4389 -0.3225
10101TIP3    H151718   5.804   2.879  14.266 -1.4170 -1.4759 -0.5719
10101TIP3    H251719   5.882   2.751  14.245 -1.6899 -1.7104 -0.1542
10102TIP3   OH251720   1.359   5.681   4.128 -0.2562 -0.5886  0.4503
10102TIP3    H151721   1.343   5.729   4.047  1.4115 -0.0309  0.4208
10102TIP3    H251722   1.309   5.729   4.194 -0.1939  0.0151  0.0686
10103TIP3   OH251723   2.574   0.102   1.599  0.6075  0.2944 -0.0489
10103TIP3    H151724   2.497   0.157   1.615  0.7127 -0.1522  2.4015
10103TIP3    H251725   2.560   0.025   1.654  1.9575 -0.6770 -0.9893
10104TIP3   OH251726   2.728   1.165  14.041  0.0958  0.2280  0.3626
10104TIP3    H151727   2.642   1.123  14.046  0.9153 -1.8592 -1.4522
10104TIP3    H251728   2.783   1.115  14.101  0.5625  0.1106 -0.1538
10105TIP3   OH251729   1.429   2.709  11.393  0.4020  0.1229 -0.4915
10105TIP3    H151730   1.432   2.615  11.406  1.2994  0.2493  0.2944
10105TIP3    H251731   1.349   2.724  11.341 -1.3983 -0.7748  1.8501
10106TIP3   OH251732   2.075   6.624  15.658 -0.5211 -0.3849 -0.2668
10106TIP3    H151733   2.134   6.696  15.683  1.8826 -2.3823  0.1741
10106TIP3    H251734   2.094   6.609  15.565 -0.0189 -1.2844 -0.0295
10107TIP3   OH251735   2.229   6.743   3.214  0.1754 -0.2289  0.2226
10107TIP3    H151736   2.137   6.718   3.209 -0.2565  1.3236 -0.1119
10107TIP3    H251737   2.247   6.750   3.308  0.2667 -1.5420  0.3228
10108TIP3   OH251738   3.832   1.898  15.713 -0.6935  0.0201 -0.1380
10108TIP3    H151739   3.803   1.921  15.624 -0.1466  2.5353  0.2691
10108TIP3    H251740   3.922   1.928  15.717  0.4257 -3.0230  0.3034
10109TIP3   OH251741   5.302   1.769  13.105  0.4592  0.0212  0.4667
10109TIP3    H151742   5.311   1.751  13.011  1.3969 -0.4686  0.6370
10109TIP3    H251743   5.235   1.707  13.135 -2.0287  2.1365 -0.3944
10110TIP3   OH251744   1.170   6.041  11.453 -0.1642  0.2313 -0.1852
10110TIP3    H151745   1.258   6.010  11.429  1.0307  0.4923  3.2492
10110TIP3    H251746   1.170   6.040  11.549 -2.7869  3.3962  0.0108
10111TIP3   OH251747   2.523   1.804   3.671  0.5494  0.0327  0.0174
10111TIP3    H151748   2.524   1.825   3.578  1.6897  0.9785  0.2256
10111TIP3    H251749   2.507   1.888   3.714  1.3277 -0.1766  0.7278
10112TIP3   OH251750   5.352   4.141  11.375 -0.4023  0.3115 -0.3021
10112TIP3    H151751   5.391   4.227  11.388 -0.5875  0.1231  1.8937
10112TIP3    H251752   5.350   4.102  11.462 -0.3587 -1.9214 -1.2362
10113TIP3   OH251753   1.249   0.807   0.746 -0.3828  0.4620 -0.1700
10113TIP3    H151754   1.276   0.893   0.714 -1.8590  1.3025  0.7402
10113TIP3    H251755   1.156   0.817   0.766 -0.3313 -1.0310  0.9815
10114TIP3   OH251756   2.950   4.510  13.402  0.1060  0.1474  0.2760
10114TIP3    H151757   3.037   4.516  13.363 -0.1445  2.0753 -0.0651
10114TIP3    H251758   2.966   4.488  13.494  0.8766 -0.6078 -0.0234
10115TIP3   OH251759   3.161   1.680  16.941  0.2918 -0.2089 -0.5145
10115TIP3    H151760   3.130   1.638  17.022 -0.0158  1.3426  0.2172
10115TIP3    H251761   3.256   1.671  16.945  0.3731  0.8608  0.6376
10116TIP3   OH251762   6.277   6.301   1.117 -0.0905 -0.3156  0.0788
10116TIP3    H151763   6.240   6.280   1.031 -1.9982 -0.0370  0.8010
10116TIP3    H251764   6.289   6.396   1.115  0.1291 -0.3419  0.0422
10117TIP3   OH251765   2.880   4.839  14.306  0.3234  0.4395  0.6510
10117TIP3    H151766   2.915   4.752  14.285  1.4622  0.6199  1.6702
10117TIP3    H251767   2.956   4.898  14.298  0.0332  1.0110  1.9365
10118TIP3   OH251768   4.312   4.573  14.681  0.0711  0.1242  0.0194
10118TIP3    H151769   4.298   4.589  14.775 -1.3249 -2.3560  0.3202
10118TIP3    H251770   4.388   4.514  14.677  1.3340  1.7252 -0.5984
10119TIP3   OH251771   1.982   2.695  14.153  0.0233 -0.0722  0.5480
10119TIP3    H151772   1.915   2.761  14.171  2.1626  1.5774  3.3008
10119TIP3    H251773   2.064   2.735  14.184  1.8170 -3.1346  0.1511
10120TIP3   OH251774   3.871   0.414   2.829  0.0826 -0.0873  0.2514
10120TIP3    H151775   3.951   0.408   2.881  1.7951 -0.2280 -2.2053
10120TIP3    H251776   3.827   0.330   2.842 -0.0270  0.2257  2.1135
10121TIP3   OH251777   5.941   1.934   6.213  0.2157 -0.3998  0.4644
10121TIP3    H151778   5.864   1.940   6.269  0.1298  0.3437  0.2802
10121TIP3    H251779   5.994   2.011   6.236  0.3922 -0.3292 -0.1547
10122TIP3   OH251780   2.474   3.980   2.189  0.5976  0.3593  0.0358
10122TIP3    H151781   2.410   3.945   2.251 -1.1218  2.5421 -0.3842
10122TIP3    H251782   2.423   4.001   2.111  1.7294  2.4397 -0.2231
10123TIP3   OH251783   0.859   6.691  11.813  0.2701 -0.4906  0.4800
10123TIP3    H151784   0.927   6.681  11.745 -0.7947 -0.0218 -0.7007
10123TIP3    H251785   0.868   6.613  11.867  1.2179 -0.8456 -0.1501
10124TIP3   OH251786   3.826   3.274  14.081 -0.5816 -0.0689  0.3618
10124TIP3    H151787   3.742   3.266  14.126 -0.3825  0.6225  0.8795
10124TIP3    H251788   3.883   3.212  14.127 -0.8086 -0.5532 -0.0036
10125TIP3   OH251789   0.352   0.680   0.277 -0.9276  0.2777 -0.6480
10125TIP3    H151790   0.443   0.710   0.268 -1.3391  1.6069 -0.6278
10125TIP3    H251791   0.306   0.755   0.314 -1.7336 -0.9106  0.8880
10126TIP3   OH251792   6.116   2.599  17.119 -0.0684 -0.3626  0.0666
10126TIP3    H151793   6.201   2.561  17.141  0.4075  1.0229  0.7524
10126TIP3    H251794   6.052   2.539  17.158  0.5649 -1.5900 -0.7412
10127TIP3   OH251795   5.718   1.511   6.291  0.1323  0.0557 -0.7555
10127TIP3    H151796   5.696   1.469   6.374 -0.1560  1.3714 -0.1378
10127TIP3    H251797   5.741   1.438   6.232  0.9431 -0.8560  0.6375
10128TIP3   OH251798   6.160   0.710   0.855 -0.2304  0.1378  0.6916
10128TIP3    H151799   6.134   0.771   0.787 -0.0397 -1.3897 -0.8080
10128TIP3    H251800   6.079   0.690   0.902 -0.6726  0.0015 -0.1071
10129TIP3   OH251801   3.498   1.009  14.814  0.1026  0.3261 -0.0397
10129TIP3    H151802   3.496   1.104  14.817 -0.9068  0.3114  0.0304
10129TIP3    H251803   3.553   0.984  14.889 -0.0831  0.8402  0.2718
10130TIP3   OH251804   3.879   2.578   0.373 -0.9048  0.1132  0.1546
10130TIP3    H151805   3.856   2.658   0.421  1.2270  0.7466  0.2470
10130TIP3    H251806   3.913   2.610   0.290  0.0603 -0.6831  0.2313
10131TIP3   OH251807   5.120   5.230   6.065  0.6189  0.0061  0.0247
10131TIP3    H151808   5.144   5.198   6.152 -2.2291 -3.1707 -0.1587
10131TIP3    H251809   5.098   5.322   6.079  3.2152  0.4812  1.9162
10132TIP3   OH251810   1.442   5.545   1.168 -0.5093 -0.1747  0.3748
10132TIP3    H151811   1.385   5.501   1.104 -0.7526 -0.8418  1.0336
10132TIP3    H251812   1.531   5.524   1.139 -0.5756  0.8899 -0.6733
10133TIP3   OH251813   6.656   4.021  16.658  0.5816 -0.5099  0.2752
10133TIP3    H151814   6.673   3.961  16.730  0.5495 -1.5214 -0.5361
10133TIP3    H251815   6.741   4.058  16.637  0.5256  0.1155  1.0918
10134TIP3   OH251816   2.079   2.045  11.528 -0.1221  0.0601 -0.2094
10134TIP3    H151817   2.169   2.048  11.559  0.1039 -0.4481 -0.7993
10134TIP3    H251818   2.084   2.076  11.437 -0.9720  2.9691  0.6112
10135TIP3   OH251819   5.585   1.191   0.772 -0.1750  0.2213  0.1563
10135TIP3    H151820   5.539   1.227   0.848 -1.4664 -1.6478  0.3344
10135TIP3    H251821   5.669   1.161   0.806 -1.6329 -2.7548  1.4922
10136TIP3   OH251822   5.194   1.734  15.162  0.4438 -0.2921 -0.3949
10136TIP3    H151823   5.212   1.733  15.256  1.6419  0.2245 -0.6070
10136TIP3    H251824   5.220   1.647  15.132 -2.5577 -1.5129  0.1681
10137TIP3   OH251825   0.914   5.536  16.231  0.1481  0.1327  0.4655
10137TIP3    H151826   0.864   5.477  16.288 -0.2801  1.2729  1.3045
10137TIP3    H251827   1.005   5.524  16.259  0.3136 -1.4620 -0.6264
10138TIP3   OH251828   0.331   6.072   1.415 -0.0173 -0.0515  0.1923
10138TIP3    H151829   0.309   6.158   1.451  0.5975  0.9425 -1.6684
10138TIP3    H251830   0.280   6.010   1.468 -0.0744  1.3850  1.9093
10139TIP3   OH251831   6.362   1.403   5.924 -0.0012  0.0751  0.2076
10139TIP3    H151832   6.322   1.488   5.937  0.0931  0.1354  0.1093
10139TIP3    H251833   6.367   1.365   6.011  0.7615  0.5322  0.3708
10140TIP3   OH251834   5.547   5.576   2.823 -0.1411 -0.1848 -0.6301
10140TIP3    H151835   5.500   5.524   2.888  0.9522 -1.2272 -0.6550
10140TIP3    H251836   5.512   5.665   2.834  0.0232 -0.3363  1.3650
10141TIP3   OH251837   0.793   6.023  16.635  0.2249 -0.2992 -0.2742
10141TIP3    H151838   0.792   5.929  16.614  1.6481 -0.3946  0.0098
10141TIP3    H251839   0.848   6.062  16.567  0.6371  0.1482  0.3037
10142TIP3   OH251840   5.124   3.657   6.528 -0.3303  0.0015 -0.1502
10142TIP3    H151841   5.057   3.666   6.596 -0.8433 -0.3786 -0.5967
10142TIP3    H251842   5.206   3.647   6.576 -0.6699 -0.1402  0.4099
10143TIP3   OH251843   0.129   5.281  15.641 -0.4926 -0.7578  0.2179
10143TIP3    H151844   0.068   5.211  15.667 -1.9804  0.8496  1.2362
10143TIP3    H251845   0.140   5.268  15.547 -0.5331 -2.4998  0.4132
10144TIP3   OH251846   0.836   5.190   0.366  0.3706  0.0507  0.3260
10144TIP3    H151847   0.917   5.151   0.335  1.3240  0.6413  1.9116
10144TIP3    H251848   0.784   5.205   0.288  1.2862 -1.4477 -0.6095
10145TIP3   OH251849   3.177   3.578   1.039 -0.0131 -0.3434 -0.0925
10145TIP3    H151850   3.122   3.655   1.055  0.1876 -0.5138  1.6210
10145TIP3    H251851   3.168   3.525   1.118  3.6789  0.2835  0.9697
10146TIP3   OH251852   0.368   4.662  12.264 -0.1024 -0.3323  0.2390
10146TIP3    H151853   0.307   4.724  12.224 -1.2579 -0.6383  1.4647
10146TIP3    H251854   0.419   4.628  12.190 -0.9760  0.4002 -0.7374
10147TIP3   OH251855   1.705   1.002   1.932 -0.1119  0.1973 -0.5431
10147TIP3    H151856   1.669   0.960   2.010  0.5914  1.5817  0.5700
10147TIP3    H251857   1.642   1.071   1.911  0.4759  0.8288 -0.2548
10148TIP3   OH251858   3.387   5.456   5.373  0.1803  0.0359  0.2531
10148TIP3    H151859   3.333   5.396   5.321 -0.6369  0.7883  0.2162
10148TIP3    H251860   3.441   5.501   5.309 -0.1385  0.2710  0.1463
10149TIP3   OH251861   1.939   4.870  16.197  0.1334 -0.8182  0.0802
10149TIP3    H151862   1.920   4.850  16.288 -0.2910 -0.2065  0.1256
10149TIP3    H251863   2.033   4.890  16.195  0.1784 -1.0040  0.3465
10150TIP3   OH251864   3.655   3.481  13.467  0.3951 -0.0602 -0.3117
10150TIP3    H151865   3.617   3.442  13.545  0.0670  0.6939 -0.0809
10150TIP3    H251866   3.748   3.462  13.473  0.0114 -2.6203 -1.2837
10151TIP3   OH251867   4.501   2.588   2.582 -0.0915 -0.1955  0.6699
10151TIP3    H151868   4.590   2.563   2.557 -0.5639 -0.3123 -1.0060
10151TIP3    H251869   4.505   2.600   2.677  1.5253 -0.9250  0.7206
10152TIP3   OH251870   0.379   3.397   4.791  0.4116  0.3879  0.8594
10152TIP3    H151871   0.314   3.401   4.861  0.0249 -0.7716  0.5944
10152TIP3    H251872   0.342   3.451   4.721 -0.1502 -0.0473  0.8129
10153TIP3   OH251873   0.983   4.841   0.161 -0.3279 -0.0930  0.3909
10153TIP3    H151874   1.012   4.909   0.223  0.2015 -0.5177  0.6126
10153TIP3    H251875   1.012   4.759   0.201 -0.7233 -0.4309 -0.0157
10154TIP3   OH251876   5.551   2.496  13.051  0.6310  0.2739  0.3214
10154TIP3    H151877   5.488   2.423  13.050  0.5868  0.3127  0.0393
10154TIP3    H251878   5.547   2.531  12.962  1.1619  0.1835  0.2606
10155TIP3   OH251879   2.657   4.986   5.989  0.1879  0.2798 -0.3355
10155TIP3    H151880   2.735   5.031   5.956  0.9943 -3.2385 -4.0694
10155TIP3    H251881   2.692   4.913   6.039 -0.8572  0.3045  0.4599
10156TIP3   OH251882   5.665   0.282   1.051  0.1854 -0.0986  0.4320
10156TIP3    H151883   5.612   0.218   1.098 -0.7965  1.4530  1.5270
10156TIP3    H251884   5.748   0.236   1.034  0.0247 -1.2330  2.3521
10157TIP3   OH251885   6.238   4.306   0.641  0.8282  0.0055  0.1454
10157TIP3    H151886   6.198   4.245   0.578 -1.0218  0.8067  0.4802
10157TIP3    H251887   6.175   4.312   0.712  2.0996  0.4581  1.2723
10158TIP3   OH251888   4.366   2.132   2.993 -0.0970 -0.0795  0.2685
10158TIP3    H151889   4.345   2.090   2.910  1.4337 -0.2984 -0.0442
10158TIP3    H251890   4.447   2.089   3.021  0.2748  1.1033  1.0663
10159TIP3   OH251891   1.457   2.028   2.439 -0.6694  0.0884  0.6396
10159TIP3    H151892   1.506   2.085   2.379 -2.0038  0.6771  0.0781
10159TIP3    H251893   1.514   2.019   2.515  0.1883  0.9935  0.1278
10160TIP3   OH251894   1.638   1.995  16.695 -0.7982 -0.6419  0.5385
10160TIP3    H151895   1.594   1.964  16.616 -0.5386 -1.7597  0.8120
10160TIP3    H251896   1.567   2.014  16.756 -0.9800 -0.2172  0.2021
10161TIP3   OH251897   0.271   1.825  15.365 -0.3148  0.0918  0.6042
10161TIP3    H151898   0.215   1.751  15.389  1.4485 -1.5037  0.1199
10161TIP3    H251899   0.360   1.790  15.371  0.7202  2.7341  2.0922
10162TIP3   OH251900   4.630   0.605   2.106 -0.6679 -0.2406 -0.1294
10162TIP3    H151901   4.610   0.671   2.040 -1.4018  0.0926  0.4141
10162TIP3    H251902   4.581   0.632   2.183 -0.1850 -0.8752  0.4161
10163TIP3   OH251903   5.095   4.260   4.121  0.2356 -0.0745 -0.8863
10163TIP3    H151904   5.062   4.349   4.112 -0.1664 -0.2955 -1.6957
10163TIP3    H251905   5.017   4.206   4.129  0.4926 -0.2842  0.4428
10164TIP3   OH251906   5.433   1.716   2.400 -0.6185 -0.0544  0.0370
10164TIP3    H151907   5.525   1.731   2.420 -0.4729 -0.1252 -0.5470
10164TIP3    H251908   5.416   1.627   2.433 -0.2211 -0.4066 -0.6707
10165TIP3   OH251909   5.559   6.122  16.500 -0.4382  0.7903 -0.2395
10165TIP3    H151910   5.641   6.145  16.543  0.3510 -0.0456 -1.2159
10165TIP3    H251911   5.491   6.136  16.566  0.5760  0.7709  0.8302
10166TIP3   OH251912   2.870   1.458   1.437  0.1220 -0.2853  0.3325
10166TIP3    H151913   2.862   1.380   1.492  0.6803  0.1451  1.0349
10166TIP3    H251914   2.809   1.442   1.365 -1.2244 -0.5189  1.4711
10167TIP3   OH251915   3.879   3.771  14.070  0.5175 -0.1359 -0.1395
10167TIP3    H151916   3.914   3.709  14.006  3.1742  1.1046 -0.0254
10167TIP3    H251917   3.901   3.731  14.155 -0.1163 -0.2626 -0.0348
10168TIP3   OH251918   3.004   1.652  12.347 -0.3175 -0.3222  0.0823
10168TIP3    H151919   2.976   1.744  12.348  0.5889 -0.0390  1.2368
10168TIP3    H251920   3.097   1.655  12.326 -0.1640 -0.9369  0.6536
10169TIP3   OH251921   6.135   1.534  11.749  0.1589 -0.7206  0.1885
10169TIP3    H151922   6.055   1.541  11.801 -0.8171 -0.7131 -1.2269
10169TIP3    H251923   6.145   1.440  11.733  0.8916 -0.7908  1.0176
10170TIP3   OH251924   2.377   0.811  15.168 -0.3885  0.6481  0.1010
10170TIP3    H151925   2.433   0.819  15.091 -0.7491  0.0792 -0.2254
10170TIP3    H251926   2.349   0.901  15.186 -0.8075  0.7102 -0.8073
10171TIP3   OH251927   4.856   5.171   6.067  0.1974 -0.7874  0.3021
10171TIP3    H151928   4.818   5.253   6.035  0.1435 -1.5124 -1.6660
10171TIP3    H251929   4.951   5.188   6.069  0.0486  0.1977  2.7404
10172TIP3   OH251930   1.468   6.336  16.035 -0.1324 -0.2128  0.1241
10172TIP3    H151931   1.414   6.400  15.990 -0.8844  0.0313  1.3021
10172TIP3    H251932   1.551   6.380  16.051 -0.4973  0.3272  0.5523
10173TIP3   OH251933   5.415   3.650   3.941  0.4053  0.2288 -0.0720
10173TIP3    H151934   5.364   3.723   3.976 -0.6235 -0.1138 -0.8130
10173TIP3    H251935   5.497   3.689   3.913  0.2853  0.9147  0.4982
10174TIP3   OH251936   4.595   0.946   3.264 -0.3122  0.2922  0.1895
10174TIP3    H151937   4.606   0.967   3.357 -2.4762  0.9654  0.3615
10174TIP3    H251938   4.563   0.856   3.264 -0.6444  0.4090  0.1317
10175TIP3   OH251939   6.755   1.205   4.365  0.4339  0.1976  0.1600
10175TIP3    H151940   6.663   1.225   4.351 -0.3421 -1.4133  2.3745
10175TIP3    H251941   6.793   1.286   4.399 -0.5368  0.4538  0.6562
10176TIP3   OH251942   5.640   5.052   5.661 -0.0793  0.2222  0.5815
10176TIP3    H151943   5.603   5.098   5.586 -1.9492 -0.6404  0.9145
10176TIP3    H251944   5.665   5.121   5.722 -0.8591  0.8553  0.1895
10177TIP3   OH251945   3.394   1.084  10.877  0.1773 -0.3114  0.0158
10177TIP3    H151946   3.417   1.129  10.958  0.1552 -0.6279  0.2030
10177TIP3    H251947   3.389   1.153  10.811 -1.4135  0.1782  0.6151
10178TIP3   OH251948   0.951   2.293  12.474  0.3278 -0.2149 -0.1607
10178TIP3    H151949   0.864   2.331  12.487 -0.3694 -1.5251 -0.8963
10178TIP3    H251950   0.990   2.346  12.405 -0.9198 -1.2291 -1.6944
10179TIP3   OH251951   2.189   4.457   5.570  0.0718 -0.0166  0.2167
10179TIP3    H151952   2.138   4.403   5.631 -0.1204  1.8879  1.8403
10179TIP3    H251953   2.258   4.398   5.538 -0.4595 -1.3808  1.4526
10180TIP3   OH251954   6.520   0.480  14.980  0.3017 -0.0240 -0.0585
10180TIP3    H151955   6.494   0.549  15.041  0.9888 -1.2814  1.7496
10180TIP3    H251956   6.616   0.477  14.987  0.4506  0.1108 -1.5918
10181TIP3   OH251957   2.571   3.997  13.871  0.4600 -0.4989 -0.8279
10181TIP3    H151958   2.604   3.947  13.796 -0.2876 -0.5900 -1.1046
10181TIP3    H251959   2.578   4.088  13.844 -0.0473 -0.5433 -1.1090
10182TIP3   OH251960   4.265   4.901   1.355  0.2714  0.0909  0.6177
10182TIP3    H151961   4.353   4.909   1.390  0.5846  1.4509 -0.3999
10182TIP3    H251962   4.273   4.840   1.283  0.0282 -1.0838  1.5516
10183TIP3   OH251963   3.109   3.052   4.332 -0.5403 -0.6315  0.0181
10183TIP3    H151964   3.047   2.998   4.282 -0.7368 -0.8053  0.4456
10183TIP3    H251965   3.181   3.069   4.271 -1.5747  0.6260 -0.9158
10184TIP3   OH251966   1.310   4.863  13.877  0.0106 -0.0129 -0.2909
10184TIP3    H151967   1.329   4.860  13.784  0.8263 -0.8719 -0.1086
10184TIP3    H251968   1.389   4.829  13.919 -0.2908  0.4911  0.7214
10185TIP3   OH251969   6.322   2.673   4.209 -0.4814  0.1656  0.2948
10185TIP3    H151970   6.262   2.605   4.240 -0.1491 -0.9020 -1.2402
10185TIP3    H251971   6.400   2.663   4.263 -0.4013 -0.7722  0.0332
10186TIP3   OH251972   5.372   5.329   5.992  0.5609 -0.2239 -0.1266
10186TIP3    H151973   5.380   5.358   6.083 -1.4083  2.9050 -0.8069
10186TIP3    H251974   5.292   5.277   5.991  0.5777 -0.2511 -0.0781
10187TIP3   OH251975   5.247   2.216  16.265  0.5785  0.2923 -0.1634
10187TIP3    H151976   5.330   2.174  16.239  0.0596 -0.4224 -0.7236
10187TIP3    H251977   5.181   2.170  16.213 -0.2990  0.0808  1.1103
10188TIP3   OH251978   2.865   6.626   4.565 -0.1608  0.2288 -0.1739
10188TIP3    H151979   2.849   6.534   4.588  1.8648  0.0829  0.8476
10188TIP3    H251980   2.953   6.627   4.527 -0.3557  1.6910 -0.6716
10189TIP3   OH251981   4.953   5.826  16.616 -0.1143  0.2974  0.3142
10189TIP3    H151982   4.900   5.901  16.591 -1.3943 -0.5938  0.2454
10189TIP3    H251983   4.891   5.765  16.657  0.5636 -1.3614 -0.9994
10190TIP3   OH251984   5.662   2.962   4.133 -0.4348  0.1947  0.0430
10190TIP3    H151985   5.671   2.868   4.121  0.1736  0.3779 -1.0779
10190TIP3    H251986   5.691   3.000   4.050 -1.5082  1.3414  0.1621
10191TIP3   OH251987   2.413   6.526  13.761  0.9234  0.8068 -0.3758
10191TIP3    H151988   2.320   6.516  13.780  1.3883 -1.5239  1.0288
10191TIP3    H251989   2.416   6.591  13.691 -1.7830  0.6295 -0.7575
10192TIP3   OH251990   5.874   3.904   2.873  0.1875  0.0086  0.0138
10192TIP3    H151991   5.969   3.892   2.875  0.1806 -0.2056 -0.7967
10192TIP3    H251992   5.839   3.820   2.902  0.2466  0.3774  1.2196
10193TIP3   OH251993   3.041   3.522   3.522 -0.3146  0.1487 -0.0972
10193TIP3    H151994   3.120   3.542   3.572  0.3322  0.5651 -1.2476
10193TIP3    H251995   2.970   3.529   3.586  0.4071  1.3340  0.6297
10194TIP3   OH251996   0.963   2.701  16.953 -0.4352  0.5873  0.5480
10194TIP3    H151997   1.056   2.678  16.952 -0.4945  0.3292  0.8254
10194TIP3    H251998   0.953   2.755  17.032 -0.2410  1.8169 -0.2381
10195TIP3   OH251999   1.740   3.063  16.152  1.0924  0.2740  0.2082
10195TIP3    H152000   1.704   3.116  16.082 -0.2039  0.3150  0.8608
10195TIP3    H252001   1.817   3.020  16.114 -0.0279 -0.3335 -1.4835
10196TIP3   OH252002   6.313   6.538   3.931 -0.6775 -0.3568  0.2897
10196TIP3    H152003   6.256   6.606   3.895 -0.4423 -0.1313  0.3398
10196TIP3    H252004   6.271   6.456   3.906 -1.2705 -0.1940  0.7191
10197TIP3   OH252005   3.590   5.576   4.472 -0.2004  0.5853 -0.3805
10197TIP3    H152006   3.605   5.585   4.378  0.8692  2.7621 -0.0700
10197TIP3    H252007   3.496   5.561   4.480 -0.6943  2.5394 -1.7577
10198TIP3   OH252008   4.862   5.311   1.472 -0.1018 -0.3872  0.2729
10198TIP3    H152009   4.793   5.304   1.538 -0.0996 -0.2280  0.2934
10198TIP3    H252010   4.917   5.234   1.486  0.8055  0.4392  1.4985
10199TIP3   OH252011   4.006   4.913  15.082 -0.2450  0.2571  0.3337
10199TIP3    H152012   4.047   4.923  14.996  1.5022 -1.9264  0.8322
10199TIP3    H252013   3.962   4.997  15.097 -1.6924  0.3083 -3.1979
10200TIP3   OH252014   1.222   0.876   2.645  0.4400 -0.1674  0.1206
10200TIP3    H152015   1.259   0.828   2.571  1.3528  0.6692  0.0126
10200TIP3    H252016   1.249   0.826   2.722 -0.2932 -0.8967 -0.0857
10201TIP3   OH252017   3.403   4.997   2.642 -0.8744 -0.7788  0.1105
10201TIP3    H152018   3.375   4.918   2.687  0.7311 -1.5812 -0.2279
10201TIP3    H252019   3.357   4.994   2.558 -1.0062 -1.2392  0.1951
10202TIP3   OH252020   3.846   3.415  16.229  0.4192 -0.2828 -0.6336
10202TIP3    H152021   3.775   3.475  16.208  0.3673  0.6246  1.8339
10202TIP3    H252022   3.812   3.360  16.299  0.7087 -2.8452 -2.3649
10203TIP3   OH252023   6.140   5.971   3.544  0.0794  0.0285  0.1820
10203TIP3    H152024   6.107   6.060   3.532  0.6855  0.3801  1.0365
10203TIP3    H252025   6.179   5.949   3.459  0.8153  0.9682  0.2518
10204TIP3   OH252026   1.936   1.615   3.074  0.2271 -0.2119 -0.5061
10204TIP3    H152027   1.986   1.553   3.127 -1.4377 -1.2406 -0.0641
10204TIP3    H252028   1.963   1.597   2.984  1.1335 -0.2680 -0.2390
10205TIP3   OH252029   5.195   4.665   3.955  0.1360 -0.2037  0.0876
10205TIP3    H152030   5.104   4.641   3.973  0.3167 -0.9301  0.0502
10205TIP3    H252031   5.235   4.585   3.923  0.6640  0.2440 -0.3956
10206TIP3   OH252032   1.260   4.656   4.545 -0.5494 -0.1786  0.0318
10206TIP3    H152033   1.166   4.663   4.530 -0.7775 -0.4271  1.2522
10206TIP3    H252034   1.271   4.571   4.589  0.1906  0.0470  0.2957
10207TIP3   OH252035   6.256   0.828  10.914 -0.7854 -0.2508  0.3202
10207TIP3    H152036   6.171   0.803  10.877 -0.9442  2.3630 -1.3991
10207TIP3    H252037   6.320   0.789  10.855 -0.9437  0.7549 -0.5513
10208TIP3   OH252038   4.274   4.943  16.145  0.3223  0.3106 -0.4879
10208TIP3    H152039   4.202   4.907  16.094 -1.4354  1.5968  0.9533
10208TIP3    H252040   4.234   4.966  16.229  3.0571 -1.6704  1.5064
10209TIP3   OH252041   4.960   4.517   3.113 -0.5543  0.2904  0.0917
10209TIP3    H152042   4.873   4.549   3.138 -0.9887 -0.8076  0.0195
10209TIP3    H252043   4.979   4.448   3.176  0.4221  0.7341  0.3074
10210TIP3   OH252044   2.282   0.425  17.025  0.3055  0.5078 -0.2291
10210TIP3    H152045   2.313   0.487  16.960 -0.2722  0.0131 -1.0028
10210TIP3    H252046   2.352   0.360  17.031  0.3967  0.5989 -0.2969
10211TIP3   OH252047   5.637   6.259  15.885  0.1135  0.0123  0.1624
10211TIP3    H152048   5.569   6.312  15.843 -1.1158 -0.1773  1.8250
10211TIP3    H252049   5.686   6.321  15.939  0.6450 -0.0293 -0.2619
10212TIP3   OH252050   4.972   0.438  14.607  0.5670 -0.1770  0.0406
10212TIP3    H152051   4.986   0.368  14.670  1.1162 -0.4172 -0.3385
10212TIP3    H252052   4.888   0.417  14.566  1.6009 -1.6759 -1.4138
10213TIP3   OH252053   4.561   1.476  13.416  0.6490  0.0013 -0.3374
10213TIP3    H152054   4.554   1.416  13.341  0.3664  0.2969 -0.5546
10213TIP3    H252055   4.650   1.464  13.448  1.0353  0.4381 -1.2141
10214TIP3   OH252056   0.610   3.543  10.726  0.6154  0.0916 -0.1112
10214TIP3    H152057   0.531   3.578  10.685 -0.0089 -1.0369  0.0908
10214TIP3    H252058   0.663   3.620  10.746 -1.2135  1.0549  1.3871
10215TIP3   OH252059   4.355   2.003   5.069  0.2090 -0.2969 -0.3747
10215TIP3    H152060   4.337   1.918   5.029 -0.4720 -0.6518  0.6549
10215TIP3    H252061   4.416   2.046   5.008  0.8638 -1.6653 -0.7185
10216TIP3   OH252062   4.416   0.615  14.989  0.4753  0.2274  0.2589
10216TIP3    H152063   4.478   0.683  14.964  0.5999  0.1023  0.2265
10216TIP3    H252064   4.371   0.651  15.065  2.8258 -0.9390  2.3752
10217TIP3   OH252065   2.056   1.836   1.873  0.4341  0.4791 -0.2349
10217TIP3    H152066   2.110   1.800   1.803  1.3918  1.8853 -0.2553
10217TIP3    H252067   2.048   1.929   1.852 -3.0138  0.1992 -0.8925
10218TIP3   OH252068   1.999   5.795  12.833  0.5320 -0.5885 -0.0814
10218TIP3    H152069   1.941   5.740  12.780  1.4198 -0.0955 -1.6238
10218TIP3    H252070   2.084   5.751  12.828 -0.0440 -2.6426  4.1282
10219TIP3   OH252071   2.507   0.027  15.301  0.3326  0.3319  0.5506
10219TIP3    H152072   2.427  -0.013  15.335  1.0954 -0.1028  1.8869
10219TIP3    H252073   2.578  -0.030  15.331  1.1689  0.7727 -0.5121
10220TIP3   OH252074   3.532   4.169   1.538 -0.0525  0.0879 -0.0181
10220TIP3    H152075   3.619   4.144   1.505  0.1423  1.4664 -0.6150
10220TIP3    H252076   3.471   4.134   1.473  0.1520  0.4193 -0.3871
10221TIP3   OH252077   4.299   1.415  17.233  0.8005 -0.0300  0.4781
10221TIP3    H152078   4.387   1.410  17.273  1.9828  1.1307 -1.7920
10221TIP3    H252079   4.282   1.508  17.224 -0.8519 -0.2435  1.1900
10222TIP3   OH252080   5.877   0.328  11.095  0.5930 -0.2842 -0.1676
10222TIP3    H152081   5.887   0.423  11.102 -1.6152 -0.0219  0.4972
10222TIP3    H252082   5.960   0.297  11.061  1.9218  1.7155  1.0370
10223TIP3   OH252083   5.270   2.688   4.740  0.3052  0.4664 -0.2983
10223TIP3    H152084   5.300   2.744   4.812  0.3617 -0.4408  0.3896
10223TIP3    H252085   5.185   2.725   4.716 -0.4930 -0.1821  1.3393
10224TIP3   OH252086   2.137   0.741   6.792  0.7112  0.1453  0.9000
10224TIP3    H152087   2.224   0.780   6.804  0.2690  0.8826  1.9395
10224TIP3    H252088   2.090   0.802   6.736  0.8606 -0.2588  0.3286
10225TIP3   OH252089   3.145   3.891   3.691 -0.1891 -0.6313  0.0460
10225TIP3    H152090   3.056   3.860   3.709  0.0534 -1.3525  0.0497
10225TIP3    H252091   3.176   3.924   3.776 -1.0798  1.3254 -0.3382
10226TIP3   OH252092   2.832   2.238   3.475 -0.3660 -0.8135  0.0809
10226TIP3    H152093   2.921   2.267   3.458 -0.7166 -0.0213 -0.4559
10226TIP3    H252094   2.826   2.235   3.571  0.0146 -0.1591  0.1298
10227TIP3   OH252095   5.986   4.423  13.290  0.7641  0.1949 -0.2022
10227TIP3    H152096   6.018   4.333  13.299 -2.6431 -1.1157  0.4221
10227TIP3    H252097   6.035   4.459  13.216  0.9453 -2.8198 -1.6778
10228TIP3   OH252098   5.817   1.378  13.058 -0.0884 -0.5252 -0.2327
10228TIP3    H152099   5.763   1.422  13.124  0.2446 -0.7683  0.2063
10228TIP3    H252100   5.868   1.449  13.019  0.9104 -0.5897  0.9142
10229TIP3   OH252101   3.850   0.840  16.542 -0.0537 -0.9528 -0.1977
10229TIP3    H152102   3.869   0.823  16.450 -1.2071  0.8014 -0.8283
10229TIP3    H252103   3.909   0.911  16.566  0.0385 -1.2048  0.3324
10230TIP3   OH252104   5.005   4.278   2.444  0.1284 -0.0875 -0.2935
10230TIP3    H152105   5.074   4.330   2.403  0.3446  0.5481  0.8231
10230TIP3    H252106   5.034   4.268   2.535 -1.6066  0.8851  0.4182
10231TIP3   OH252107   6.558   4.970   3.552 -0.7131 -0.1645 -0.4475
10231TIP3    H152108   6.635   4.924   3.520 -1.5524 -0.3083 -2.4070
10231TIP3    H252109   6.487   4.907   3.543 -1.3157  0.4332  0.0053
10232TIP3   OH252110   1.370   6.715  15.129  0.1554  0.1587 -0.0176
10232TIP3    H152111   1.304   6.701  15.061  1.8551 -0.4325 -1.6366
10232TIP3    H252112   1.347   6.799  15.168 -0.9580  0.4652 -1.2495
10233TIP3   OH252113   6.286   5.737  17.056  0.0898  0.0133  0.4558
10233TIP3    H152114   6.340   5.812  17.081  2.5684 -1.1151 -1.0989
10233TIP3    H252115   6.346   5.678  17.011 -2.1839 -2.0467 -0.1141
10234TIP3   OH252116   1.120   0.558   3.087 -0.3205  0.0251  0.4779
10234TIP3    H152117   1.164   0.580   3.169 -0.3254  0.9035  0.2600
10234TIP3    H252118   1.045   0.618   3.084 -0.9302 -0.7342  0.3399
10235TIP3   OH252119   1.756   4.092   4.378 -0.1710 -0.8263 -0.5180
10235TIP3    H152120   1.722   4.119   4.293 -0.3790 -0.9244 -0.4669
10235TIP3    H252121   1.830   4.151   4.395 -1.3597  0.5189  0.1443
10236TIP3   OH252122   5.802   1.092   2.929 -0.1690 -0.6954  0.4286
10236TIP3    H152123   5.748   1.045   2.865  0.4801 -0.5833 -0.2262
10236TIP3    H252124   5.891   1.062   2.911  0.0859 -0.2527  0.9248
10237TIP3   OH252125   3.849   2.097   1.239  0.1332 -0.0260  0.0343
10237TIP3    H152126   3.887   2.068   1.157  1.2846 -0.2315  0.6320
10237TIP3    H252127   3.816   2.017   1.281 -1.8184  0.2388 -0.8684
10238TIP3   OH252128   2.115   6.011  15.184 -0.2214 -0.1004  0.1122
10238TIP3    H152129   2.201   6.023  15.224  0.0338 -0.3211 -0.3574
10238TIP3    H252130   2.108   5.916  15.172 -1.0162 -0.2059  1.1881
10239TIP3   OH252131   4.144   2.927   1.617  0.1710 -0.2596  0.2727
10239TIP3    H152132   4.203   2.947   1.690 -0.5850  1.3710  0.4899
10239TIP3    H252133   4.087   3.003   1.611 -0.6520 -0.9443 -1.1880
10240TIP3   OH252134   4.988   1.503  13.659  0.1449  0.0991  0.4026
10240TIP3    H152135   5.072   1.524  13.619 -0.7508  1.4430 -0.9055
10240TIP3    H252136   5.000   1.521  13.752  1.1797  0.7417  0.1603
10241TIP3   OH252137   2.810   4.846   3.425 -0.0546 -0.4765  0.7081
10241TIP3    H152138   2.785   4.789   3.353 -0.2460 -0.1930  0.5484
10241TIP3    H252139   2.868   4.911   3.386  1.2247 -1.3223  1.1365
10242TIP3   OH252140   1.647   0.289   0.555 -0.0469 -0.4315  0.7636
10242TIP3    H152141   1.697   0.216   0.518 -1.1507 -0.6233 -0.4283
10242TIP3    H252142   1.557   0.257   0.560 -0.4129  0.5713  0.9931
10243TIP3   OH252143   0.701   5.946  14.064 -0.3748  0.3540 -0.7200
10243TIP3    H152144   0.676   5.886  13.994  0.6908  0.6001 -1.3258
10243TIP3    H252145   0.792   5.968  14.046  0.0447  0.1297  0.9579
10244TIP3   OH252146   2.248   4.038   0.890 -0.3068  0.0114  0.0511
10244TIP3    H152147   2.265   3.961   0.944  1.1759  0.4634  0.2938
10244TIP3    H252148   2.173   4.080   0.931 -1.2589 -1.3816 -0.1983
10245TIP3   OH252149   5.559   1.281  13.321  0.0367  0.1838 -0.0785
10245TIP3    H152150   5.613   1.202  13.318 -1.9840 -1.3007  0.3022
10245TIP3    H252151   5.621   1.353  13.310  1.8847 -1.4638 -1.1952
10246TIP3   OH252152   6.598   4.616  15.219 -0.1076  0.6962  0.1047
10246TIP3    H152153   6.600   4.694  15.163  0.7075  0.9476  0.4751
10246TIP3    H252154   6.507   4.587  15.216 -0.0948  0.7516 -1.2876
10247TIP3   OH252155   5.251   0.449   5.709  0.3881 -0.1341 -0.9032
10247TIP3    H152156   5.231   0.494   5.627  1.2770 -0.2322 -1.1798
10247TIP3    H252157   5.342   0.422   5.701  1.1378  1.6109  0.9415
10248TIP3   OH252158   2.969   3.719   0.785  0.0622 -0.0641 -0.0244
10248TIP3    H152159   3.035   3.676   0.730 -0.6133 -2.2163  0.7514
10248TIP3    H252160   2.914   3.648   0.817 -0.8854  1.3649  1.7085
10249TIP3   OH252161   4.038   2.676  12.058  0.1261 -0.2843  0.3449
10249TIP3    H152162   3.946   2.671  12.084 -0.3168  0.3384 -1.0026
10249TIP3    H252163   4.074   2.749  12.109  0.4134 -1.7187  2.3013
10250TIP3   OH252164   2.493   3.094  11.887 -0.3812  0.2401  0.2077
10250TIP3    H152165   2.406   3.131  11.884 -1.0299 -0.8679  2.9975
10250TIP3    H252166   2.482   3.005  11.853  0.0110  0.5984 -0.9058
10251TIP3   OH252167   1.319   5.213   1.164  0.0272 -0.4985 -0.2969
10251TIP3    H152168   1.331   5.152   1.091 -0.0807 -0.2485 -0.5245
10251TIP3    H252169   1.365   5.172   1.237 -1.4262 -1.6745  0.0122
10252TIP3   OH252170   0.984   4.774  13.649  0.1848  0.6986  0.6890
10252TIP3    H152171   0.992   4.752  13.742  0.4674 -0.9234  0.3201
10252TIP3    H252172   0.985   4.689  13.605  0.0599  1.4444 -0.7996
10253TIP3   OH252173   4.470   5.123   1.227  0.5369  0.3125 -0.1790
10253TIP3    H152174   4.515   5.042   1.252  0.9892  0.8542  0.8406
10253TIP3    H252175   4.405   5.096   1.163 -0.6722 -1.2070  1.5677
10254TIP3   OH252176   6.267   6.624  14.635  0.3088 -0.5979 -0.2062
10254TIP3    H152177   6.339   6.686  14.622  0.9028 -0.7974  1.7364
10254TIP3    H252178   6.207   6.670  14.694  1.3187 -2.1920  2.2302
10255TIP3   OH252179   5.097   2.149  15.111 -0.4271 -0.5275 -0.0591
10255TIP3    H152180   5.033   2.082  15.133 -2.0493  0.3871 -1.6472
10255TIP3    H252181   5.106   2.143  15.015 -0.5317  1.3742 -0.2281
10256TIP3   OH252182   0.681   6.280   2.677 -0.1790 -0.5193 -0.3824
10256TIP3    H152183   0.621   6.224   2.628 -0.7667 -0.3094  0.0915
10256TIP3    H252184   0.672   6.252   2.768  0.0161 -0.1043 -0.2339
10257TIP3   OH252185   4.622   5.004  12.668  0.3068  0.4549  0.0378
10257TIP3    H152186   4.591   5.041  12.751  2.1674  2.6772 -0.1371
10257TIP3    H252187   4.584   5.061  12.601 -1.0843 -1.2507 -0.6986
10258TIP3   OH252188   5.460   3.937  10.661  0.4370  0.4846  0.1713
10258TIP3    H152189   5.395   3.873  10.633  2.3554 -2.0842  1.1492
10258TIP3    H252190   5.409   4.008  10.701 -1.7560 -1.2555  0.6446
10259TIP3   OH252191   2.062   0.754   1.437 -0.1045  0.5506  0.1371
10259TIP3    H152192   2.016   0.740   1.355 -2.3428 -0.9481  1.5198
10259TIP3    H252193   2.009   0.708   1.502  1.0911  2.3924  2.5692
10260TIP3   OH252194   3.067   6.530  14.470  0.2737 -0.7250  0.5003
10260TIP3    H152195   3.096   6.620  14.487 -0.7697 -0.1961 -0.3334
10260TIP3    H252196   2.983   6.523  14.516  0.1255 -1.1150  0.1751
10261TIP3   OH252197   1.885   6.626  13.235  0.5679  0.5166 -0.2017
10261TIP3    H152198   1.903   6.603  13.144  1.6820 -0.0992  0.1591
10261TIP3    H252199   1.790   6.618  13.244  0.4091  0.9052 -1.3854
10262TIP3   OH252200   5.107   2.146   2.085  0.1546 -0.0641 -0.1471
10262TIP3    H152201   5.174   2.108   2.141 -0.4088 -1.8615 -0.6284
10262TIP3    H252202   5.067   2.214   2.138  2.7179  1.5053 -0.0628
10263TIP3   OH252203   2.112   4.891  15.296  0.0449 -1.0576 -0.2412
10263TIP3    H152204   2.031   4.840  15.290  0.3773 -1.5534 -0.6199
10263TIP3    H252205   2.102   4.943  15.376 -1.4380  0.2848 -1.2223
10264TIP3   OH252206   6.259   4.814   3.155  0.3320 -0.0483 -0.2155
10264TIP3    H152207   6.353   4.834   3.151  0.7219 -1.6120  0.1839
10264TIP3    H252208   6.256   4.718   3.159 -1.3199 -0.0617 -0.9975
10265TIP3   OH252209   1.319   0.790   2.881 -0.0731  0.0689 -0.2205
10265TIP3    H152210   1.339   0.697   2.886  0.6063  0.1991 -0.4092
10265TIP3    H252211   1.386   0.832   2.934 -0.4304  0.4490 -0.0591
10266TIP3   OH252212   2.605   1.707  14.423  0.0854 -0.0714 -0.5419
10266TIP3    H152213   2.647   1.625  14.398 -0.2134 -0.4863  0.2850
10266TIP3    H252214   2.521   1.680  14.460  0.7518  0.4670  1.4577
10267TIP3   OH252215   3.108   1.750   4.800 -0.9638 -0.2850  0.4179
10267TIP3    H152216   3.061   1.813   4.855  1.0352  0.1996  1.6944
10267TIP3    H252217   3.078   1.769   4.711 -1.8704  1.1492  0.9913
10268TIP3   OH252218   2.001   0.051   2.428  0.8621  0.6572  0.4897
10268TIP3    H152219   2.092   0.023   2.437  0.4201 -1.0238  0.1485
10268TIP3    H252220   1.973   0.013   2.345 -0.0697  1.4269  0.4379
10269TIP3   OH252221   3.136   1.662  13.086  0.1276 -0.6244 -0.4098
10269TIP3    H152222   3.162   1.725  13.154  2.0462 -1.3749 -0.3674
10269TIP3    H252223   3.065   1.705  13.039 -1.6257 -0.2392  2.3294
10270TIP3   OH252224   5.350   4.229  14.278  0.0128 -0.1278  0.1735
10270TIP3    H152225   5.361   4.136  14.262 -5.0741 -1.3821  1.9091
10270TIP3    H252226   5.370   4.241  14.371  1.4508  0.7901 -0.2181
10271TIP3   OH252227   3.702   3.896   5.970 -0.1317  0.2212  0.0998
10271TIP3    H152228   3.689   3.985   5.938 -1.2123  0.2015  0.4538
10271TIP3    H252229   3.629   3.881   6.030  0.5343 -0.5931  0.7209
10272TIP3   OH252230   1.528   2.845  15.810  0.4208 -0.0652  0.0313
10272TIP3    H152231   1.472   2.902  15.863  2.2826 -0.8048  3.0575
10272TIP3    H252232   1.575   2.905  15.752 -0.9795  0.9323 -0.1104
10273TIP3   OH252233   3.161   5.768  16.766  0.4497 -0.5315 -0.3097
10273TIP3    H152234   3.183   5.858  16.739 -0.6466  0.2707  1.2967
10273TIP3    H252235   3.182   5.766  16.859 -0.9012 -1.4771 -0.0067
10274TIP3   OH252236   6.186   5.192  12.828 -0.2793 -0.5619  0.2684
10274TIP3    H152237   6.096   5.179  12.854 -0.4550 -0.2941 -0.1795
10274TIP3    H252238   6.186   5.278  12.784  0.8521  1.1460  3.3012
10275TIP3   OH252239   5.068   4.962  10.897  0.4890 -0.2640  0.1245
10275TIP3    H152240   5.048   5.053  10.921  0.5196 -0.4715  0.9822
10275TIP3    H252241   5.035   4.911  10.971  0.1765 -0.9845 -0.5003
10276TIP3   OH252242   6.335   1.340  15.725 -0.3155  0.0275 -0.7163
10276TIP3    H152243   6.344   1.419  15.673  1.3652 -0.7762 -1.7436
10276TIP3    H252244   6.241   1.322  15.727 -0.6667  1.7146 -0.9225
10277TIP3   OH252245   0.552   2.788   1.272  0.6986  0.1260 -0.2261
10277TIP3    H152246   0.468   2.831   1.253  1.5945  1.9827 -0.2257
10277TIP3    H252247   0.531   2.724   1.340 -0.3181  2.3884  1.7659
10278TIP3   OH252248   2.903   6.227   2.125  0.0990  0.0762  0.4160
10278TIP3    H152249   2.999   6.219   2.125  0.0035 -1.5045  0.3613
10278TIP3    H252250   2.873   6.143   2.089 -1.3523 -0.1586  2.0614
10279TIP3   OH252251   4.338   2.294   0.727  0.0029 -0.4537 -0.0574
10279TIP3    H152252   4.317   2.311   0.635  1.6787  2.1237 -0.0615
10279TIP3    H252253   4.280   2.352   0.776  0.2817 -0.5797  0.4298
10280TIP3   OH252254   2.506   2.134   4.233  0.0652 -0.7686  0.2749
10280TIP3    H152255   2.567   2.205   4.214 -1.0700  0.0099 -0.5969
10280TIP3    H252256   2.522   2.070   4.164 -1.0908  0.1080 -0.8422
10281TIP3   OH252257   2.676   4.685  14.369  0.1329 -0.2809 -0.3646
10281TIP3    H152258   2.630   4.705  14.451  2.6289 -2.0387  1.6323
10281TIP3    H252259   2.739   4.756  14.359 -0.7282  0.3803 -1.2873
10282TIP3   OH252260   5.797   1.481   1.356 -0.4206 -0.7675 -0.7689
10282TIP3    H152261   5.735   1.554   1.347  1.6182  1.0351 -1.2055
10282TIP3    H252262   5.746   1.403   1.334 -2.8632  0.4280  0.3211
10283TIP3   OH252263   6.149   2.435  14.462  0.3836 -0.3037 -0.2218
10283TIP3    H152264   6.097   2.362  14.429  0.1118 -0.5613  0.7455
10283TIP3    H252265   6.184   2.404  14.546 -0.0992  0.8213  0.4240
10284TIP3   OH252266   2.177   3.711  12.908 -0.0690 -0.1897  0.2822
10284TIP3    H152267   2.131   3.751  12.834  1.1710  0.3276 -0.2354
10284TIP3    H252268   2.128   3.630  12.925 -1.0005  0.1976 -0.4155
10285TIP3   OH252269   6.480   4.220  11.190 -0.3798  0.2978 -0.0539
10285TIP3    H152270   6.545   4.152  11.202 -1.0969 -0.5602 -0.7959
10285TIP3    H252271   6.527   4.291  11.145  0.2085 -0.0027  0.0804
10286TIP3   OH252272   0.142   6.743   0.506 -0.2579 -0.1329  0.3616
10286TIP3    H152273   0.050   6.734   0.529 -0.5005 -0.3707 -0.6857
10286TIP3    H252274   0.179   6.656   0.520 -0.6558 -0.5722 -1.2056
10287TIP3   OH252275   5.481   5.482  14.349 -0.1816  0.8412 -0.7213
10287TIP3    H152276   5.555   5.493  14.409 -0.0918  0.1404 -0.7006
10287TIP3    H252277   5.443   5.398  14.373 -0.1679  0.5637 -1.6272
10288TIP3   OH252278   0.554   2.807   5.088  0.0972 -0.0610 -0.5356
10288TIP3    H152279   0.569   2.794   5.182 -1.2313 -0.4934 -0.3553
10288TIP3    H252280   0.591   2.729   5.047 -1.2500 -0.9507 -0.1392
10289TIP3   OH252281   4.186   2.656  15.586 -0.4302  0.2655  0.7501
10289TIP3    H152282   4.260   2.606  15.550 -0.5123  1.9792 -2.0797
10289TIP3    H252283   4.191   2.640  15.681  1.3320 -2.5867  0.3152
10290TIP3   OH252284   1.745   2.835  15.253  0.2557  0.0732 -0.2477
10290TIP3    H152285   1.734   2.748  15.215 -0.4634  0.0610 -0.0248
10290TIP3    H252286   1.656   2.870  15.260  0.4753  0.5470  0.3161
10291TIP3   OH252287   1.244   6.584   4.052 -0.6441  0.9811 -0.2427
10291TIP3    H152288   1.159   6.598   4.094 -0.9002 -2.2224  0.5360
10291TIP3    H252289   1.223   6.539   3.970  0.2678 -0.7657  0.4250
10292TIP3   OH252290   3.204   0.744  12.066  0.2678  0.7976  0.5900
10292TIP3    H152291   3.231   0.693  12.143  0.5091 -1.1862 -0.7292
10292TIP3    H252292   3.285   0.784  12.034  0.2783  1.0952  0.9831
10293TIP3   OH252293   3.924   5.623  15.771 -0.0149 -0.3959 -0.0394
10293TIP3    H152294   3.844   5.574  15.754  0.0327 -1.2033  1.9059
10293TIP3    H252295   3.964   5.580  15.846  1.1672  1.2873  0.3520
10294TIP3   OH252296   0.323   0.169   5.105 -0.4636 -0.6868 -0.3455
10294TIP3    H152297   0.396   0.231   5.107 -1.1914  0.1918 -0.1087
10294TIP3    H252298   0.364   0.083   5.110  0.4908 -0.1767  1.7026
10295TIP3   OH252299   1.126   0.200   2.665 -0.1127  0.0443 -0.0856
10295TIP3    H152300   1.111   0.270   2.729  1.3340 -1.1732  1.7014
10295TIP3    H252301   1.039   0.172   2.639 -0.7246  1.2512  0.5929
10296TIP3   OH252302   3.414   5.742   2.024 -0.2976 -0.4556 -0.0021
10296TIP3    H152303   3.492   5.796   2.035 -0.5556 -0.4653  2.3161
10296TIP3    H252304   3.341   5.800   2.046 -0.7740 -1.0384 -0.0084
10297TIP3   OH252305   5.162   5.773  13.537  0.5595 -0.8691 -0.3389
10297TIP3    H152306   5.206   5.688  13.526  0.0915 -1.1606  0.0141
10297TIP3    H252307   5.227   5.828  13.580  0.9328 -0.9925 -0.7420
10298TIP3   OH252308   4.609   2.655  14.681 -0.0259 -0.4324  0.1160
10298TIP3    H152309   4.698   2.634  14.706  0.2323 -0.1197 -0.5154
10298TIP3    H252310   4.580   2.580  14.628  0.5583  0.3126 -1.3234
10299TIP3   OH252311   1.645   6.610  17.082 -0.3007 -0.0505 -0.4648
10299TIP3    H152312   1.636   6.531  17.027 -0.6243  0.4485 -1.1491
10299TIP3    H252313   1.651   6.682  17.019 -1.7030  0.6484  0.1443
10300TIP3   OH252314   1.565   2.392   2.475 -0.0892 -0.1423  0.0800
10300TIP3    H152315   1.539   2.389   2.383  1.4062 -0.0510 -0.3784
10300TIP3    H252316   1.577   2.485   2.493  1.6727 -0.2612 -0.2864
10301TIP3   OH252317   5.379   5.198  17.195 -0.0903 -0.2056 -0.4066
10301TIP3    H152318   5.318   5.185  17.122  0.1987 -0.9320 -0.5224
10301TIP3    H252319   5.327   5.179  17.273 -0.8532  2.0675 -0.2680
10302TIP3   OH252320   2.759   4.322  16.358 -0.0249  0.1578  0.6713
10302TIP3    H152321   2.846   4.350  16.330  0.0840  0.7283  1.5600
10302TIP3    H252322   2.704   4.335  16.280  0.3907  1.1969  0.5349
10303TIP3   OH252323   5.442   3.711  15.770  0.4289 -0.3318  0.1152
10303TIP3    H152324   5.398   3.644  15.717  0.0905 -0.6006  0.7215
10303TIP3    H252325   5.371   3.761  15.809  0.6799  0.1111  0.0057
10304TIP3   OH252326   2.537   5.010   4.013 -0.5641  0.0669 -0.1899
10304TIP3    H152327   2.530   4.998   4.108 -0.2435  0.5318 -0.1012
10304TIP3    H252328   2.569   5.099   4.003 -0.2779 -0.0928 -0.7258
10305TIP3   OH252329   2.246   0.975   1.476 -0.1546  0.0714  0.2722
10305TIP3    H152330   2.178   0.908   1.483  0.5000 -1.0551 -2.5997
10305TIP3    H252331   2.205   1.055   1.510 -2.3836 -0.9200  0.0750
10306TIP3   OH252332   4.419   0.587   6.547 -0.3457 -0.0387 -0.8216
10306TIP3    H152333   4.509   0.599   6.516 -0.5397  1.3825 -0.9224
10306TIP3    H252334   4.426   0.523   6.618  0.7294 -0.0192 -0.8940
10307TIP3   OH252335   1.693   1.028  14.788  0.1590 -0.3375  0.2554
10307TIP3    H152336   1.659   1.115  14.806 -1.4590 -0.2325 -2.6232
10307TIP3    H252337   1.614   0.973  14.781  0.9393 -1.3613 -0.8785
10308TIP3   OH252338   1.562   2.255   6.738  0.6702  0.0037 -0.3882
10308TIP3    H152339   1.651   2.284   6.721  0.0551  0.7344 -2.7900
10308TIP3    H252340   1.521   2.327   6.786  1.8073 -1.1274  2.5258
10309TIP3   OH252341   2.826   3.066  14.956  0.2104  0.4782 -0.1368
10309TIP3    H152342   2.832   3.004  15.028  0.0579  0.2252 -0.3404
10309TIP3    H252343   2.917   3.082  14.931  0.3571  1.7029  1.0629
10310TIP3   OH252344   0.951   6.381   4.735  0.2845  0.3459  0.0260
10310TIP3    H152345   0.880   6.444   4.723  1.7608  1.9183 -0.9751
10310TIP3    H252346   0.908   6.296   4.728 -1.8105  1.1877  1.5221
10311TIP3   OH252347   0.987   1.154   2.547 -0.4148  0.3899 -0.4761
10311TIP3    H152348   1.066   1.207   2.550  0.6724 -1.2361  1.1058
10311TIP3    H252349   0.947   1.165   2.633  0.3612 -2.0446  0.2642
10312TIP3   OH252350   5.871   1.612  11.528 -0.3379 -0.7456  0.2609
10312TIP3    H152351   5.884   1.518  11.527  0.9890 -0.6108  1.2842
10312TIP3    H252352   5.800   1.626  11.590 -0.4261 -1.0643  0.2323
10313TIP3   OH252353   0.960   6.761  13.825 -0.0139 -0.4105 -0.0575
10313TIP3    H152354   0.894   6.710  13.872 -1.5031 -0.9076 -2.5282
10313TIP3    H252355   1.022   6.788  13.893 -2.8493  0.2882  2.4582
10314TIP3   OH252356   0.036   4.192  12.353 -0.2017 -0.3808  0.1573
10314TIP3    H152357   0.098   4.124  12.379 -0.5082 -1.0660 -0.8862
10314TIP3    H252358   0.085   4.274  12.365  0.0610 -0.7281  1.7290
10315TIP3   OH252359   2.892   1.036  11.421  0.0856 -0.0860 -0.1607
10315TIP3    H152360   2.810   1.065  11.462  0.5991 -1.9435  2.5156
10315TIP3    H252361   2.873   0.947  11.392  1.0334 -0.4131  0.1972
10316TIP3   OH252362   0.836   0.653   5.898 -0.3919 -0.2717 -0.3517
10316TIP3    H152363   0.860   0.653   5.806 -0.7192  1.0749 -0.4503
10316TIP3    H252364   0.807   0.742   5.916 -0.4722 -0.5479  1.0197
10317TIP3   OH252365   4.757   5.767   0.710 -0.0265  0.0601  0.2147
10317TIP3    H152366   4.709   5.776   0.627 -2.2870  1.8640  1.6224
10317TIP3    H252367   4.786   5.675   0.710 -0.6066 -0.1980 -2.1956
10318TIP3   OH252368   6.334   1.893   5.354  0.6980 -0.2257  0.0419
10318TIP3    H152369   6.413   1.945   5.369  0.8953 -0.1193 -1.2606
10318TIP3    H252370   6.285   1.901   5.435  3.2449 -2.5287  2.0325
10319TIP3   OH252371   3.095   0.083  14.820 -0.2460 -0.7184 -0.1709
10319TIP3    H152372   3.045   0.002  14.807  0.5603 -0.8266 -3.3390
10319TIP3    H252373   3.060   0.144  14.756  0.1401  1.0135  1.1964
10320TIP3   OH252374   4.845   4.574  10.599 -0.8591  0.7679 -0.4776
10320TIP3    H152375   4.759   4.608  10.622 -1.4675 -0.3216 -1.0482
10320TIP3    H252376   4.844   4.483  10.630 -0.6413  0.1600 -2.1629
10321TIP3   OH252377   0.679   5.114  16.640  0.0067 -0.0456  0.4072
10321TIP3    H152378   0.634   5.131  16.723 -0.4606 -2.1364  0.6433
10321TIP3    H252379   0.609   5.119  16.574 -0.0849 -0.6444  0.4477
10322TIP3   OH252380   6.379   3.423   0.876  0.3704  0.1180  0.6142
10322TIP3    H152381   6.326   3.500   0.898  1.4864  0.5187  2.0332
10322TIP3    H252382   6.377   3.369   0.955  0.8774 -0.5601  0.1698
10323TIP3   OH252383   5.485   6.161   2.602  0.5771  0.3032 -0.0802
10323TIP3    H152384   5.400   6.137   2.640  0.6431 -0.5869 -0.4582
10323TIP3    H252385   5.534   6.079   2.599 -0.3888 -0.3886 -4.5531
10324TIP3   OH252386   4.781   6.536  16.665 -0.1108 -0.1365  0.5714
10324TIP3    H152387   4.877   6.536  16.669 -0.0913 -0.6795  0.1452
10324TIP3    H252388   4.760   6.546  16.572 -0.4483 -1.6786  0.4633
10325TIP3   OH252389   1.142   2.323  17.098  0.1408 -0.4230  0.6210
10325TIP3    H152390   1.205   2.308  17.027  0.1165  1.2193  0.2093
10325TIP3    H252391   1.167   2.260  17.166  0.8355 -1.3012 -0.4096
10326TIP3   OH252392   1.605   4.443   1.508  0.1069  0.5254  0.2244
10326TIP3    H152393   1.513   4.450   1.482  0.1067  1.3223  0.4074
10326TIP3    H252394   1.604   4.442   1.603  0.4158  3.4693  0.3476
10327TIP3   OH252395   5.107   2.413  14.840  0.1444  0.3486  0.3002
10327TIP3    H152396   5.151   2.330  14.858  0.5074  0.3886 -0.3781
10327TIP3    H252397   5.173   2.479  14.857  0.0974  0.4537  0.0807
10328TIP3   OH252398   1.755   5.331   3.182  0.2491 -0.1279  0.0945
10328TIP3    H152399   1.698   5.392   3.230  2.6215  1.2910  1.2914
10328TIP3    H252400   1.824   5.309   3.245  0.2456 -3.0349 -0.7810
10329TIP3   OH252401   3.057   0.038  10.960 -1.0141 -0.2773  1.0626
10329TIP3    H152402   2.971   0.069  10.987 -1.6172 -2.4174  1.8062
10329TIP3    H252403   3.077  -0.033  11.021  1.2099  0.0249  0.7883
10330TIP3   OH252404   1.851   6.674   3.754  0.0729 -0.1195 -0.0918
10330TIP3    H152405   1.924   6.695   3.813  0.3530  0.9596 -0.7941
10330TIP3    H252406   1.893   6.646   3.672 -0.2589  1.6266 -0.8980
10331TIP3   OH252407   2.324   5.089   2.070 -0.5457 -0.3377  0.0166
10331TIP3    H152408   2.406   5.123   2.106  1.2797 -1.7615 -2.4831
10331TIP3    H252409   2.321   4.998   2.100 -0.2419 -0.8080 -1.2871
10332TIP3   OH252410   3.782   0.668   5.136 -0.1473 -0.1286  0.3501
10332TIP3    H152411   3.793   0.573   5.129  0.7124 -0.0369  0.3836
10332TIP3    H252412   3.713   0.679   5.201  0.9174 -0.7078  1.6301
10333TIP3   OH252413   4.148   1.355   1.562 -0.0158 -0.9378 -0.1959
10333TIP3    H152414   4.097   1.383   1.486 -0.0921 -0.9223 -0.1396
10333TIP3    H252415   4.150   1.260   1.556  0.8800 -0.8990 -0.8019
10334TIP3   OH252416   3.604   6.277  16.971 -0.5024 -0.0805 -0.2371
10334TIP3    H152417   3.628   6.368  16.986 -0.6312 -0.0516 -0.2002
10334TIP3    H252418   3.613   6.264  16.876 -1.5664  0.2944 -0.4029
10335TIP3   OH252419   5.656   1.285   2.631  0.3367  0.6653 -0.3705
10335TIP3    H152420   5.746   1.305   2.658  0.7834 -1.0343 -0.4503
10335TIP3    H252421   5.615   1.251   2.711 -0.0624  0.8853 -0.4819
10336TIP3   OH252422   6.315   2.053  12.498  0.8797 -0.2060 -0.4301
10336TIP3    H152423   6.352   2.114  12.562  0.2328 -0.5059  0.2396
10336TIP3    H252424   6.241   2.101  12.459 -0.2801 -0.8893  0.8273
10337TIP3   OH252425   4.463   2.681   2.842 -0.1283 -0.1787  0.3597
10337TIP3    H152426   4.396   2.741   2.875 -2.4665 -1.1232 -2.3220
10337TIP3    H252427   4.469   2.613   2.909 -0.9555  0.5235  1.1903
10338TIP3   OH252428   2.880   1.397   3.670  0.4268 -0.2170 -0.3951
10338TIP3    H152429   2.835   1.443   3.599 -2.4045  0.5527  1.7043
10338TIP3    H252430   2.872   1.305   3.648 -1.1290 -0.0302 -0.7740
10339TIP3   OH252431   1.307   3.282  15.106  0.0648 -0.5288  0.2583
10339TIP3    H152432   1.356   3.210  15.065  0.1864  0.1542 -0.8289
10339TIP3    H252433   1.291   3.252  15.195 -3.1734 -3.5961 -1.1232
10340TIP3   OH252434   4.936   4.951   1.770 -0.6763 -0.1957  0.2610
10340TIP3    H152435   4.852   4.943   1.725  0.0169 -0.8728 -0.9909
10340TIP3    H252436   4.921   4.915   1.857 -1.5791 -0.7093 -0.0954
10341TIP3   OH252437   6.224   3.000  14.983 -0.4464 -0.0132  0.0589
10341TIP3    H152438   6.217   2.985  14.889  1.2784  2.1064 -0.4889
10341TIP3    H252439   6.149   2.955  15.020 -0.2285 -2.3840 -2.1297
10342TIP3   OH252440   6.439   1.632   1.608  0.5542 -0.9164 -0.1303
10342TIP3    H152441   6.439   1.550   1.657  1.8426 -0.4847  0.6365
10342TIP3    H252442   6.359   1.676   1.635 -1.8414 -3.1945 -2.8682
10343TIP3   OH252443   5.338   2.948  17.232 -0.3102 -0.2397  0.0441
10343TIP3    H152444   5.260   2.893  17.222 -0.2978 -0.5596  1.4393
10343TIP3    H252445   5.410   2.891  17.205 -0.6312  0.6309 -3.0313
10344TIP3   OH252446   4.105   0.421   1.228  0.4100 -0.6206 -0.0437
10344TIP3    H152447   4.068   0.505   1.201 -1.0363 -1.2303 -0.0385
10344TIP3    H252448   4.138   0.436   1.317  2.5948  0.6177 -0.9688
10345TIP3   OH252449   0.118   5.907   1.475  0.2038  0.0511  0.4419
10345TIP3    H152450   0.128   5.820   1.437  0.6675 -0.1610  1.0306
10345TIP3    H252451   0.036   5.940   1.439 -1.0884 -1.4745  1.8081
10346TIP3   OH252452   5.196   6.060   6.110  0.0012  0.2621  0.0558
10346TIP3    H152453   5.259   6.124   6.144  1.4929 -1.7967  1.4224
10346TIP3    H252454   5.137   6.112   6.055  2.4647  2.4399 -0.7746
10347TIP3   OH252455   5.421   5.414   1.123 -0.0305 -0.3587 -0.0394
10347TIP3    H152456   5.375   5.400   1.040 -0.2788  0.1376  0.0051
10347TIP3    H252457   5.377   5.490   1.161  1.5777  0.8614 -0.5266
10348TIP3   OH252458   2.628   2.899   3.322  0.5170  0.0038 -0.2344
10348TIP3    H152459   2.540   2.909   3.284  0.2900 -1.6934 -0.2234
10348TIP3    H252460   2.664   2.822   3.278  0.9228 -0.9750  1.7185
10349TIP3   OH252461   4.598   4.449   1.301 -0.0421 -0.8039  0.3995
10349TIP3    H152462   4.504   4.458   1.316 -0.4523  2.5528 -2.6833
10349TIP3    H252463   4.606   4.372   1.244 -1.2190 -0.1115 -0.7622
10350TIP3   OH252464   4.495   4.885  15.413 -0.0341 -0.0429  0.2942
10350TIP3    H152465   4.455   4.814  15.464  0.3084  0.7442  1.6972
10350TIP3    H252466   4.588   4.862  15.409  0.1551  0.5406  1.1442
10351TIP3   OH252467   5.817   5.207   5.821 -0.0171  0.0738 -0.0252
10351TIP3    H152468   5.799   5.122   5.861 -1.1011  0.3742  0.1739
10351TIP3    H252469   5.851   5.260   5.894  1.7366 -0.4835 -0.3919
10352TIP3   OH252470   0.729   5.920  11.876 -0.1197 -0.0300  0.2359
10352TIP3    H152471   0.654   5.872  11.840 -0.2684 -0.1025  0.6330
10352TIP3    H252472   0.756   5.868  11.952  0.5704 -0.2037 -0.1234
10353TIP3   OH252473   0.938   5.172  16.655 -0.1425 -0.8245  1.0540
10353TIP3    H152474   0.898   5.244  16.703  0.4306 -1.2479  2.1950
10353TIP3    H252475   0.865   5.122  16.620 -0.5499  0.7340 -0.4404
10354TIP3   OH252476   2.285   5.398   2.719 -0.1616 -0.4149  0.0680
10354TIP3    H152477   2.356   5.335   2.716  0.0136 -0.1959 -0.5847
10354TIP3    H252478   2.226   5.371   2.648  1.5581  2.0219 -2.5329
10355TIP3   OH252479   5.341   6.550  17.074 -0.8638  0.7875 -0.1187
10355TIP3    H152480   5.326   6.493  16.998  1.2240 -1.0043  0.6946
10355TIP3    H252481   5.284   6.625  17.059  0.1840  1.0411 -3.9986
10356TIP3   OH252482   0.555   4.629   3.132  0.3790  0.4271  0.7821
10356TIP3    H152483   0.508   4.576   3.197  0.5937  0.7009  1.1670
10356TIP3    H252484   0.582   4.707   3.180  0.0855  0.8797  0.2284
10357TIP3   OH252485   5.351   2.285   2.997  0.3310 -0.3307  0.3120
10357TIP3    H152486   5.280   2.261   3.056 -0.6241  1.3337 -0.1094
10357TIP3    H252487   5.339   2.228   2.920  0.5065 -1.2435  0.9487
10358TIP3   OH252488   3.246   4.234  12.835 -0.4175  0.6037 -0.3887
10358TIP3    H152489   3.249   4.190  12.920 -0.0403  0.6675 -0.3690
10358TIP3    H252490   3.155   4.224  12.806 -0.7849  1.3455  0.4292
10359TIP3   OH252491   4.740   4.130  11.748  0.3140 -0.5791 -0.8170
10359TIP3    H152492   4.704   4.090  11.668 -0.1690 -0.0468 -0.8699
10359TIP3    H252493   4.710   4.220  11.745  2.1160  0.0532 -1.1400
10360TIP3   OH252494   4.439   0.952   0.409  0.3232 -0.3268  0.0790
10360TIP3    H152495   4.416   0.866   0.375  0.7389 -0.2666 -0.3765
10360TIP3    H252496   4.360   1.005   0.397 -0.0451 -0.7325  0.6829
10361TIP3   OH252497   4.024   1.015  14.336  0.0200  0.4019 -0.4224
10361TIP3    H152498   4.088   0.963  14.385 -0.0514 -0.2077 -0.9769
10361TIP3    H252499   3.954   0.954  14.314 -0.6270  1.0010 -0.0732
10362TIP3   OH252500   3.703   0.539  11.605 -0.1704 -0.2672 -0.2741
10362TIP3    H152501   3.763   0.544  11.679  0.1847  0.9251 -0.6124
10362TIP3    H252502   3.749   0.586  11.535 -0.3580 -1.6350 -1.3589
10363TIP3   OH252503   3.167   0.029  13.696 -0.2300 -0.0317  0.2076
10363TIP3    H152504   3.130   0.005  13.781 -1.6083 -0.4990 -0.5048
10363TIP3    H252505   3.227   0.101  13.716 -1.1583  0.4196  1.4724
10364TIP3   OH252506   0.132   5.752  15.772 -0.1600  0.1343  0.1810
10364TIP3    H152507   0.076   5.682  15.738 -0.6108 -0.6407  2.3698
10364TIP3    H252508   0.107   5.760  15.864  1.4604  1.6448  0.5381
10365TIP3   OH252509   5.658   2.706   2.759 -0.4035  0.4518  0.2366
10365TIP3    H152510   5.752   2.720   2.772 -0.5196  1.5098  0.0232
10365TIP3    H252511   5.617   2.745   2.837 -0.7421  1.2532 -0.3364
10366TIP3   OH252512   6.199   3.751   6.117  0.3145  0.1101 -0.2397
10366TIP3    H152513   6.291   3.759   6.092  1.1442 -2.5234  1.5372
10366TIP3    H252514   6.188   3.810   6.191  0.8881 -0.3453  0.2151
10367TIP3   OH252515   1.054   3.378  13.705 -0.3583 -1.0683  0.1927
10367TIP3    H152516   0.996   3.447  13.673 -1.9060 -1.8848  1.0975
10367TIP3    H252517   1.077   3.329  13.626 -0.2965 -0.2861 -0.2815
10368TIP3   OH252518   1.163   6.365  12.708 -0.1827 -0.2961  0.1061
10368TIP3    H152519   1.216   6.342  12.631 -0.9459 -0.7651 -0.2892
10368TIP3    H252520   1.220   6.346  12.782  0.7474  0.6306 -0.3467
10369TIP3   OH252521   2.882   5.914   5.327 -0.2991  0.4699 -0.9179
10369TIP3    H152522   2.854   5.864   5.404 -0.1976  2.2048  0.2889
10369TIP3    H252523   2.954   5.862   5.291 -0.9976 -0.8862 -0.4581
10370TIP3   OH252524   4.492   5.521   0.406  0.3934 -0.4382  0.0363
10370TIP3    H152525   4.556   5.455   0.433 -0.5162 -0.7221  1.6033
10370TIP3    H252526   4.426   5.520   0.475 -0.9500  0.3434 -1.1915
10371TIP3   OH252527   2.185   2.005  13.800 -0.3789  0.2403 -0.4273
10371TIP3    H152528   2.119   2.072  13.781  1.3526  2.0666 -0.3155
10371TIP3    H252529   2.234   1.996  13.718  2.0364  2.2714  0.6577
10372TIP3   OH252530   0.374   5.707  12.617  0.5252 -0.3469 -0.0275
10372TIP3    H152531   0.336   5.666  12.539  0.6287  0.2908 -0.4223
10372TIP3    H252532   0.373   5.639  12.684  0.9140 -1.0672 -0.7437
10373TIP3   OH252533   4.512   4.892   3.460  0.3181  0.1753  0.3749
10373TIP3    H152534   4.492   4.937   3.379  0.2730  2.2594  1.4736
10373TIP3    H252535   4.437   4.834   3.475 -0.0925  0.4465 -0.5899
10374TIP3   OH252536   1.124   1.807   5.171 -0.6524  0.3486  0.2282
10374TIP3    H152537   1.159   1.744   5.108  1.4702 -0.3873  2.0000
10374TIP3    H252538   1.165   1.890   5.146  1.7148 -0.3026  1.6429
10375TIP3   OH252539   0.691   1.866   1.536 -0.4205  0.2362 -0.2501
10375TIP3    H152540   0.603   1.842   1.509 -0.2184 -0.3894 -0.3605
10375TIP3    H252541   0.726   1.788   1.580 -0.3030  0.8330  0.7518
10376TIP3   OH252542   1.709   3.833   2.567 -0.0969 -0.2970 -0.1689
10376TIP3    H152543   1.653   3.757   2.550 -0.6007 -0.0767  0.5068
10376TIP3    H252544   1.723   3.871   2.480  0.3320 -1.2721 -0.5474
10377TIP3   OH252545   5.921   4.802  16.083 -0.5437 -0.1204 -0.0703
10377TIP3    H152546   5.899   4.895  16.094 -0.8387  0.1116 -2.1636
10377TIP3    H252547   5.863   4.772  16.013  1.0213 -1.3208 -0.9051
10378TIP3   OH252548   0.608   1.183   6.023  0.6307 -0.2640  0.3634
10378TIP3    H152549   0.663   1.243   6.072  3.3352 -1.9336 -0.4333
10378TIP3    H252550   0.562   1.132   6.089  0.6437  0.6052  1.0564
10379TIP3   OH252551   1.187   1.995   4.061  0.1534 -0.5247  0.0242
10379TIP3    H152552   1.178   1.915   4.008  0.4751 -0.4533 -0.1381
10379TIP3    H252553   1.207   1.964   4.149 -1.3927 -0.6930  0.3594
10380TIP3   OH252554   5.337   1.727  11.371  0.1155 -0.3012 -0.2557
10380TIP3    H152555   5.375   1.799  11.421 -1.9024  0.3053  0.5071
10380TIP3    H252556   5.367   1.648  11.416  2.4075  0.0018 -1.1436
10381TIP3   OH252557   1.452   6.113   0.236  0.0756  0.1472 -0.0658
10381TIP3    H152558   1.443   6.171   0.161 -0.7721  0.4463  0.2466
10381TIP3    H252559   1.543   6.082   0.233  0.1380  0.4050 -1.0179
10382TIP3   OH252560   0.669   5.221   5.685  0.1646  0.1110 -0.7214
10382TIP3    H152561   0.741   5.200   5.745  1.9287  1.7112 -2.1044
10382TIP3    H252562   0.658   5.142   5.632  1.1528 -0.0752 -0.6749
10383TIP3   OH252563   1.912   4.027  16.461 -0.2223  0.5871  0.2438
10383TIP3    H152564   1.956   3.971  16.525 -1.1912 -0.8774 -0.3182
10383TIP3    H252565   1.981   4.050  16.398  0.2423  0.2434  0.6198
10384TIP3   OH252566   4.778   5.419  15.795 -0.8193  0.1100 -0.2265
10384TIP3    H152567   4.805   5.479  15.726 -0.1012 -0.8007 -0.7417
10384TIP3    H252568   4.859   5.392  15.838 -0.9501 -1.8392 -1.1174
10385TIP3   OH252569   0.460   0.130  17.148  0.2902 -0.3583 -0.1033
10385TIP3    H152570   0.392   0.180  17.104  0.1122 -0.5456 -0.0412
10385TIP3    H252571   0.542   0.170  17.119  0.1082  1.0853  1.2459
10386TIP3   OH252572   2.492   1.517   5.364 -0.4552 -0.1624 -0.0311
10386TIP3    H152573   2.480   1.520   5.269 -1.2610  1.2991  0.0879
10386TIP3    H252574   2.528   1.430   5.381  1.5133  0.2201 -1.8635
10387TIP3   OH252575   5.692   3.195  14.882 -0.1299  0.4268 -0.4309
10387TIP3    H152576   5.787   3.200  14.894 -0.0651  0.6637 -1.0551
10387TIP3    H252577   5.657   3.196  14.972  0.3766  1.9171 -0.2320
10388TIP3   OH252578   1.660   3.655  11.067  0.2446  0.6748  0.1038
10388TIP3    H152579   1.674   3.574  11.017 -2.0652 -0.3239  0.8987
10388TIP3    H252580   1.747   3.694  11.075  1.5232 -1.9183 -0.0180
10389TIP3   OH252581   4.279   3.404  13.443  0.4616  0.1237 -0.0292
10389TIP3    H152582   4.289   3.412  13.538  0.2591  1.2692 -0.0842
10389TIP3    H252583   4.331   3.327  13.420 -0.0617 -0.5966  1.0899
10390TIP3   OH252584   2.838   1.204  16.076 -0.0787 -0.1190 -0.2477
10390TIP3    H152585   2.885   1.285  16.098 -0.6850 -0.0761  0.9580
10390TIP3    H252586   2.757   1.234  16.034  0.4109 -0.1659 -1.2707
10391TIP3   OH252587   6.107   2.224   3.105 -0.0433 -0.7112  0.0002
10391TIP3    H152588   6.112   2.319   3.089  3.2832 -0.2555  2.6982
10391TIP3    H252589   6.031   2.214   3.163 -1.0979  0.0646 -1.1796
10392TIP3   OH252590   1.641   3.755  16.057  0.5680  0.6209 -0.1636
10392TIP3    H152591   1.712   3.816  16.078 -0.1874  0.4575  3.4742
10392TIP3    H252592   1.562   3.807  16.062  0.2108  0.3042 -1.8988
10393TIP3   OH252593   6.574   2.865   3.186 -0.4289 -0.4551 -0.6031
10393TIP3    H152594   6.653   2.916   3.202 -0.6094 -0.1688 -0.6233
10393TIP3    H252595   6.589   2.783   3.233  0.1111 -0.6215 -1.0508
10394TIP3   OH252596   6.570   3.844  13.791 -0.4404  0.0657  0.4787
10394TIP3    H152597   6.619   3.763  13.800 -0.4532 -0.1793 -1.2478
10394TIP3    H252598   6.614   3.890  13.719 -1.7357  0.5794 -0.0149
10395TIP3   OH252599   4.506   4.285  12.049 -0.2386 -0.0306  0.0777
10395TIP3    H152600   4.468   4.367  12.019  0.8306 -0.1654 -1.8024
10395TIP3    H252601   4.431   4.230  12.072 -0.9667  1.3731  1.1867
10396TIP3   OH252602   3.151   1.145   0.942  0.0392 -0.2411 -0.4625
10396TIP3    H152603   3.077   1.143   0.881 -1.3739  0.7604  1.1092
10396TIP3    H252604   3.210   1.077   0.911 -0.7079  0.0865 -2.7893
10397TIP3   OH252605   5.506   6.637  12.500  0.8528  0.3975 -0.2287
10397TIP3    H152606   5.455   6.677  12.429  2.0146  1.5812 -0.4361
10397TIP3    H252607   5.514   6.545  12.475  0.1647  0.5286 -0.9788
10398TIP3   OH252608   6.372   1.282  10.778  0.0242  0.5088  0.5185
10398TIP3    H152609   6.328   1.207  10.818  0.5571 -0.2881 -0.3572
10398TIP3    H252610   6.303   1.325  10.726 -0.2319  0.5052  0.8549
10399TIP3   OH252611   1.727   1.783   0.116  0.1342  0.7828  0.1784
10399TIP3    H152612   1.814   1.760   0.149  0.3405  0.2766 -0.6919
10399TIP3    H252613   1.742   1.858   0.058  0.0573  0.4189 -0.3162
10400TIP3   OH252614   5.774   0.962   4.070  0.5052 -0.0403 -0.1433
10400TIP3    H152615   5.833   0.937   3.998  2.2225  0.0550  1.1815
10400TIP3    H252616   5.770   0.885   4.126 -0.7532 -0.0774 -0.2512
10401TIP3   OH252617   4.540   2.899  13.623  0.3956 -0.1575 -0.4964
10401TIP3    H152618   4.528   2.966  13.690  2.0111 -0.8548  0.5419
10401TIP3    H252619   4.544   2.947  13.540 -2.3113  0.6632 -0.2406
10402TIP3   OH252620   1.886   5.715   6.004 -0.3763  0.0366 -0.7659
10402TIP3    H152621   1.858   5.702   6.094  1.6416 -0.5416 -0.1853
10402TIP3    H252622   1.836   5.651   5.953 -0.8922 -0.2177  0.0478
10403TIP3   OH252623   3.367   3.695   4.954  0.5589  0.1669  0.0825
10403TIP3    H152624   3.438   3.640   4.987  0.8370 -0.4181 -1.4185
10403TIP3    H252625   3.365   3.770   5.013  1.5333 -0.4528  0.9408
10404TIP3   OH252626   5.694   6.464   1.224  0.3589 -0.0576  0.5175
10404TIP3    H152627   5.770   6.427   1.178  1.1902  1.3132  0.6989
10404TIP3    H252628   5.632   6.392   1.231  0.5988 -0.5874 -1.8766
10405TIP3   OH252629   4.158   3.250  14.552  0.2270 -0.2950  0.0471
10405TIP3    H152630   4.165   3.345  14.555 -4.5752  0.2926  1.6689
10405TIP3    H252631   4.170   3.222  14.642  0.6331 -1.1202 -0.2524
10406TIP3   OH252632   5.048   4.938   5.800 -0.4992  0.3768 -0.0973
10406TIP3    H152633   5.048   4.878   5.874 -0.2924  1.2318  0.6049
10406TIP3    H252634   5.107   5.008   5.826  0.0677  0.3820 -1.3294
10407TIP3   OH252635   4.456   5.272  12.023  0.2478 -0.5518 -0.0856
10407TIP3    H152636   4.504   5.310  12.097  1.1796  0.6673 -1.2525
10407TIP3    H252637   4.376   5.236  12.062  0.6620  0.1343  1.4965
10408TIP3   OH252638   6.440   6.015  13.236 -0.1132 -0.3622 -0.4414
10408TIP3    H152639   6.390   5.933  13.234 -0.5766 -0.1983  1.7613
10408TIP3    H252640   6.518   5.996  13.184 -0.4754 -2.0248 -0.4538
10409TIP3   OH252641   4.842   2.838   1.241  0.1348  0.2111 -0.3515
10409TIP3    H152642   4.770   2.780   1.214  0.4351  0.1853 -1.0982
10409TIP3    H252643   4.800   2.924   1.251 -0.3450 -0.1496  0.9151
10410TIP3   OH252644   0.204   1.962   1.901 -0.0615 -0.0768  0.4938
10410TIP3    H152645   0.236   1.939   1.988 -0.0262 -0.8275  0.2851
10410TIP3    H252646   0.261   1.915   1.841 -0.8051 -0.4762  0.0847
10411TIP3   OH252647   0.070   0.058   0.203  0.5473 -0.4910  0.6660
10411TIP3    H152648   0.022   0.062   0.286 -0.0283 -0.0751  0.3296
10411TIP3    H252649   0.066   0.148   0.170  0.0917 -0.8088 -0.1746
10412TIP3   OH252650   4.064   5.663  15.083  0.3659 -0.0983 -0.2853
10412TIP3    H152651   3.980   5.651  15.127  0.5453 -1.3537 -0.2405
10412TIP3    H252652   4.048   5.733  15.020 -1.0369 -1.0322 -1.0272
10413TIP3   OH252653   4.236   3.951   3.463 -0.1309 -0.2606 -0.0277
10413TIP3    H152654   4.191   3.962   3.547  2.4205 -0.0196  1.4377
10413TIP3    H252655   4.297   4.025   3.459  1.6102 -1.6780 -0.8202
10414TIP3   OH252656   3.184   3.382  14.024 -0.2576 -0.2411 -0.0571
10414TIP3    H152657   3.214   3.473  14.014  1.4422 -0.8082 -0.3442
10414TIP3    H252658   3.089   3.388  14.014 -0.3921  1.7335  1.5403
10415TIP3   OH252659   3.543   2.715  14.395 -0.1692 -0.6912  0.9770
10415TIP3    H152660   3.568   2.805  14.375 -1.7010 -0.5294 -0.4717
10415TIP3    H252661   3.608   2.661  14.351 -2.3468 -0.3071 -3.2111
10416TIP3   OH252662   6.132   4.207   2.533  0.2459 -0.0039 -0.3597
10416TIP3    H152663   6.086   4.185   2.452  2.3905  1.7174 -2.1626
10416TIP3    H252664   6.203   4.143   2.538  0.2855  0.0688  0.0302
10417TIP3   OH252665   1.394   4.400   1.895 -0.2512  0.4081  0.1248
10417TIP3    H152666   1.450   4.362   1.827 -0.7761 -0.1436 -0.0072
10417TIP3    H252667   1.324   4.444   1.846 -1.9981 -2.0071  0.2521
10418TIP3   OH252668   4.600   0.617   5.767 -0.6059 -1.0898  0.2101
10418TIP3    H152669   4.556   0.562   5.832  0.9924 -2.6218  0.0539
10418TIP3    H252670   4.690   0.624   5.797 -0.4189  0.2943 -0.5454
10419TIP3   OH252671   0.007   1.851   5.368 -0.0902 -0.1705  0.0358
10419TIP3    H152672   0.099   1.853   5.396 -0.0238  3.7112  0.1231
10419TIP3    H252673   0.011   1.845   5.273  0.2067 -0.9750  0.0948
10420TIP3   OH252674   6.006   3.303   0.457 -0.5314  0.8819  0.4777
10420TIP3    H152675   5.940   3.325   0.391 -1.7709  0.6626  1.5938
10420TIP3    H252676   6.008   3.207   0.457  0.4684  0.8897 -0.1761
10421TIP3   OH252677   5.492   2.631   1.201  0.8049 -0.7350  0.2423
10421TIP3    H152678   5.553   2.568   1.163  0.8468 -1.6440  1.7296
10421TIP3    H252679   5.521   2.641   1.292 -0.1038  0.2974  0.4422
10422TIP3   OH252680   2.304   6.123  16.268 -0.1161  0.4339 -0.3960
10422TIP3    H152681   2.313   6.216  16.288  1.6330  0.3519 -0.5844
10422TIP3    H252682   2.308   6.119  16.172  1.1923  0.0846 -0.3474
10423TIP3   OH252683   5.204   1.604   0.473  0.4054 -0.0031 -0.6705
10423TIP3    H152684   5.252   1.573   0.396 -0.9603 -0.5380 -1.3352
10423TIP3    H252685   5.119   1.632   0.439  1.0226  3.2498  0.1031
10424TIP3   OH252686   3.593   0.137  16.806  0.0233  0.2583 -0.5217
10424TIP3    H152687   3.587   0.223  16.764 -1.2490 -1.7294 -4.9725
10424TIP3    H252688   3.502   0.106  16.810  0.5555 -1.3058  0.0090
10425TIP3   OH252689   6.520   2.606   1.557 -0.7950  0.0437  0.3022
10425TIP3    H152690   6.469   2.596   1.477  0.1003 -0.2850 -0.2390
10425TIP3    H252691   6.610   2.584   1.531  0.0834  2.8501  0.6583
10426TIP3   OH252692   5.765   5.995  13.741  0.3573 -0.2429 -0.2653
10426TIP3    H152693   5.827   6.066  13.726  1.6698 -0.6785  2.4647
10426TIP3    H252694   5.726   6.014  13.826 -0.9369 -1.6113 -0.5135
10427TIP3   OH252695   6.664   1.302  13.933  0.2557  0.0437 -0.4429
10427TIP3    H152696   6.674   1.388  13.892  0.2743  0.4605  0.4271
10427TIP3    H252697   6.690   1.240  13.864  3.6374  0.8400 -0.0298
10428TIP3   OH252698   4.851   5.513   0.727 -0.2301 -0.0611 -0.0412
10428TIP3    H152699   4.822   5.443   0.668  2.5353 -1.5926  0.2499
10428TIP3    H252700   4.842   5.475   0.814 -1.0022  0.9102  0.3221
10429TIP3   OH252701   5.833   4.037   2.634  0.1960  0.0180 -0.6461
10429TIP3    H152702   5.821   3.989   2.716 -0.5621  0.5514 -0.4373
10429TIP3    H252703   5.920   4.010   2.603  0.7017  0.1763  0.5769
10430TIP3   OH252704   4.073   2.918   1.903 -0.7094  0.1217  0.1513
10430TIP3    H152705   4.105   2.919   1.993 -0.9782 -0.1247  0.2499
10430TIP3    H252706   4.086   2.828   1.874  1.0676  0.5896 -0.6721
10431TIP3   OH252707   2.712   6.003   2.122  0.3857  0.5294  0.2636
10431TIP3    H152708   2.695   5.909   2.124 -1.9113  0.8899  0.5793
10431TIP3    H252709   2.661   6.036   2.048  2.1440  1.3906 -0.6169
10432TIP3   OH252710   1.288   6.675  14.343  0.0355  0.3482 -0.0750
10432TIP3    H152711   1.314   6.606  14.404 -1.6068  0.1689  0.4715
10432TIP3    H252712   1.287   6.755  14.395  3.1112  1.1232 -0.9730
10433TIP3   OH252713   2.850   1.153  15.433  0.4456 -0.5756  0.2056
10433TIP3    H152714   2.810   1.240  15.423  0.2163 -0.6607  0.3643
10433TIP3    H252715   2.780   1.099  15.470 -0.2446 -1.4985 -2.2670
10434TIP3   OH252716   3.877   2.988  11.576  0.1010  1.1447  0.0503
10434TIP3    H152717   3.842   2.929  11.643  0.8002  2.6435  1.8379
10434TIP3    H252718   3.874   2.937  11.495 -3.7338  0.2919  0.5321
10435TIP3   OH252719   3.937   1.080   5.260  0.3180 -0.1579 -0.3596
10435TIP3    H152720   3.921   0.991   5.291  0.0733 -0.3020 -0.9042
10435TIP3    H252721   4.030   1.081   5.238  0.0807 -0.6015 -1.4024
10436TIP3   OH252722   3.117   3.084  16.869  0.3758 -0.2522  0.8010
10436TIP3    H152723   3.122   3.007  16.925  0.9571  0.4894  1.8074
10436TIP3    H252724   3.033   3.125  16.890 -0.4758 -1.2128 -0.5859
10437TIP3   OH252725   3.976   0.135  14.738 -0.0569 -0.6379 -0.0991
10437TIP3    H152726   3.899   0.137  14.682 -0.7276 -1.5546  0.7583
10437TIP3    H252727   4.046   0.102  14.681  0.0067  1.2237 -1.1829
10438TIP3   OH252728   4.623   2.601  15.178 -0.4031 -0.4066 -0.3375
10438TIP3    H152729   4.701   2.601  15.123 -0.9730 -1.8235 -1.1992
10438TIP3    H252730   4.640   2.534  15.244 -0.6903 -0.3842 -0.2402
10439TIP3   OH252731   4.044   5.146   4.440  0.2608 -0.1030 -0.5260
10439TIP3    H152732   4.129   5.103   4.446  0.1137 -0.4408 -0.7604
10439TIP3    H252733   3.992   5.105   4.509  0.3166  0.1739 -0.3171
10440TIP3   OH252734   2.308   0.414  14.162  0.1759 -0.3604 -0.5201
10440TIP3    H152735   2.280   0.401  14.071  0.1464 -0.3097 -0.5181
10440TIP3    H252736   2.365   0.339  14.180  0.7640  0.0076 -0.8129
10441TIP3   OH252737   6.691   0.102  17.011 -0.8280 -0.5132 -0.4743
10441TIP3    H152738   6.731   0.016  16.998  0.9177  0.0599  0.7518
10441TIP3    H252739   6.663   0.102  17.102 -0.8479  0.2027 -0.4747
10442TIP3   OH252740   6.414   6.419  13.700 -0.4255 -0.7009 -0.4088
10442TIP3    H152741   6.428   6.337  13.747 -1.2077 -1.0622 -0.7803
10442TIP3    H252742   6.333   6.455  13.737 -0.2911 -0.2917 -0.5111
10443TIP3   OH252743   5.241   5.575  14.427 -0.1282 -0.1904 -0.3197
10443TIP3    H152744   5.334   5.553  14.420  0.2116  0.9829  0.2200
10443TIP3    H252745   5.233   5.661  14.385 -1.1813 -0.7612 -1.3401
10444TIP3   OH252746   1.120   1.930  14.749  0.0286 -0.7579  0.7190
10444TIP3    H152747   1.103   2.002  14.688  1.2281 -1.7078 -0.8206
10444TIP3    H252748   1.105   1.968  14.836  2.3431  1.9070  0.0949
10445TIP3   OH252749   6.134   0.555  12.232  0.1120 -0.5474  0.0694
10445TIP3    H152750   6.070   0.540  12.301  0.3022  0.1671  0.4063
10445TIP3    H252751   6.123   0.480  12.172 -3.2425  1.0910 -1.6263
10446TIP3   OH252752   5.829   1.610   2.635 -0.4822 -0.7977 -0.1891
10446TIP3    H152753   5.851   1.582   2.546 -0.9643  1.2541 -0.9990
10446TIP3    H252754   5.770   1.684   2.624 -0.6528 -0.5613  1.8585
10447TIP3   OH252755   4.928   0.274   4.879 -0.4629  0.1704 -0.2621
10447TIP3    H152756   4.924   0.192   4.928  3.3326 -1.2376 -1.9725
10447TIP3    H252757   4.942   0.342   4.945 -2.1426 -0.6679  1.0358
10448TIP3   OH252758   5.394   0.391   1.083  0.0601  0.1368  0.3995
10448TIP3    H152759   5.398   0.326   1.153 -0.5757 -0.6001 -0.2288
10448TIP3    H252760   5.437   0.350   1.009  0.7505  0.9216  0.3470
10449TIP3   OH252761   0.820   1.135   0.003 -0.2490 -0.1022  0.3126
10449TIP3    H152762   0.858   1.210  -0.042  0.3781 -0.3918  0.3548
10449TIP3    H252763   0.774   1.173   0.078  0.6501  0.1881  0.7270
10450TIP3   OH252764   1.315   0.089  14.136 -0.5112  0.5326 -0.4706
10450TIP3    H152765   1.374   0.060  14.066 -2.3578 -1.3233 -1.3760
10450TIP3    H252766   1.294   0.010  14.184  0.1391  1.6749  1.8138
10451TIP3   OH252767   2.627   3.449  11.379  0.6863  0.1732 -0.2514
10451TIP3    H152768   2.706   3.457  11.431  0.5379 -2.5941  0.5511
10451TIP3    H252769   2.658   3.437  11.289  1.0409  1.8683 -0.3771
10452TIP3   OH252770   2.294   6.493   5.434  0.0005  0.4049 -0.2866
10452TIP3    H152771   2.384   6.510   5.463 -0.2427  2.4991 -0.6044
10452TIP3    H252772   2.287   6.536   5.349 -1.4622  0.7546 -0.0190
10453TIP3   OH252773   3.976   4.226   4.679  0.6299  0.4781  0.0916
10453TIP3    H152774   3.961   4.144   4.726 -1.4552  0.4305 -0.5465
10453TIP3    H252775   3.949   4.208   4.589  2.5227  1.1753 -0.6641
10454TIP3   OH252776   0.252   2.800   1.954 -0.3108 -0.0758 -0.3347
10454TIP3    H152777   0.345   2.776   1.945 -0.1844  0.6563 -1.0812
10454TIP3    H252778   0.213   2.775   1.870 -0.7604 -0.2248 -0.0844
10455TIP3   OH252779   3.286   4.066  13.073 -0.1092  0.1849 -0.1759
10455TIP3    H152780   3.207   4.065  13.126 -0.1094  1.6597 -0.1104
10455TIP3    H252781   3.357   4.049  13.135 -0.3667 -1.4726 -0.2879
10456TIP3   OH252782   6.488   1.858   3.569 -0.0384 -0.3778 -0.6062
10456TIP3    H152783   6.512   1.950   3.580 -0.4236 -0.1916 -1.2971
10456TIP3    H252784   6.571   1.813   3.555  0.1290 -0.1032 -0.5143
10457TIP3   OH252785   3.867   6.202  16.452 -0.4822  0.1393  0.0106
10457TIP3    H152786   3.890   6.237  16.538  1.4706  1.3944 -0.9408
10457TIP3    H252787   3.950   6.202  16.403 -1.9861  2.5743 -2.9051
10458TIP3   OH252788   1.115   5.988   2.762  0.5027  0.1538 -0.0528
10458TIP3    H152789   1.142   5.903   2.796 -0.6057 -0.8787 -1.5999
10458TIP3    H252790   1.131   5.983   2.668 -1.7823  0.7096 -0.5461
10459TIP3   OH252791   3.385   2.191  11.998 -0.2403 -0.2019  0.2161
10459TIP3    H152792   3.310   2.148  11.956 -1.1067  0.2721  1.2411
10459TIP3    H252793   3.415   2.128  12.063  1.0422 -0.8944 -0.9754
10460TIP3   OH252794   4.205   5.571  15.613  0.0971  0.2908  0.1099
10460TIP3    H152795   4.227   5.491  15.660 -1.9906 -0.6903 -0.4304
10460TIP3    H252796   4.111   5.583  15.628  0.1137  1.9742 -0.8089
10461TIP3   OH252797   4.336   0.964  16.570 -0.1783  0.3548  0.0853
10461TIP3    H152798   4.354   1.002  16.656 -2.0313  0.5306  0.4288
10461TIP3    H252799   4.347   0.869  16.583 -0.5277  0.3726  0.5431
10462TIP3   OH252800   4.923   5.093  14.823  0.4985  0.5109  0.2994
10462TIP3    H152801   4.960   5.098  14.911 -2.1217  0.5737  1.4791
10462TIP3    H252802   4.942   5.178  14.784  1.3957  0.5985  0.8959
10463TIP3   OH252803   4.012   5.797   0.750  0.0192 -1.1061 -0.3280
10463TIP3    H152804   4.097   5.806   0.792  0.1118 -0.3525 -0.6582
10463TIP3    H252805   3.949   5.825   0.817  0.2546  1.5284 -1.0850
10464TIP3   OH252806   1.708   4.262   0.903  0.1756 -0.2246  0.2852
10464TIP3    H152807   1.748   4.337   0.946 -1.1371 -0.3112  1.7604
10464TIP3    H252808   1.710   4.192   0.968  1.4783 -1.5574 -1.0975
10465TIP3   OH252809   5.471   2.087  15.770  0.0251  0.6352 -0.5471
10465TIP3    H152810   5.414   2.050  15.838 -0.3080  1.0253 -0.6042
10465TIP3    H252811   5.462   2.028  15.696  1.3294 -0.4730  0.1332
10466TIP3   OH252812   1.269   2.266   2.366  0.1887  0.5710 -0.6805
10466TIP3    H152813   1.324   2.275   2.288 -0.1750 -0.4187 -1.0720
10466TIP3    H252814   1.331   2.264   2.439  0.6139  0.4674 -1.0365
10467TIP3   OH252815   4.679   4.031   1.549 -0.1622  0.3647 -0.0574
10467TIP3    H152816   4.650   4.122   1.548  0.3478  0.5253 -1.0306
10467TIP3    H252817   4.746   4.028   1.617  1.7016  1.3442 -1.7544
10468TIP3   OH252818   2.032   0.522  13.769 -0.2083  0.0914  0.3445
10468TIP3    H152819   1.994   0.576  13.699 -0.0993 -0.1746  0.0762
10468TIP3    H252820   1.979   0.543  13.846 -0.7706 -0.1134  0.0251
10469TIP3   OH252821   0.426   3.404  16.831  0.8609  0.9444  0.2393
10469TIP3    H152822   0.452   3.332  16.774 -1.0920 -0.2430  0.7671
10469TIP3    H252823   0.494   3.406  16.899  1.3381  0.0917 -0.1950
10470TIP3   OH252824   4.018   4.413  11.911  0.0246 -0.4825 -0.4990
10470TIP3    H152825   4.070   4.401  11.991 -1.2154 -2.1944  0.1229
10470TIP3    H252826   3.930   4.433  11.942 -0.3843 -0.7605 -1.4434
10471TIP3   OH252827   1.414   6.478  15.259 -0.2579 -0.1145 -0.1883
10471TIP3    H152828   1.419   6.549  15.194  0.6191 -0.9538 -1.0656
10471TIP3    H252829   1.504   6.470  15.292 -0.4197 -0.6273  0.1281
10472TIP3   OH252830   4.004   1.329  15.495 -0.2942 -0.1945 -0.6260
10472TIP3    H152831   4.035   1.239  15.507 -2.2058 -1.0307 -1.4984
10472TIP3    H252832   3.932   1.339  15.557 -0.2786  0.6513 -0.7267
10473TIP3   OH252833   2.266   3.900  13.092 -0.2827 -0.0862  0.2413
10473TIP3    H152834   2.254   3.828  13.031  0.6282 -0.5045  0.5428
10473TIP3    H252835   2.177   3.928  13.114 -0.6240  0.1689 -1.3565
10474TIP3   OH252836   1.034   1.351  14.090  0.7286  0.2915  0.5645
10474TIP3    H152837   0.961   1.290  14.073  1.5917 -0.9336  1.1077
10474TIP3    H252838   1.064   1.377  14.002 -1.1985  1.9063  0.3145
10475TIP3   OH252839   4.042   2.369   0.383  0.5884 -0.3471  0.4031
10475TIP3    H152840   3.991   2.450   0.381  1.3615  0.1670  0.6627
10475TIP3    H252841   3.977   2.299   0.390 -0.4401 -0.1473 -4.1328
10476TIP3   OH252842   1.655   2.113  11.761  0.4383 -0.1504 -0.1371
10476TIP3    H152843   1.615   2.031  11.790  0.5076 -0.1049  0.0857
10476TIP3    H252844   1.749   2.097  11.765  0.4479 -0.2280 -0.5807
10477TIP3   OH252845   1.894   6.499  14.853  0.1896  0.0396  0.2704
10477TIP3    H152846   1.875   6.576  14.799  0.1618 -0.3950 -0.3533
10477TIP3    H252847   1.809   6.470  14.885  0.1582  0.0488  0.1961
10478TIP3   OH252848   2.294   1.634  13.236  0.4509 -0.5554 -0.0214
10478TIP3    H152849   2.210   1.645  13.281  0.5125  2.4862 -0.3897
10478TIP3    H252850   2.276   1.569  13.168 -1.7680  0.2435 -0.3093
10479TIP3   OH252851   3.402   1.293  11.341  0.2214  0.2987  0.0582
10479TIP3    H152852   3.336   1.363  11.344  2.3183  2.4231  1.8537
10479TIP3    H252853   3.386   1.242  11.420 -1.3285 -1.3940 -1.2691
10480TIP3   OH252854   1.526   0.209  13.329  0.0186  0.3029  0.3891
10480TIP3    H152855   1.510   0.128  13.280  1.0285 -0.6213  1.5113
10480TIP3    H252856   1.444   0.225  13.377 -0.3006  0.1359 -0.0957
10481TIP3   OH252857   0.475   3.102   5.351 -0.4669 -0.0755 -0.6029
10481TIP3    H152858   0.570   3.092   5.352 -0.3332  0.9600 -1.0816
10481TIP3    H252859   0.458   3.156   5.274 -1.2746  1.1591  0.4030
10482TIP3   OH252860   4.969   1.080   4.843 -0.5434  0.1292 -0.3388
10482TIP3    H152861   5.056   1.047   4.823 -0.8371 -1.5491  0.9550
10482TIP3    H252862   4.975   1.113   4.933 -1.4523 -0.8882  0.1188
10483TIP3   OH252863   1.771   4.534  17.005  0.3010 -0.3995  0.1284
10483TIP3    H152864   1.693   4.482  17.026 -0.5378  1.2371  1.3256
10483TIP3    H252865   1.755   4.567  16.917 -0.7806  0.5827  0.6667
10484TIP3   OH252866   3.837   6.293   6.299  0.7119  0.0805 -0.1619
10484TIP3    H152867   3.819   6.380   6.334  0.2259  0.5574 -1.5812
10484TIP3    H252868   3.758   6.242   6.318  0.1389  0.5530 -1.2038
10485TIP3   OH252869   2.162   4.908   1.338  0.5519  0.2124  0.1525
10485TIP3    H152870   2.157   4.840   1.405  0.8060 -0.1205 -0.1633
10485TIP3    H252871   2.140   4.863   1.256 -0.4611  0.7660  0.1062
10486TIP3   OH252872   4.992   4.904   4.554  0.0244 -0.4374 -0.3232
10486TIP3    H152873   5.019   4.832   4.611  2.3564  0.6577  0.0689
10486TIP3    H252874   4.962   4.972   4.615  0.5926 -0.0148 -0.5097
10487TIP3   OH252875   3.216   5.891   5.939  0.0895 -0.4738 -0.2040
10487TIP3    H152876   3.184   5.837   5.867  2.3113 -1.5752 -0.4358
10487TIP3    H252877   3.171   5.858   6.016 -2.7520  1.0720 -1.0235
10488TIP3   OH252878   0.704   2.417  14.007 -0.1888 -0.0503  0.0269
10488TIP3    H152879   0.679   2.508  14.028  0.6587 -0.0113  0.9573
10488TIP3    H252880   0.621   2.372  13.995 -0.6192  0.9215 -0.7813
10489TIP3   OH252881   1.704   1.361   5.354  0.1788  0.0335 -0.8610
10489TIP3    H152882   1.635   1.374   5.419  0.6507  1.4756 -0.6103
10489TIP3    H252883   1.781   1.335   5.406  0.4526  0.8122 -0.8566
10490TIP3   OH252884   3.120   5.863   7.055 -0.2543  0.3961  0.1467
10490TIP3    H152885   3.059   5.890   6.987 -0.2037 -0.4216 -0.2428
10490TIP3    H252886   3.188   5.814   7.008  0.0275  0.2233  0.7229
10491TIP3   OH252887   3.982   3.622   1.784  0.1886 -0.1491 -0.2648
10491TIP3    H152888   3.930   3.571   1.722 -1.7199  1.8099 -0.4109
10491TIP3    H252889   4.021   3.692   1.731 -0.4878  0.8447  0.5097
10492TIP3   OH252890   2.627   1.602   1.519 -0.4608  0.3308  0.4136
10492TIP3    H152891   2.677   1.665   1.468  1.8165 -1.3339  0.4616
10492TIP3    H252892   2.605   1.532   1.457  1.5325 -1.2588  1.3791
10493TIP3   OH252893   2.478   6.399  17.079 -0.5811  0.4426  0.8894
10493TIP3    H152894   2.439   6.441  17.157 -1.7952 -0.1226  0.6168
10493TIP3    H252895   2.461   6.306  17.091 -1.2692  0.3930 -0.3036
10494TIP3   OH252896   2.130   5.146   2.347 -0.0993 -0.5003 -0.3389
10494TIP3    H152897   2.135   5.065   2.398 -1.8492 -0.5831 -0.2490
10494TIP3    H252898   2.036   5.163   2.337  0.1965  0.2402 -2.3994
10495TIP3   OH252899   6.289   5.777  10.989  0.1488 -0.2515  0.0153
10495TIP3    H152900   6.205   5.745  10.955 -0.3434  0.1625  0.7984
10495TIP3    H252901   6.307   5.719  11.064 -1.2030  1.7516  2.0299
10496TIP3   OH252902   5.403   5.476   3.030 -0.3878 -0.3403  0.0890
10496TIP3    H152903   5.451   5.427   3.097  0.8011 -0.8121 -1.0728
10496TIP3    H252904   5.412   5.568   3.056  0.2739 -0.5016  0.4492
10497TIP3   OH252905   2.692   1.316   5.401 -0.0743 -0.5934 -0.0167
10497TIP3    H152906   2.765   1.307   5.463  0.3089 -1.0493 -0.5305
10497TIP3    H252907   2.727   1.285   5.318 -0.9442 -1.0716 -0.2127
10498TIP3   OH252908   4.185   3.591   6.628 -0.5595 -0.2001 -0.0493
10498TIP3    H152909   4.139   3.635   6.557  1.1648 -0.8986 -1.6976
10498TIP3    H252910   4.116   3.558   6.686 -2.0305  0.1001 -1.5752
10499TIP3   OH252911   4.275   3.381   3.624  0.0379  0.2581 -0.2297
10499TIP3    H152912   4.197   3.351   3.671 -0.0122 -1.6655 -1.4388
10499TIP3    H252913   4.346   3.374   3.689 -0.5416  0.6816  0.4631
10500TIP3   OH252914   3.946   2.769   3.994  0.4394 -0.3907 -0.3515
10500TIP3    H152915   3.850   2.774   3.999  0.3396 -1.1507 -1.2460
10500TIP3    H252916   3.974   2.773   4.086 -0.3645  1.0028 -0.1367
10501TIP3   OH252917   5.871   1.345  14.722 -0.1766  0.3472 -0.0676
10501TIP3    H152918   5.881   1.251  14.739 -1.4316  0.2438  0.2021
10501TIP3    H252919   5.866   1.385  14.808  0.5923  0.7138 -0.1780
10502TIP3   OH252920   2.219   0.078  16.940  0.1658  0.3598  0.1261
10502TIP3    H152921   2.300   0.033  16.961 -0.4484 -1.4166 -1.0895
10502TIP3    H252922   2.246   0.149  16.881  0.8362 -0.2432 -0.3115
10503TIP3   OH252923   2.453   4.029   2.599  0.4407 -0.3200 -0.3573
10503TIP3    H152924   2.531   3.979   2.620 -0.4408 -2.7438 -2.2936
10503TIP3    H252925   2.483   4.096   2.537  1.1750 -0.4811 -0.1833
10504TIP3   OH252926   2.366   4.124   0.242  0.2436  0.4904  0.4074
10504TIP3    H152927   2.428   4.067   0.286  0.1615  2.1854  2.9217
10504TIP3    H252928   2.291   4.128   0.301 -0.1422  2.3919 -0.1506
10505TIP3   OH252929   5.777   0.466   3.414  0.5615 -0.0457  0.3073
10505TIP3    H152930   5.692   0.464   3.459  0.2345  0.3304 -0.2723
10505TIP3    H252931   5.840   0.484   3.483  0.2833 -1.2298  0.8938
10506TIP3   OH252932   1.600   1.682   3.990  0.3168 -0.8789 -0.3703
10506TIP3    H152933   1.695   1.679   3.983  0.2710 -2.1301 -0.7199
10506TIP3    H252934   1.572   1.712   3.903  0.4483  1.5949  0.3879
10507TIP3   OH252935   0.646   1.760  14.507 -0.3313  0.1276  0.5363
10507TIP3    H152936   0.578   1.718  14.455  0.0515  0.9941 -0.6927
10507TIP3    H252937   0.627   1.854  14.499  1.9539  0.5071 -1.2311
10508TIP3   OH252938   5.987   6.036  17.237 -0.7862  0.1189  0.5983
10508TIP3    H152939   5.988   6.035  17.333  3.0514  0.2219  0.7092
10508TIP3    H252940   6.031   6.117  17.213 -0.1510 -0.7030 -1.1935
10509TIP3   OH252941   6.459   3.402   4.978 -0.0547 -1.3953 -0.0346
10509TIP3    H152942   6.422   3.453   5.050  0.9593 -1.0160  0.2282
10509TIP3    H252943   6.386   3.346   4.949 -0.8251 -0.6828  0.4722
10510TIP3   OH252944   0.790   0.030  13.573  0.3935 -0.0939 -0.2255
10510TIP3    H152945   0.695   0.021  13.565  0.3681  0.4768 -0.6521
10510TIP3    H252946   0.813  -0.020  13.651 -0.3968  0.6247  0.4865
10511TIP3   OH252947   3.634   0.546  13.881 -0.1745  0.2107  0.3632
10511TIP3    H152948   3.593   0.483  13.822  0.8618 -1.3035  1.1971
10511TIP3    H252949   3.720   0.508  13.902  0.9553  2.4117  0.0682
10512TIP3   OH252950   1.904   1.920  12.050  0.4811 -0.1751 -0.0126
10512TIP3    H152951   1.854   1.870  11.986  0.9515  2.2682 -2.5027
10512TIP3    H252952   1.855   2.001  12.062  0.4644 -0.4943  2.7711
10513TIP3   OH252953   3.881   2.667  16.509 -0.0712  0.1600 -0.7557
10513TIP3    H152954   3.898   2.643  16.417 -1.4325 -3.0106 -0.3072
10513TIP3    H252955   3.960   2.640  16.555  0.2068  0.8063 -0.8482
10514TIP3   OH252956   2.638   4.925  12.465  0.3211 -0.1650 -0.3659
10514TIP3    H152957   2.561   4.958  12.418  0.9819  0.1709 -1.2463
10514TIP3    H252958   2.696   5.001  12.472  1.1289 -0.7114 -0.9047
10515TIP3   OH252959   0.379   4.934  12.793 -0.0169  0.3343  0.2844
10515TIP3    H152960   0.359   4.870  12.862 -0.1884 -1.0294 -0.9798
10515TIP3    H252961   0.326   4.905  12.719  3.7951 -1.2540 -2.0766
10516TIP3   OH252962   1.055   4.162   3.663 -0.0483 -0.4596 -0.1163
10516TIP3    H152963   1.026   4.247   3.631 -1.3715 -0.2002  1.6353
10516TIP3    H252964   1.101   4.182   3.745 -1.0232 -1.4657  0.7058
10517TIP3   OH252965   0.802   3.173  11.631  0.3648 -0.3059  0.0322
10517TIP3    H152966   0.772   3.083  11.644 -0.5155 -0.1860 -1.0356
10517TIP3    H252967   0.757   3.223  11.700  0.4524 -0.5943  0.3034
10518TIP3   OH252968   4.351   4.405  11.560  0.2300 -0.4015 -0.6198
10518TIP3    H152969   4.348   4.481  11.619 -0.3085 -1.0262  0.1901
10518TIP3    H252970   4.387   4.439  11.479 -0.4984  0.8477 -0.4510
10519TIP3   OH252971   0.085   3.407   4.140 -0.3084  0.0194  0.2362
10519TIP3    H152972   0.106   3.383   4.230  0.5871  0.4378  0.1464
10519TIP3    H252973   0.167   3.396   4.092 -0.4298  1.1016 -0.2527
10520TIP3   OH252974   6.607   4.633  14.810  0.1005 -0.0397  0.0422
10520TIP3    H152975   6.637   4.542  14.809 -1.0142 -0.4192 -1.0365
10520TIP3    H252976   6.558   4.643  14.728  0.8633  1.7594 -0.2287
10521TIP3   OH252977   4.234   1.022  12.374 -0.6560 -0.3341  0.2764
10521TIP3    H152978   4.258   1.106  12.335  0.7347 -1.0117 -0.4113
10521TIP3    H252979   4.147   1.037  12.410 -0.6658  1.2481 -0.2897
10522TIP3   OH252980   4.509   2.076   3.397 -0.0303  0.2462 -0.6193
10522TIP3    H152981   4.530   2.170   3.394  1.1831  0.0356  0.3864
10522TIP3    H252982   4.537   2.043   3.311  1.8957  0.3939 -0.1077
10523TIP3   OH252983   6.642   3.362   1.972 -0.3788  0.3315  0.2694
10523TIP3    H152984   6.735   3.349   1.956 -0.6744 -0.0379 -1.4310
10523TIP3    H252985   6.638   3.429   2.039  1.1383  2.1448 -1.3262
10524TIP3   OH252986   4.010   3.657   2.422  0.1700  0.0362  0.1841
10524TIP3    H152987   4.033   3.587   2.484 -0.2390 -3.0223 -2.8010
10524TIP3    H252988   4.074   3.649   2.352 -0.2833  2.3218 -0.5664
10525TIP3   OH252989   1.685   0.571  15.933  0.4609  0.8641 -0.7404
10525TIP3    H152990   1.607   0.567  15.989  1.0312 -0.9540 -0.0009
10525TIP3    H252991   1.664   0.637  15.867 -0.8630  1.9204  0.6780
10526TIP3   OH252992   4.225   3.064   6.327  0.6111 -0.4556 -0.0093
10526TIP3    H152993   4.158   3.009   6.286  0.5063 -0.2303 -0.1490
10526TIP3    H252994   4.175   3.134   6.370  0.7107 -0.7732  0.6374
10527TIP3   OH252995   1.987   3.939  16.711  0.1908 -0.3022 -0.2511
10527TIP3    H152996   1.900   3.899  16.706  0.5423 -1.3564  1.3490
10527TIP3    H252997   2.006   3.942  16.805  0.6576  2.6871 -0.3288
10528TIP3   OH252998   4.526   5.375  15.599 -0.2133 -0.4297  0.0192
10528TIP3    H152999   4.576   5.406  15.524  1.9177 -1.1649  1.0460
10528TIP3    H253000   4.487   5.293  15.570 -0.2271 -0.2104 -0.5868
10529TIP3   OH253001   2.122   2.671   1.278 -0.3605 -0.0337 -0.2386
10529TIP3    H153002   2.133   2.755   1.234  2.7326 -1.4555 -2.5917
10529TIP3    H253003   2.050   2.628   1.233 -0.7280  0.6078 -0.2676
10530TIP3   OH253004   1.182   4.748   0.706  0.0671 -0.1895 -0.3458
10530TIP3    H153005   1.226   4.763   0.789  0.6642 -0.3832 -0.6202
10530TIP3    H253006   1.137   4.665   0.717  0.1012 -0.1887 -0.1994
10531TIP3   OH253007   0.854   0.617   4.074  0.2893  0.4199  0.4585
10531TIP3    H153008   0.909   0.692   4.095 -3.2518  4.2011 -2.2272
10531TIP3    H253009   0.846   0.618   3.979 -0.9893 -2.6667  0.4090
10532TIP3   OH253010   4.479   6.546   5.610 -0.8612 -0.2134  0.7315
10532TIP3    H153011   4.452   6.633   5.642 -0.4776 -0.0636  0.6471
10532TIP3    H253012   4.425   6.485   5.661 -1.2901  0.0797  0.6408
10533TIP3   OH253013   5.946   4.173   1.762  0.0621 -0.0092 -0.1406
10533TIP3    H153014   5.993   4.256   1.750 -0.9344  0.5628 -0.1557
10533TIP3    H253015   5.854   4.196   1.754 -0.1924 -1.3888 -1.7479
10534TIP3   OH253016   6.338   1.331   1.538  0.3629  0.2139  0.1097
10534TIP3    H153017   6.333   1.410   1.485 -1.7205  0.0374 -0.0157
10534TIP3    H253018   6.250   1.320   1.575  1.0597 -1.0979  1.5192
10535TIP3   OH253019   4.243   0.143  13.980 -0.1685  0.5583 -0.3593
10535TIP3    H153020   4.319   0.102  13.940  0.2671  1.8048 -0.8547
10535TIP3    H253021   4.172   0.080  13.968  0.5521 -0.1894 -0.7693
10536TIP3   OH253022   5.741   6.205  14.313 -0.0780  0.0456  0.5679
10536TIP3    H153023   5.731   6.300  14.299 -0.9631 -0.0872  0.1566
10536TIP3    H253024   5.830   6.194  14.344  0.1982  0.9718  0.1434
10537TIP3   OH253025   3.449   2.904  12.538 -0.1710  0.2872 -0.6904
10537TIP3    H153026   3.459   2.829  12.596  0.3857  0.7221 -0.2073
10537TIP3    H253027   3.414   2.973  12.595 -0.5172  0.4412 -1.0889
10538TIP3   OH253028   1.939   0.190   6.415 -0.0651 -0.3653 -0.2263
10538TIP3    H153029   1.967   0.101   6.392  0.5666 -0.1201 -0.4179
10538TIP3    H253030   1.858   0.177   6.464  0.1682 -1.0648 -0.0051
10539TIP3   OH253031   5.169   1.160  11.603  0.0576 -0.6834  0.1876
10539TIP3    H153032   5.135   1.081  11.646 -1.9728 -0.7640 -1.4359
10539TIP3    H253033   5.170   1.138  11.510  0.2257  0.9578 -0.2174
10540TIP3   OH253034   0.263   3.692   3.115  0.1875  0.0567 -0.0639
10540TIP3    H153035   0.195   3.714   3.052 -0.7584  1.0166  1.2373
10540TIP3    H253036   0.268   3.596   3.113  0.2487  0.0638 -1.6188
10541TIP3   OH253037   2.949   1.530   1.827 -0.2257 -0.4381 -0.2094
10541TIP3    H153038   3.031   1.535   1.877  0.7205 -0.9986 -1.6327
10541TIP3    H253039   2.961   1.594   1.756 -0.8604 -0.8013 -0.6446
10542TIP3   OH253040   2.922   3.815   2.666 -0.1141 -0.0984 -0.0340
10542TIP3    H153041   2.982   3.850   2.599  0.6713 -1.4991 -0.1103
10542TIP3    H253042   2.972   3.822   2.748 -0.2144 -0.4153  0.0535
10543TIP3   OH253043   0.868   4.101   6.260 -0.1933 -0.4694 -0.3742
10543TIP3    H153044   0.958   4.133   6.268 -0.0441 -0.5673 -1.4993
10543TIP3    H253045   0.832   4.109   6.348  1.0064 -0.7017  0.1615
10544TIP3   OH253046   1.807   1.225  16.750  0.2177  0.5597  0.6434
10544TIP3    H153047   1.734   1.224  16.811  0.8249  0.0086  1.3781
10544TIP3    H253048   1.858   1.147  16.772  1.0150  0.9241  0.1361
10545TIP3   OH253049   6.390   2.177   0.624  0.1361  0.9357 -0.0311
10545TIP3    H153050   6.412   2.175   0.531  0.3968 -0.9647  0.0330
10545TIP3    H253051   6.307   2.224   0.628 -0.0605  0.7166 -1.2743
10546TIP3   OH253052   1.604   1.833   4.946  0.4233 -0.0305 -0.5425
10546TIP3    H153053   1.565   1.857   5.030  0.7318 -0.1280 -0.3702
10546TIP3    H253054   1.691   1.872   4.948  1.2783 -1.8481  0.1046
10547TIP3   OH253055   0.980   2.376   1.366 -0.1752  0.0750  0.1744
10547TIP3    H153056   0.911   2.391   1.430 -2.3306 -0.3944 -1.9253
10547TIP3    H253057   1.015   2.463   1.348 -2.5809  0.8581 -1.1585
10548TIP3   OH253058   2.560   2.653   3.912  0.3291 -0.3897  0.5340
10548TIP3    H153059   2.468   2.629   3.918  0.2605 -0.2444  0.1161
10548TIP3    H253060   2.607   2.569   3.913  0.2400 -0.4349  1.4515
10549TIP3   OH253061   0.901   5.250   4.025 -0.2039 -0.4828  0.4365
10549TIP3    H153062   0.848   5.330   4.027  0.6486  0.1897 -1.4223
10549TIP3    H253063   0.978   5.271   4.079  0.7232  0.5488 -1.1951
10550TIP3   OH253064   1.684   1.651  14.727  0.6020  0.8841 -0.4349
10550TIP3    H153065   1.654   1.667  14.638  0.9843  0.3701 -0.6626
10550TIP3    H253066   1.660   1.559  14.744  0.4271  1.0123  0.0332
10551TIP3   OH253067   0.950   2.623  16.614 -0.5858 -0.3295  0.7497
10551TIP3    H153068   1.009   2.692  16.645 -0.9111  0.2683  0.0658
10551TIP3    H253069   0.991   2.590  16.534 -2.5425  2.1348 -1.4761
10552TIP3   OH253070   6.117   6.461  11.907  0.2412  0.7765  0.1197
10552TIP3    H153071   6.203   6.456  11.949 -0.2524 -1.0505  0.9845
10552TIP3    H253072   6.129   6.420  11.822 -0.1057 -0.9517  0.8714
10553TIP3   OH253073   2.249   4.193   0.002 -0.0633  0.1013 -0.3362
10553TIP3    H153074   2.305   4.156   0.070  2.4173  0.4011 -2.0620
10553TIP3    H253075   2.160   4.173   0.030  0.8509 -0.1571  2.7321
10554TIP3   OH253076   3.517   5.517   5.139  0.4728  0.8666 -0.3013
10554TIP3    H153077   3.514   5.598   5.087  0.7981  0.7852 -0.4539
10554TIP3    H253078   3.478   5.451   5.082  0.6948  0.8077 -0.3862
10555TIP3   OH253079   0.236   0.748  14.226 -0.4736 -0.1008 -0.2603
10555TIP3    H153080   0.184   0.676  14.189 -0.7780  0.2824 -0.5802
10555TIP3    H253081   0.327   0.720  14.214 -0.5133  0.5432 -2.4170
10556TIP3   OH253082   6.242   6.731   3.691 -0.5060 -0.0659  0.0400
10556TIP3    H153083   6.294   6.786   3.750 -0.9177  0.4150 -0.0361
10556TIP3    H253084   6.181   6.792   3.650 -0.9697 -0.5878 -0.0509
10557TIP3   OH253085   0.593   0.159  15.508  0.0069 -0.0057 -0.7546
10557TIP3    H153086   0.660   0.140  15.442  0.5318 -2.2508  0.3017
10557TIP3    H253087   0.551   0.074  15.525  0.4674  0.2476  2.3631
10558TIP3   OH253088   2.666   0.505   3.682  0.5243 -0.2565 -0.1496
10558TIP3    H153089   2.577   0.538   3.672  0.4274 -0.5412 -0.2167
10558TIP3    H253090   2.657   0.410   3.681  0.9959 -0.3328 -1.9674
10559TIP3   OH253091   0.842   0.938   6.980 -0.0262 -0.0912 -0.1600
10559TIP3    H153092   0.914   0.891   7.023 -0.0137  1.2478  1.3694
10559TIP3    H253093   0.885   0.990   6.912  0.5000  0.7533  0.7877
10560TIP3   OH253094   0.684   2.448   3.213  0.1770 -0.1529  0.1581
10560TIP3    H153095   0.679   2.542   3.231  0.9108  0.2202 -1.3758
10560TIP3    H253096   0.623   2.408   3.275 -1.0837  1.4498  0.0192
10561TIP3   OH253097   3.528   6.176  12.162 -0.4557 -0.3463  0.2861
10561TIP3    H153098   3.543   6.169  12.256  2.4544  0.5451 -0.0310
10561TIP3    H253099   3.495   6.265  12.150 -0.9527 -0.5021  0.4333
10562TIP3   OH253100   1.653   2.986  11.271  0.0880 -0.5360  0.4069
10562TIP3    H153101   1.564   3.006  11.299 -0.2294 -0.6785 -0.4582
10562TIP3    H253102   1.651   2.996  11.176  1.6947  2.2342  0.5691
10563TIP3   OH253103   2.810   3.167   0.163 -0.0422  0.4643 -0.1434
10563TIP3    H153104   2.716   3.182   0.174 -0.3079 -1.6896  1.2701
10563TIP3    H253105   2.849   3.254   0.171 -1.8289  1.2989  0.1353
10564TIP3   OH253106   2.265   2.425  14.325 -0.0023 -0.2461 -0.4853
10564TIP3    H153107   2.225   2.373  14.395 -1.3537  0.9539 -0.2917
10564TIP3    H253108   2.319   2.489  14.371 -0.0791 -0.1104 -0.5812
10565TIP3   OH253109   2.390   5.721   1.071 -0.3575  0.6541 -0.0490
10565TIP3    H153110   2.307   5.705   1.116 -0.2481 -0.1813 -0.1218
10565TIP3    H253111   2.381   5.809   1.035 -1.8969 -0.0213 -1.4863
10566TIP3   OH253112   6.451   5.455  13.033  0.2721 -0.1604 -0.0071
10566TIP3    H153113   6.521   5.390  13.041  0.6285 -0.0470 -1.7206
10566TIP3    H253114   6.464   5.493  12.946 -0.3146  1.7749  0.7125
10567TIP3   OH253115   5.704   4.920   6.414 -0.0566 -0.6830 -0.7259
10567TIP3    H153116   5.742   4.985   6.473 -1.7286  0.9630 -1.3540
10567TIP3    H253117   5.715   4.837   6.459  1.9593  0.0333  0.2253
10568TIP3   OH253118   1.162   5.567  16.343  0.1139 -0.4581  0.2415
10568TIP3    H153119   1.126   5.493  16.392  0.3729  0.9460  2.7121
10568TIP3    H253120   1.246   5.536  16.311 -0.1673 -1.5148  0.4830
10569TIP3   OH253121   6.638   5.648  11.845  0.1099  0.4357  0.1782
10569TIP3    H153122   6.558   5.673  11.891 -0.1078 -1.4730  0.9419
10569TIP3    H253123   6.615   5.567  11.799  1.7708 -0.5366  0.9817
10570TIP3   OH253124   3.611   3.108  13.386  0.0088  0.0485  0.4223
10570TIP3    H153125   3.606   3.105  13.291 -0.6321  2.1226  0.3563
10570TIP3    H253126   3.676   3.175  13.406  0.2916 -0.4985  1.4662
10571TIP3   OH253127   4.361   0.342   1.372  0.7666 -0.5101 -0.1372
10571TIP3    H153128   4.424   0.413   1.375 -0.0168  0.1885  2.4836
10571TIP3    H253129   4.387   0.283   1.442 -1.0389 -0.5748  0.5415
10572TIP3   OH253130   0.368   6.451  17.114  0.2988 -0.3684  0.2296
10572TIP3    H153131   0.396   6.368  17.075  0.3292 -0.1925 -0.1295
10572TIP3    H253132   0.429   6.516  17.080 -1.1500  0.2035 -1.4504
10573TIP3   OH253133   5.709   4.870   5.416  0.0029  0.4309 -0.6763
10573TIP3    H153134   5.744   4.800   5.472  0.1781  0.9248 -0.1552
10573TIP3    H253135   5.708   4.947   5.473 -2.4345  0.3326 -0.4950
10574TIP3   OH253136   4.670   6.027   1.590  0.3024 -0.2566  0.6897
10574TIP3    H153137   4.722   6.019   1.510  0.6435  0.9725  0.7618
10574TIP3    H253138   4.608   5.955   1.586 -0.8039  0.7060 -1.5247
10575TIP3   OH253139   3.169   2.160  13.620  0.2420 -0.4980  0.1388
10575TIP3    H153140   3.152   2.210  13.540  0.7084  1.8679  1.4147
10575TIP3    H253141   3.089   2.110  13.634 -1.1930  1.6007 -0.0656
10576TIP3   OH253142   4.844   4.172  13.074 -0.0515  0.4575  0.1729
10576TIP3    H153143   4.867   4.122  13.153 -0.6630 -0.0262  0.0470
10576TIP3    H253144   4.928   4.188  13.030  0.0174 -1.8337 -0.6153
10577TIP3   OH253145   6.383   1.148  14.211 -0.8585 -0.6688 -0.3583
10577TIP3    H153146   6.379   1.243  14.195 -1.2323 -0.7030 -0.4694
10577TIP3    H253147   6.458   1.119  14.158  0.2834 -0.1937  0.9463
10578TIP3   OH253148   3.432   1.470  16.151  0.5559 -0.7099  0.0005
10578TIP3    H153149   3.389   1.556  16.152 -0.0020 -0.9886  1.2927
10578TIP3    H253150   3.483   1.467  16.231  0.2215 -1.7570  0.1877
10579TIP3   OH253151   1.940   2.545  15.256  0.3496  0.5245 -0.0652
10579TIP3    H153152   2.007   2.587  15.202 -0.0878  0.9080 -0.3199
10579TIP3    H253153   1.985   2.471  15.297  0.2981 -0.7812 -2.2129
10580TIP3   OH253154   2.605   5.128  16.254 -0.1501 -0.4125  0.4879
10580TIP3    H153155   2.655   5.049  16.276  0.2779 -0.8373 -1.7998
10580TIP3    H253156   2.667   5.183  16.206 -0.8342  0.7334  0.8901
10581TIP3   OH253157   6.593   5.290  15.466  0.1890  0.5432  0.4357
10581TIP3    H153158   6.640   5.260  15.544  1.7932  0.9195 -0.3512
10581TIP3    H253159   6.601   5.218  15.404 -1.5578  0.0181  0.7641
10582TIP3   OH253160   0.966   0.804   0.886 -0.2834 -0.1453 -0.1983
10582TIP3    H153161   0.889   0.795   0.942 -0.4779 -0.2694 -0.4816
10582TIP3    H253162   0.985   0.715   0.857  0.4469 -0.2231  0.4945
10583TIP3   OH253163   4.744   5.094   3.375  0.2674 -0.8225  0.1587
10583TIP3    H153164   4.736   5.188   3.355 -1.6082 -1.2741 -1.5340
10583TIP3    H253165   4.675   5.077   3.439 -0.7010 -1.3868 -1.0048
10584TIP3   OH253166   4.399   6.617   1.882 -0.3003 -0.8752  0.0385
10584TIP3    H153167   4.469   6.620   1.947 -0.4986  0.4156  0.2301
10584TIP3    H253168   4.319   6.618   1.935 -0.5396  2.6283 -0.1106
10585TIP3   OH253169   1.280   2.715   2.352 -0.5232 -0.4770 -0.2182
10585TIP3    H153170   1.301   2.722   2.259 -0.2048 -0.7378 -0.1630
10585TIP3    H253171   1.214   2.646   2.357  0.2580 -1.2179 -0.1198
10586TIP3   OH253172   2.481   0.342   6.321 -0.1647 -0.2773  0.4725
10586TIP3    H153173   2.455   0.252   6.298 -0.4804 -0.1977  0.5071
10586TIP3    H253174   2.558   0.359   6.267 -1.4760  0.2621 -1.3781
10587TIP3   OH253175   3.348   3.473  15.689  0.0907 -0.1630 -0.1933
10587TIP3    H153176   3.305   3.412  15.630 -1.2155 -0.7657  1.3093
10587TIP3    H253177   3.302   3.556  15.676 -0.1010 -0.2575 -0.1168
10588TIP3   OH253178   5.276   2.271   0.416 -0.2028  0.2544 -0.3321
10588TIP3    H153179   5.293   2.178   0.410 -0.4444  0.2976 -1.9306
10588TIP3    H253180   5.185   2.277   0.445 -0.2537 -0.0014 -0.4448
10589TIP3   OH253181   4.921   6.658   5.133 -0.2731 -0.0251 -0.2011
10589TIP3    H153182   4.879   6.573   5.149 -0.2764  0.0043 -0.0547
10589TIP3    H253183   4.995   6.637   5.075  0.7704 -0.3901  1.2034
10590TIP3   OH253184   4.236   0.843   4.474  0.5092 -0.6340 -0.5734
10590TIP3    H153185   4.151   0.809   4.446  0.6988 -1.9916  0.4350
10590TIP3    H253186   4.216   0.901   4.547  0.3117  0.3596 -1.4013
10591TIP3   OH253187   0.324   6.037  13.543 -0.0563  0.2141  1.0852
10591TIP3    H153188   0.322   6.039  13.639 -2.7946  0.3922  1.1238
10591TIP3    H253189   0.386   6.106  13.519  0.2589  0.5540  2.7200
10592TIP3   OH253190   5.627   3.938  11.765 -0.5961  0.3280  0.3493
10592TIP3    H153191   5.640   3.853  11.807 -0.3907 -1.1418 -2.4631
10592TIP3    H253192   5.704   3.989  11.791  1.1184 -1.5859 -0.6580
10593TIP3   OH253193   2.875   4.392  12.050 -0.8373 -0.2217  0.2994
10593TIP3    H153194   2.926   4.469  12.073 -1.1022  0.2609 -0.6617
10593TIP3    H253195   2.885   4.332  12.124 -0.6736  0.7581  1.0749
10594TIP3   OH253196   0.317   6.486   2.495 -0.3622 -0.3193  0.0556
10594TIP3    H153197   0.365   6.508   2.415  1.5695  0.4141  1.3438
10594TIP3    H253198   0.252   6.422   2.467 -0.1432  0.3494 -2.1992
10595TIP3   OH253199   2.220   4.098   4.566 -0.3494 -0.2112 -0.2207
10595TIP3    H153200   2.187   4.034   4.629 -1.1773 -0.6978 -1.1143
10595TIP3    H253201   2.314   4.078   4.559 -0.2083 -0.0421  0.9532
10596TIP3   OH253202   1.682   1.058  11.957  0.5284 -0.3039  0.4647
10596TIP3    H153203   1.731   1.033  12.035 -1.4851 -1.4096  1.4578
10596TIP3    H253204   1.648   0.975  11.922 -1.3267  0.4499  0.3453
10597TIP3   OH253205   1.874   0.648  15.603 -0.0174 -0.1385  0.0736
10597TIP3    H153206   1.820   0.695  15.667 -1.2988 -1.1310 -0.2460
10597TIP3    H253207   1.812   0.591  15.556  0.9843  0.1111 -1.6389
10598TIP3   OH253208   3.826   3.433  11.518  0.0377  0.1375 -0.2901
10598TIP3    H153209   3.820   3.355  11.463 -0.8950  0.1009 -0.1578
10598TIP3    H253210   3.918   3.459  11.514  0.3676 -0.9887 -0.3053
10599TIP3   OH253211   6.585   3.557   5.413  0.2037  0.3948  0.3044
10599TIP3    H153212   6.673   3.564   5.376  0.2721  0.7395  0.5378
10599TIP3    H253213   6.547   3.481   5.368  0.3822  0.6450 -0.2817
10600TIP3   OH253214   1.752   4.058   3.609  0.6568 -0.2656 -0.2711
10600TIP3    H153215   1.816   4.012   3.665  0.2020 -0.7566 -0.1425
10600TIP3    H253216   1.685   3.992   3.592  0.0852  0.3080 -0.2442
10601TIP3   OH253217   0.901   5.712   3.630 -0.2403 -0.0258  0.3893
10601TIP3    H153218   0.828   5.764   3.599 -0.5806 -1.2617 -0.9839
10601TIP3    H253219   0.906   5.732   3.724 -1.0601  1.5691  0.1278
10602TIP3   OH253220   3.028   3.921  14.810 -0.1309  0.2557  0.3435
10602TIP3    H153221   3.113   3.883  14.788 -1.6773 -3.5162  0.2175
10602TIP3    H253222   2.983   3.929  14.725 -0.3675  1.0864  0.5376
10603TIP3   OH253223   2.489   4.448   4.450 -0.5830  0.0012 -0.1003
10603TIP3    H153224   2.423   4.440   4.519 -0.7499 -2.7056 -0.4831
10603TIP3    H253225   2.461   4.387   4.382  1.6640 -0.3461 -0.8001
10604TIP3   OH253226   6.052   4.231   0.871 -0.1646  0.2039 -1.1289
10604TIP3    H153227   5.958   4.220   0.885 -0.6043  1.9550 -2.3655
10604TIP3    H253228   6.083   4.279   0.947 -0.3798  0.1189 -0.9884
10605TIP3   OH253229   3.164   6.384  12.206 -0.3015  0.6123 -0.7720
10605TIP3    H153230   3.076   6.352  12.185 -0.4259 -0.3593  1.0584
10605TIP3    H253231   3.180   6.453  12.142 -2.2718  0.6095 -1.3343
10606TIP3   OH253232   1.776   0.414  13.410 -0.7431  0.0342 -0.3240
10606TIP3    H153233   1.741   0.326  13.421  1.2621 -0.7982 -0.0691
10606TIP3    H253234   1.855   0.401  13.356  0.7006  1.3686  1.3496
10607TIP3   OH253235   5.857   6.119  16.891  0.0926 -0.1760 -0.2329
10607TIP3    H153236   5.823   6.067  16.963  0.2252  0.2417  0.1330
10607TIP3    H253237   5.878   6.204  16.929  2.6320 -0.7463 -0.1382
10608TIP3   OH253238   4.157   4.495  12.174 -0.5956 -0.1361 -0.1544
10608TIP3    H153239   4.123   4.414  12.211 -1.7318  0.1774 -0.4880
10608TIP3    H253240   4.117   4.564  12.226 -0.2682  0.2392 -0.3943
10609TIP3   OH253241   2.689   1.979   0.216 -0.2945  0.2365  0.1394
10609TIP3    H153242   2.697   2.070   0.190 -0.7237 -0.0757 -1.1952
10609TIP3    H253243   2.690   1.930   0.133 -1.1659 -0.8795  0.7474
10610TIP3   OH253244   5.846   0.256  11.852  0.1917  0.0873 -0.3628
10610TIP3    H153245   5.844   0.166  11.885  1.1724 -0.0154 -0.5578
10610TIP3    H253246   5.844   0.311  11.931  2.4194 -0.1544 -0.0894
10611TIP3   OH253247   6.062   5.539  14.127 -0.3365 -0.3036  0.6727
10611TIP3    H153248   6.048   5.535  14.033 -0.1837  0.0145  0.6356
10611TIP3    H253249   6.151   5.574  14.136 -0.4609 -0.0520  0.9375
10612TIP3   OH253250   0.893   2.158   1.205 -0.4042  0.2500 -0.7324
10612TIP3    H153251   0.897   2.095   1.277 -0.3319  1.0205 -0.0301
10612TIP3    H253252   0.887   2.243   1.249 -0.6371  0.7225 -1.6505
10613TIP3   OH253253   5.348   3.933   3.224 -0.0287  0.2184 -0.2267
10613TIP3    H153254   5.397   3.956   3.302  0.1930  0.6928 -0.5053
10613TIP3    H253255   5.303   4.014   3.199 -1.0395 -0.2251  0.0818
10614TIP3   OH253256   3.449   6.054   5.063  0.0109 -0.4240 -0.1068
10614TIP3    H153257   3.509   6.024   4.994 -0.2654 -2.4505  0.4665
10614TIP3    H253258   3.479   6.142   5.083 -0.3628  0.5863 -3.3149
10615TIP3   OH253259   4.350   0.662   1.181  0.1327  0.9695 -0.2241
10615TIP3    H153260   4.254   0.663   1.181  0.0664  1.3474  2.3412
10615TIP3    H253261   4.374   0.719   1.109 -1.4940 -0.7446 -2.2715
10616TIP3   OH253262   2.514   1.456   2.133  0.5698 -0.0737  0.0113
10616TIP3    H153263   2.458   1.383   2.108 -1.6378  1.1180  1.2144
10616TIP3    H253264   2.554   1.428   2.215  0.8848 -0.4765 -0.2718
10617TIP3   OH253265   5.685   5.818   4.383  0.1176  0.3548  0.2067
10617TIP3    H153266   5.740   5.845   4.457 -0.0254 -0.3565  0.5831
10617TIP3    H253267   5.677   5.723   4.392 -1.4086  0.4640  0.3358
10618TIP3   OH253268   3.619   0.314  13.472 -0.4803  0.0607  0.4806
10618TIP3    H153269   3.524   0.313  13.465 -0.6545 -0.1303  2.3656
10618TIP3    H253270   3.638   0.395  13.520  0.3019  0.0301  0.2320
10619TIP3   OH253271   0.387   3.866  12.450  0.2462  0.5047 -0.1312
10619TIP3    H153272   0.375   3.806  12.377 -0.1206 -1.6279  1.5749
10619TIP3    H253273   0.482   3.882  12.453  0.2244  0.9126 -1.2618
10620TIP3   OH253274   2.176   5.849  14.284  0.2996  0.3872  0.5431
10620TIP3    H153275   2.245   5.824  14.223  0.1343 -0.0865  0.5446
10620TIP3    H253276   2.111   5.894  14.230  0.1461 -0.0453  0.3684
10621TIP3   OH253277   6.639   6.100  12.441 -0.0927  0.3786  0.2922
10621TIP3    H153278   6.684   6.094  12.525  1.4745 -1.4133 -0.5944
10621TIP3    H253279   6.548   6.079  12.461  0.7478 -3.0535  1.2264
10622TIP3   OH253280   3.997   0.299   2.262 -0.1025 -0.2267 -0.0962
10622TIP3    H153281   4.059   0.323   2.193  0.3073 -0.3543  0.2260
10622TIP3    H253282   3.982   0.206   2.249  0.2657 -0.3309  0.2177
10623TIP3   OH253283   6.726   3.390  12.675 -0.2031 -0.3354 -0.2337
10623TIP3    H153284   6.686   3.303  12.668 -1.3906  0.1127  0.7178
10623TIP3    H253285   6.683   3.442  12.609  2.8275 -1.2109 -3.1954
10624TIP3   OH253286   5.563   5.265   2.056 -0.0045  0.6964  0.4968
10624TIP3    H153287   5.632   5.225   2.109  1.7545  0.7174 -1.6813
10624TIP3    H253288   5.485   5.258   2.111  0.8843 -2.7395  1.5772
10625TIP3   OH253289   3.825   4.710   2.795  0.4238 -0.2519 -0.1848
10625TIP3    H153290   3.757   4.686   2.857 -2.1867  0.9146 -2.3962
10625TIP3    H253291   3.821   4.805   2.789  2.0621 -0.1813 -0.6010
10626TIP3   OH253292   6.705   3.464   2.241  0.1016 -0.3805 -0.3711
10626TIP3    H153293   6.616   3.488   2.265 -0.1294 -1.1825 -0.4104
10626TIP3    H253294   6.752   3.458   2.324 -0.6143 -2.8313 -0.0645
10627TIP3   OH253295   1.578   6.065   4.804  0.7170  0.4660  0.0807
10627TIP3    H153296   1.538   5.978   4.800  2.4518 -0.3357 -1.6893
10627TIP3    H253297   1.660   6.051   4.851  0.4045  1.4413  0.9423
10628TIP3   OH253298   2.984   2.094  15.436  0.3316 -0.1674 -0.1076
10628TIP3    H153299   3.077   2.075  15.424  0.1912 -1.7990  1.0479
10628TIP3    H253300   2.945   2.079  15.350  0.8421 -1.5049 -0.1329
10629TIP3   OH253301   5.203   0.240  17.111 -0.7106  0.3716 -0.0866
10629TIP3    H153302   5.271   0.235  17.044 -0.1857 -0.2673  0.4717
10629TIP3    H253303   5.225   0.317  17.163  1.5423 -1.5649  2.0857
10630TIP3   OH253304   3.776   4.016  14.704  0.3945 -0.7638 -0.2412
10630TIP3    H153305   3.805   4.106  14.724  0.1087 -0.3241 -1.7138
10630TIP3    H253306   3.857   3.969  14.686  0.6043 -0.9999  1.1910
10631TIP3   OH253307   4.427   6.163  17.222  0.3867 -0.5272 -0.7576
10631TIP3    H153308   4.360   6.222  17.256 -0.3856 -1.1310 -1.1850
10631TIP3    H253309   4.478   6.138  17.299 -1.0473 -1.5092 -0.0769
10632TIP3   OH253310   2.729   0.303  11.742  0.6745 -0.2369 -0.4671
10632TIP3    H153311   2.660   0.345  11.794  1.3291 -1.1274  1.2233
10632TIP3    H253312   2.786   0.374  11.715  1.3575  0.1162  1.7058
10633TIP3   OH253313   4.806   1.046   2.900 -0.6501  0.0701  0.2053
10633TIP3    H153314   4.854   1.091   2.832  0.2264 -1.0581  0.0417
10633TIP3    H253315   4.791   1.112   2.968  0.9782  0.5052  0.1737
10634TIP3   OH253316   3.498   5.764  13.674 -0.8053  0.3071  0.1180
10634TIP3    H153317   3.542   5.704  13.614  1.1054  2.1845 -0.4681
10634TIP3    H253318   3.429   5.803  13.620 -2.2413 -1.4496  0.5783
10635TIP3   OH253319   2.018   6.195  14.983  0.4218 -0.0448 -0.2773
10635TIP3    H153320   2.014   6.124  14.918  1.8553  0.3036 -0.7815
10635TIP3    H253321   2.037   6.151  15.066 -1.7426 -0.5289  0.0285
10636TIP3   OH253322   6.752   0.906   3.909 -0.3456  0.4352 -0.3339
10636TIP3    H153323   6.715   0.890   3.822 -0.3366  0.5654 -0.3631
10636TIP3    H253324   6.709   0.842   3.966 -0.0807  0.1074 -0.5030
10637TIP3   OH253325   4.114   0.774   3.002 -0.5936 -0.0927 -0.2669
10637TIP3    H153326   4.036   0.826   3.020  0.6735  1.7904  0.1060
10637TIP3    H253327   4.127   0.782   2.907 -0.4657  0.2326 -0.2266
10638TIP3   OH253328   0.734   6.669  13.965  0.5429  0.3198  0.0000
10638TIP3    H153329   0.735   6.577  13.989  1.1051  0.5152  0.7793
10638TIP3    H253330   0.659   6.679  13.907 -0.7289 -0.2281  1.5024
10639TIP3   OH253331   3.969   3.766   4.549  0.4801 -0.4070  0.4653
10639TIP3    H153332   4.050   3.815   4.551  0.2856 -0.0756  0.2216
10639TIP3    H253333   3.910   3.817   4.493 -0.6023  0.4729  2.2832
10640TIP3   OH253334   4.623   3.608  16.250 -0.2343 -0.0185  0.3431
10640TIP3    H153335   4.618   3.531  16.193 -1.3571 -0.5633  1.1627
10640TIP3    H253336   4.534   3.621  16.281 -0.1150  1.7823  0.0245
10641TIP3   OH253337   0.742   4.118   5.827 -0.1133 -0.1387  0.4642
10641TIP3    H153338   0.773   4.133   5.738 -0.6575 -0.9124  0.1299
10641TIP3    H253339   0.649   4.139   5.824  0.0177  0.5313  1.0351
10642TIP3   OH253340   5.555   3.286   4.217  0.1966 -0.4335 -0.1009
10642TIP3    H153341   5.498   3.213   4.241  0.0990 -0.3136  0.0325
10642TIP3    H253342   5.642   3.247   4.209  0.2623 -0.4466  0.6124
10643TIP3   OH253343   2.870   5.296  16.183 -0.2496 -0.0698  0.3426
10643TIP3    H153344   2.855   5.390  16.194  1.0894  0.1184  0.6813
10643TIP3    H253345   2.947   5.291  16.126 -1.1253 -0.9810 -0.7965
10644TIP3   OH253346   3.435   1.912  12.938 -0.7125  0.3264  0.5930
10644TIP3    H153347   3.467   1.931  13.026 -0.9423 -0.8510  0.9480
10644TIP3    H253348   3.510   1.927  12.881 -0.1890 -0.1458  1.1445
10645TIP3   OH253349   5.216   0.408   5.202 -0.0379 -0.1198 -0.1115
10645TIP3    H153350   5.179   0.364   5.278  0.0071  1.0206  0.5913
10645TIP3    H253351   5.141   0.423   5.144 -0.6826  1.8055  1.1218
10646TIP3   OH253352   5.109   2.527  12.824  0.7091  0.0630 -0.3689
10646TIP3    H153353   5.102   2.466  12.897 -1.1936  2.1241  1.3080
10646TIP3    H253354   5.162   2.599  12.857  1.0699  0.3566 -1.5314
10647TIP3   OH253355   3.499   0.376   3.206 -0.0120  0.0434  0.4773
10647TIP3    H153356   3.517   0.290   3.244 -3.2201 -0.0504  2.1131
10647TIP3    H253357   3.441   0.419   3.270  0.4553  2.9514 -0.8747
10648TIP3   OH253358   4.152   3.686   5.319  0.7679 -0.1005 -0.2584
10648TIP3    H153359   4.160   3.764   5.375 -2.8997  0.2543  0.0229
10648TIP3    H253360   4.186   3.614   5.373  1.3267  0.8521  0.6976
10649TIP3   OH253361   1.755   0.640  17.072 -0.7096 -0.0364  0.3351
10649TIP3    H153362   1.667   0.603  17.062 -0.7137  0.1756 -0.4782
10649TIP3    H253363   1.784   0.659  16.983  0.7244 -1.4134  0.4453
10650TIP3   OH253364   3.574   3.411   2.384 -0.6364  0.3232  0.3478
10650TIP3    H153365   3.597   3.354   2.311  0.1114 -0.6785  1.3332
10650TIP3    H253366   3.651   3.410   2.441 -1.6503  0.0554  1.7761
10651TIP3   OH253367   3.979   0.116  16.335  0.0907 -0.1002 -0.2304
10651TIP3    H153368   3.915   0.109  16.263  2.3321  0.5739 -2.4356
10651TIP3    H253369   4.062   0.131  16.291  1.9750 -1.8205  2.4646
10652TIP3   OH253370   3.068   4.385  14.687 -0.0528 -0.1920  0.4391
10652TIP3    H153371   3.117   4.328  14.627 -2.7279 -0.4479 -1.7067
10652TIP3    H253372   3.050   4.329  14.762  3.8985  0.3149  1.9869
10653TIP3   OH253373   6.080   1.197  13.953  0.3729  0.4617 -0.0903
10653TIP3    H153374   6.091   1.110  13.913  0.1620 -0.8029  2.4487
10653TIP3    H253375   6.156   1.246  13.922  0.5421 -0.6068 -1.5207
10654TIP3   OH253376   6.698   2.533   5.576 -0.5495 -0.4893 -0.1184
10654TIP3    H153377   6.644   2.534   5.496 -0.0872 -2.5197 -0.5169
10654TIP3    H253378   6.637   2.554   5.646 -1.2386  0.0712 -0.8578
10655TIP3   OH253379   1.756   3.709   3.788 -0.1241 -0.5632 -0.8117
10655TIP3    H153380   1.761   3.678   3.697  2.0987 -0.6993 -0.7101
10655TIP3    H253381   1.743   3.629   3.839  0.5991 -0.7398 -0.8921
10656TIP3   OH253382   1.554   0.569  13.372  0.3893 -0.3197 -0.4461
10656TIP3    H153383   1.469   0.527  13.384  0.9290 -1.3048  0.1371
10656TIP3    H253384   1.617   0.498  13.384  1.3156  0.5144 -0.2404
10657TIP3   OH253385   2.271   3.496   0.008  0.4968  0.4986  0.5104
10657TIP3    H153386   2.191   3.446  -0.003  0.5992  0.4363  0.0264
10657TIP3    H253387   2.338   3.430   0.025  0.3847  0.5759  1.2719
10658TIP3   OH253388   6.746   1.274   1.182  0.0235 -0.3389 -0.0559
10658TIP3    H153389   6.751   1.191   1.230 -1.1920  0.3217  1.3075
10658TIP3    H253390   6.758   1.250   1.091 -0.4762 -2.0509  0.2863
10659TIP3   OH253391   3.651   4.223  11.645 -0.3030  0.4304  0.4169
10659TIP3    H153392   3.666   4.309  11.686  0.2419  0.5712 -0.0595
10659TIP3    H253393   3.715   4.220  11.574 -1.7054  0.4983 -0.8896
10660TIP3   OH253394   4.359   4.962   4.352 -0.2041 -0.4222  0.5848
10660TIP3    H153395   4.379   5.055   4.350 -2.4248  0.1233 -0.3508
10660TIP3    H253396   4.336   4.944   4.443 -1.4390  0.4130  0.4731
10661TIP3   OH253397   2.066   3.244   1.028 -0.0348 -0.2888  0.3542
10661TIP3    H153398   2.013   3.220   1.104  0.5691 -2.1490  0.2302
10661TIP3    H253399   2.003   3.253   0.956 -0.4220 -0.1556  0.7069
10662TIP3   OH253400   2.427   0.406  14.968  0.9682  0.0482  0.2447
10662TIP3    H153401   2.377   0.338  14.923  0.6396 -0.6278  1.5494
10662TIP3    H253402   2.483   0.444  14.901 -0.3685 -0.0539 -0.9960
10663TIP3   OH253403   1.727   3.850   1.965 -1.1174 -0.1427 -0.0867
10663TIP3    H153404   1.671   3.914   1.920 -1.0863 -0.8282 -1.1514
10663TIP3    H253405   1.811   3.895   1.976 -1.1051  0.0197 -0.7975
10664TIP3   OH253406   4.465   2.514  13.945  0.5389 -0.5138 -0.2433
10664TIP3    H153407   4.403   2.570  13.899  0.4908  0.6672  1.1736
10664TIP3    H253408   4.414   2.437  13.970  0.0180 -0.2120 -0.3614
10665TIP3   OH253409   1.672   2.238   0.839 -0.1853  0.4637  0.2381
10665TIP3    H153410   1.679   2.143   0.828 -0.7969  0.2360  1.5541
10665TIP3    H253411   1.595   2.263   0.788 -1.7390 -0.2286  2.0879
10666TIP3   OH253412   1.963   2.665  12.634 -0.2782 -0.3275 -0.4231
10666TIP3    H153413   2.015   2.681  12.555 -2.0611 -1.3748 -1.8930
10666TIP3    H253414   1.969   2.571  12.647  1.3191  0.0159  1.7114
10667TIP3   OH253415   3.274   1.493  13.271 -0.2529  0.1093 -0.6490
10667TIP3    H153416   3.247   1.403  13.253  0.3690 -0.1163 -0.4646
10667TIP3    H253417   3.205   1.547  13.230 -2.3779 -0.4285  1.9478
10668TIP3   OH253418   4.020   3.101  14.196 -0.0139  0.1068  0.3040
10668TIP3    H153419   4.034   3.084  14.289 -0.9869 -1.0192  0.2774
10668TIP3    H253420   4.089   3.052  14.152 -1.3095 -1.8994  0.3467
10669TIP3   OH253421   4.254   3.729   4.649  0.4139 -0.4098  0.3816
10669TIP3    H153422   4.279   3.811   4.606 -1.2482 -0.8097 -1.5397
10669TIP3    H253423   4.303   3.662   4.602 -1.0475 -0.8054 -0.6695
10670TIP3   OH253424   1.778   2.141   4.702  0.6537  0.5551 -0.2263
10670TIP3    H153425   1.734   2.115   4.621  0.5709 -1.4550  0.4138
10670TIP3    H253426   1.706   2.157   4.763  0.7404 -0.1271  0.0647
10671TIP3   OH253427   6.708   3.732   3.422 -0.1196 -0.3570 -0.0499
10671TIP3    H153428   6.731   3.746   3.514  2.0777 -3.2214 -0.0078
10671TIP3    H253429   6.767   3.788   3.373 -0.3371  0.1464  0.2593
10672TIP3   OH253430   6.383   3.094  16.321  0.1543 -0.5407  0.2127
10672TIP3    H153431   6.391   3.080  16.416 -0.6908 -0.9839  0.2255
10672TIP3    H253432   6.290   3.081  16.303  0.6592 -2.8431 -1.0474
10673TIP3   OH253433   2.921   4.947  16.000 -0.0029  0.1707 -0.3560
10673TIP3    H153434   2.985   4.878  15.980 -0.4890 -0.7856  1.1957
10673TIP3    H253435   2.973   5.027  16.003  1.3611 -0.6902  1.7178
10674TIP3   OH253436   1.845   6.572  14.477  0.0932 -0.6076  0.5228
10674TIP3    H153437   1.847   6.563  14.381  1.4112 -1.6930  0.6266
10674TIP3    H253438   1.786   6.646  14.492 -1.0488 -1.1156 -1.0716
10675TIP3   OH253439   2.199   1.223  11.314 -0.1429  0.1943 -0.3092
10675TIP3    H153440   2.195   1.145  11.259 -1.5170  0.9425 -1.3419
10675TIP3    H253441   2.282   1.215  11.361  0.4403 -1.1469 -1.4802
10676TIP3   OH253442   5.582   4.723  11.704  0.3816  0.0388  0.0272
10676TIP3    H153443   5.520   4.724  11.777 -1.3568 -2.2735 -1.3181
10676TIP3    H253444   5.532   4.753  11.628  1.2242 -0.7637 -0.8766
10677TIP3   OH253445   4.898   0.156  10.444 -0.0321 -0.4908 -0.6345
10677TIP3    H153446   4.911   0.241  10.485 -0.3595 -0.3928 -0.7293
10677TIP3    H253447   4.980   0.110  10.458  0.0276 -0.2842 -0.2858
10678TIP3   OH253448   0.495   3.664   4.120  0.2753  0.9390 -0.1416
10678TIP3    H153449   0.429   3.632   4.182  0.0943  0.7474 -0.4316
10678TIP3    H253450   0.522   3.749   4.156 -0.7373  1.4120 -0.4547
10679TIP3   OH253451   2.383   5.482   2.994 -0.4223 -0.1523 -0.4927
10679TIP3    H153452   2.465   5.441   3.024 -0.4130 -0.3142 -0.7381
10679TIP3    H253453   2.358   5.431   2.917 -2.0400 -1.6768  0.9508
10680TIP3   OH253454   5.648   1.111   1.607  0.2246 -0.7235 -0.3127
10680TIP3    H153455   5.587   1.163   1.555  1.4016  1.3056  0.2504
10680TIP3    H253456   5.615   1.115   1.696  1.5671  1.1363  0.1605
10681TIP3   OH253457   6.130   0.741   3.509 -0.4604 -1.4260  0.0113
10681TIP3    H153458   6.074   0.810   3.473 -1.6450 -1.7874  1.0992
10681TIP3    H253459   6.169   0.699   3.432  2.3886  2.0517 -0.6884
10682TIP3   OH253460   0.480   1.563   2.424 -0.0537  0.4517 -0.5991
10682TIP3    H153461   0.548   1.629   2.436  0.4700  0.0113 -1.1325
10682TIP3    H253462   0.500   1.496   2.489 -0.7287  0.9117  0.1118
10683TIP3   OH253463   3.000   6.169  17.121 -0.4970 -0.4592  0.4057
10683TIP3    H153464   3.013   6.259  17.152  0.2729 -0.7533  0.9696
10683TIP3    H253465   2.953   6.180  17.038 -0.0954  0.4867  0.2805
10684TIP3   OH253466   3.739   6.078  11.617 -0.3608  0.1214 -0.1807
10684TIP3    H153467   3.684   6.016  11.664 -0.6421  0.0356 -0.6109
10684TIP3    H253468   3.761   6.033  11.535 -0.8188  0.7036 -0.6292
10685TIP3   OH253469   4.728   3.857   1.916 -0.2858  0.3966 -0.3366
10685TIP3    H153470   4.712   3.791   1.848  1.9793 -0.5762 -0.0464
10685TIP3    H253471   4.672   3.930   1.893 -1.4728 -0.8959 -1.7827
10686TIP3   OH253472   0.375   6.103   4.199  0.1111 -0.2062  0.0685
10686TIP3    H153473   0.362   6.056   4.281  0.5158  0.1012  0.3143
10686TIP3    H253474   0.345   6.192   4.217  0.9316  0.0668  0.1266
10687TIP3   OH253475   3.230   6.114  12.252  0.1293  0.5126 -0.3630
10687TIP3    H153476   3.253   6.198  12.213 -0.2781  0.6348 -0.3453
10687TIP3    H253477   3.210   6.134  12.343  3.2592 -0.0782  0.5849
10688TIP3   OH253478   2.998   0.021   1.756  0.5596 -0.1814 -0.3709
10688TIP3    H153479   3.054  -0.013   1.825 -0.6032 -2.5665 -0.5230
10688TIP3    H253480   3.013  -0.036   1.681  1.8478  2.3926 -2.2294
10689TIP3   OH253481   3.682   1.379   1.657  0.0447 -0.3616  0.1782
10689TIP3    H153482   3.629   1.403   1.733  1.6445 -2.3774  2.0718
10689TIP3    H253483   3.745   1.451   1.650 -0.1651 -0.1107  0.7461
10690TIP3   OH253484   3.789   3.287  16.853 -0.4905  0.1904  0.4188
10690TIP3    H153485   3.697   3.277  16.830  0.0419 -1.4286 -1.2558
10690TIP3    H253486   3.836   3.236  16.787  1.7560  2.5586  0.0185
10691TIP3   OH253487   1.915   3.171   2.323  0.2750 -0.2831  0.1463
10691TIP3    H153488   1.915   3.158   2.229 -0.8142 -1.8030  0.3261
10691TIP3    H253489   2.007   3.160   2.349  0.2644 -2.1368 -0.4710
10692TIP3   OH253490   1.996   4.333  14.849  0.1049  0.3478  0.3985
10692TIP3    H153491   2.000   4.267  14.780 -0.9464  0.3395  0.3295
10692TIP3    H253492   2.084   4.334  14.886  0.9044  0.8934 -1.4226
10693TIP3   OH253493   5.438   0.944  13.323 -0.6524 -0.0413 -0.0126
10693TIP3    H153494   5.374   0.894  13.372 -1.3304  0.6651 -0.1551
10693TIP3    H253495   5.400   0.955  13.236 -0.7709  1.1701  0.1771
10694TIP3   OH253496   5.695   3.685  14.983  0.2756  0.7552 -0.1440
10694TIP3    H153497   5.640   3.763  14.971 -1.4531  0.0443  2.3106
10694TIP3    H253498   5.633   3.614  14.999  1.8712 -0.7260 -0.2352
10695TIP3   OH253499   1.065   4.391   6.501 -0.1306 -0.2348  0.4097
10695TIP3    H153500   1.006   4.343   6.442  0.3657 -0.8698  0.4312
10695TIP3    H253501   1.116   4.323   6.545  0.9586  0.3238  0.0414
10696TIP3   OH253502   0.719   1.316   0.969 -0.5340  0.0979 -0.7001
10696TIP3    H153503   0.721   1.383   0.900  0.7432 -2.7559 -3.7025
10696TIP3    H253504   0.811   1.294   0.983 -0.6002  1.5845  3.1918
10697TIP3   OH253505   5.223   5.922   2.362 -0.0813  0.2768  0.6730
10697TIP3    H153506   5.205   5.829   2.374  2.0390 -0.7025 -2.2430
10697TIP3    H253507   5.142   5.959   2.328 -0.4057 -0.9966  0.0170
10698TIP3   OH253508   6.378   1.994   3.819 -0.2886  0.3374  0.0001
10698TIP3    H153509   6.297   1.967   3.776 -0.0899 -1.0465  0.4244
10698TIP3    H253510   6.443   1.930   3.790  0.8261  1.8041 -0.8403
10699TIP3   OH253511   0.259   4.767  13.447  0.0875  0.0466 -0.4448
10699TIP3    H153512   0.332   4.758  13.387 -1.0113 -0.2591 -1.7901
10699TIP3    H253513   0.248   4.861  13.459 -0.6633  0.1996 -2.0316
10700TIP3   OH253514   1.822   0.892   3.931  0.2633  0.3361  0.5173
10700TIP3    H153515   1.806   0.800   3.908 -0.4439  0.4036  0.7313
10700TIP3    H253516   1.777   0.942   3.862  1.6990  0.5367 -0.3207
10701TIP3   OH253517   1.976   4.177   2.550 -0.6915 -0.0437 -0.1018
10701TIP3    H153518   2.037   4.182   2.624 -1.0498 -1.7263  0.3497
10701TIP3    H253519   2.015   4.113   2.491  0.3678  2.3666 -2.1873
10702TIP3   OH253520   0.956   5.969   2.239 -0.6400 -0.5593 -0.2065
10702TIP3    H153521   0.953   6.024   2.161  1.7001  0.1322  0.1017
10702TIP3    H253522   0.890   6.007   2.298  1.2618  2.4592  0.2417
10703TIP3   OH253523   6.675   4.184  12.665  0.0166 -0.1448  0.4191
10703TIP3    H153524   6.679   4.258  12.725  0.9013 -0.4049  0.6932
10703TIP3    H253525   6.762   4.180  12.626 -0.4871 -0.0913 -0.7624
10704TIP3   OH253526   0.083   0.607  14.461  0.0537 -0.3751  0.2372
10704TIP3    H153527   0.033   0.638  14.385 -0.0579 -0.6110  0.2125
10704TIP3    H253528   0.061   0.514  14.468  1.0574 -0.6557 -0.2154
10705TIP3   OH253529   3.809   2.931  15.756 -0.0414 -0.5333 -0.1991
10705TIP3    H153530   3.784   2.962  15.843  0.2643 -0.6214 -0.0776
10705TIP3    H253531   3.726   2.910  15.713 -0.1956 -0.4578  0.0581
10706TIP3   OH253532   2.857   5.181   1.766  0.5049  0.1546 -0.2899
10706TIP3    H153533   2.789   5.248   1.773 -0.1301 -0.2079 -2.2220
10706TIP3    H253534   2.834   5.133   1.686  2.3805 -0.7343 -0.3411
10707TIP3   OH253535   2.637   0.201   4.023 -0.3898  0.1479 -0.3404
10707TIP3    H153536   2.656   0.263   4.094  0.4628 -1.4704  0.9059
10707TIP3    H253537   2.541   0.198   4.019 -0.4497  1.1119 -0.0694
10708TIP3   OH253538   0.127   2.619  15.099 -0.5830  0.2555 -0.7652
10708TIP3    H153539   0.121   2.714  15.113 -2.5117 -0.2021  2.7499
10708TIP3    H253540   0.039   2.595  15.068 -0.1961 -0.4427 -1.3400
10709TIP3   OH253541   1.788   5.688   4.610 -0.2372  0.0286  0.6708
10709TIP3    H153542   1.783   5.754   4.679 -0.4805  1.3254 -0.5368
10709TIP3    H253543   1.835   5.732   4.538 -0.3786 -1.1227 -0.1549
10710TIP3   OH253544   6.290   0.528  14.579 -0.0330  0.0188  0.1181
10710TIP3    H153545   6.369   0.560  14.535  0.4887 -1.5346 -0.1508
10710TIP3    H253546   6.270   0.595  14.645  0.0190  1.6792 -1.4601
10711TIP3   OH253547   3.060   1.960   2.218 -0.2880  0.1408  0.2155
10711TIP3    H153548   3.036   1.898   2.287  0.7100 -0.9664 -0.4002
10711TIP3    H253549   2.980   2.011   2.203 -0.9241 -0.5207  1.2264
10712TIP3   OH253550   6.743   1.314   0.209  0.7560 -0.5433 -0.0199
10712TIP3    H153551   6.672   1.262   0.248  0.0608  1.2560  1.2616
10712TIP3    H253552   6.752   1.279   0.120 -1.6191 -0.9747 -0.1654
10713TIP3   OH253553   0.231   0.537  10.684  0.3702  0.0920 -0.3822
10713TIP3    H153554   0.224   0.578  10.597  0.0917  0.0483 -0.3795
10713TIP3    H253555   0.320   0.502  10.686  0.5280  0.4756 -0.4814
10714TIP3   OH253556   1.901   2.905  16.949 -0.0091  0.1399  0.0209
10714TIP3    H153557   1.920   2.821  16.991 -0.3077 -0.3913 -0.8826
10714TIP3    H253558   1.972   2.963  16.978  0.8838 -0.7663 -0.3171
10715TIP3   OH253559   0.119   6.531  13.717 -0.4847  0.4050  0.2460
10715TIP3    H153560   0.101   6.466  13.649 -0.1011 -0.1438  0.6570
10715TIP3    H253561   0.152   6.608  13.669  2.0195 -0.7617 -0.0834
10716TIP3   OH253562   4.750   2.972  15.645  0.2094 -0.1840  0.1917
10716TIP3    H153563   4.740   2.911  15.571 -0.6691  0.1925 -0.0170
10716TIP3    H253564   4.733   2.919  15.722 -2.6803  0.1835 -0.0885
10717TIP3   OH253565   1.516   6.682   6.808 -0.6514 -0.3465  0.0875
10717TIP3    H153566   1.549   6.623   6.739 -0.1897 -0.7454  0.6346
10717TIP3    H253567   1.422   6.663   6.812 -0.7535 -0.0320 -0.7032
10718TIP3   OH253568   6.332   1.015  12.474  0.7484 -0.6471 -0.2819
10718TIP3    H153569   6.280   1.094  12.465 -1.6264 -2.1999 -1.2700
10718TIP3    H253570   6.366   0.998  12.386  4.1435  0.9547  0.5282
10719TIP3   OH253571   2.951   5.804  14.391  0.3103  0.2311 -0.3171
10719TIP3    H153572   2.862   5.813  14.426  0.7599  0.4569  0.8351
10719TIP3    H253573   2.945   5.834  14.301 -1.4644 -2.7918 -1.3623
10720TIP3   OH253574   5.843   3.424   2.061  0.0621  0.4628 -0.4820
10720TIP3    H153575   5.927   3.419   2.015 -0.6115  0.6263 -1.7877
10720TIP3    H253576   5.824   3.334   2.085  1.4832  0.6407  1.5231
10721TIP3   OH253577   0.478   0.135   4.196  0.2256 -0.3558  0.0952
10721TIP3    H153578   0.539   0.117   4.125  0.1407 -0.7937  0.1342
10721TIP3    H253579   0.475   0.231   4.201 -2.1201 -0.1727 -2.5261
10722TIP3   OH253580   0.943   5.483  12.026  0.0988 -0.0448  0.0554
10722TIP3    H153581   0.940   5.397  11.983 -0.6110  0.0895 -0.1765
10722TIP3    H253582   0.923   5.545  11.956  0.4123  0.2978  0.2655
10723TIP3   OH253583   5.430   4.890  15.718  0.3122  0.5211  0.0043
10723TIP3    H153584   5.496   4.921  15.780  1.8552 -2.9766  0.3511
10723TIP3    H253585   5.374   4.832  15.769  0.7131 -1.2814 -1.4834
10724TIP3   OH253586   3.795   3.415   1.277 -0.2887 -0.1823  0.3094
10724TIP3    H153587   3.735   3.488   1.259  0.4849  0.6075  0.7955
10724TIP3    H253588   3.854   3.450   1.344 -0.5330 -1.6207  1.3225
10725TIP3   OH253589   2.710   4.958  10.798 -0.6140  0.3509  0.6334
10725TIP3    H153590   2.668   4.964  10.884 -0.0799 -2.5078  1.2069
10725TIP3    H253591   2.644   4.989  10.737 -2.3546 -0.8423  1.8122
10726TIP3   OH253592   4.142   0.511  15.852  0.4351 -0.0144 -0.1157
10726TIP3    H153593   4.169   0.446  15.788  0.6156 -1.0422  0.9551
10726TIP3    H253594   4.054   0.536  15.826  0.0186 -1.3467 -0.0892
10727TIP3   OH253595   6.240   4.580   1.388  0.4296 -0.6754  0.2997
10727TIP3    H153596   6.217   4.665   1.425 -0.5381 -0.3644 -0.9135
10727TIP3    H253597   6.320   4.555   1.432  1.8208  1.7602 -0.6406
10728TIP3   OH253598   6.681   3.810   1.914 -0.0152  0.3818 -0.2814
10728TIP3    H153599   6.656   3.865   1.988  0.9965  0.1779  0.2188
10728TIP3    H253600   6.772   3.786   1.931 -0.4882 -1.6374 -0.3562
10729TIP3   OH253601   3.027   1.271  11.929 -0.6571  0.4723  0.4390
10729TIP3    H153602   3.050   1.182  11.901 -1.1617  0.1818  0.9387
10729TIP3    H253603   2.993   1.312  11.849  1.2441  0.8307 -0.2622
10730TIP3   OH253604   0.438   4.729   5.248  0.3851  0.1704  0.2690
10730TIP3    H153605   0.441   4.634   5.235  1.2235  0.3475 -1.0645
10730TIP3    H253606   0.351   4.745   5.284 -0.2646 -0.9801 -0.6880
10731TIP3   OH253607   0.403   2.394  12.185  0.2152  0.1963 -0.4152
10731TIP3    H153608   0.449   2.471  12.218  1.4879 -1.2318  1.3451
10731TIP3    H253609   0.461   2.359  12.117  1.4032 -1.1045  1.1931
10732TIP3   OH253610   6.551   6.341  14.387 -0.2771 -0.4253 -0.0152
10732TIP3    H153611   6.464   6.303  14.378 -1.3132  1.2668  2.0181
10732TIP3    H253612   6.590   6.296  14.462 -0.5052  0.6179  0.7683
10733TIP3   OH253613   6.224   6.572  13.853  0.9235  0.3444 -0.6795
10733TIP3    H153614   6.140   6.587  13.896  0.0914 -1.2401 -1.6808
10733TIP3    H253615   6.244   6.655  13.810 -1.2698  0.1008 -2.3259
10734TIP3   OH253616   2.289   2.637  14.636  0.1520 -0.8942  0.9665
10734TIP3    H153617   2.221   2.672  14.578 -2.4992 -1.8357  3.2815
10734TIP3    H253618   2.370   2.645  14.585 -1.6699  0.0504 -2.0689
10735TIP3   OH253619   5.943   5.693  14.392 -0.4889 -0.8758  0.1525
10735TIP3    H153620   6.037   5.701  14.409 -0.5289 -1.7882  0.8925
10735TIP3    H253621   5.935   5.694  14.296  0.1231  0.6111  0.0960
10736TIP3   OH253622   6.475   6.301  16.670  0.5614 -0.3552  0.7431
10736TIP3    H153623   6.545   6.357  16.703  1.0512 -1.3413  1.3943
10736TIP3    H253624   6.483   6.219  16.719 -0.6584 -0.7150  0.3931
10737TIP3   OH253625   5.635   1.590   1.574  0.4385  0.5347 -0.1072
10737TIP3    H153626   5.621   1.647   1.499 -0.2012 -0.8773 -1.1150
10737TIP3    H253627   5.722   1.553   1.561  0.0034 -0.3411 -0.6202
10738TIP3   OH253628   3.635   2.366   3.349  0.3219 -0.2212 -0.2172
10738TIP3    H153629   3.572   2.320   3.404 -2.0872 -0.4405 -2.8741
10738TIP3    H253630   3.647   2.451   3.392  2.0975 -1.8769  2.8870
10739TIP3   OH253631   4.370   3.843   4.179  0.3598  0.4269 -0.8594
10739TIP3    H153632   4.287   3.801   4.203 -0.3270  1.3364 -1.5397
10739TIP3    H253633   4.379   3.915   4.240  1.6547 -0.7962  0.4568
10740TIP3   OH253634   1.283   2.958   6.269 -0.4715 -0.0422 -0.2710
10740TIP3    H153635   1.355   2.896   6.276 -0.4073 -0.1960 -1.9279
10740TIP3    H253636   1.326   3.044   6.273 -0.3275 -0.1188 -0.1384
10741TIP3   OH253637   4.705   4.603  15.399 -0.0949  0.0140  1.0576
10741TIP3    H153638   4.621   4.578  15.360 -0.7936 -0.0160  2.5227
10741TIP3    H253639   4.687   4.611  15.493  1.7818 -1.0340  1.5663
10742TIP3   OH253640   0.706   4.039   2.014  0.2699  0.0609  0.1569
10742TIP3    H153641   0.644   3.974   1.981  1.6584 -2.4197  2.1063
10742TIP3    H253642   0.660   4.080   2.088  0.5688 -1.1193  1.0195
10743TIP3   OH253643   0.659   4.270   4.671 -0.0797  0.0173 -0.5251
10743TIP3    H153644   0.716   4.346   4.677 -0.4297  0.3019 -0.7671
10743TIP3    H253645   0.583   4.300   4.621 -1.0055 -0.0187  0.8061
10744TIP3   OH253646   4.150   2.645   0.310  0.1093  0.3827  0.1795
10744TIP3    H153647   4.209   2.577   0.344 -1.5185 -0.8018  0.7916
10744TIP3    H253648   4.140   2.705   0.384 -1.2977 -0.7327  0.9564
10745TIP3   OH253649   6.556   3.954  14.642 -0.1250  0.0909 -0.6127
10745TIP3    H153650   6.617   3.881  14.635 -0.1194  0.0899 -0.5515
10745TIP3    H253651   6.594   4.012  14.707  0.3298  0.5988 -1.3124
10746TIP3   OH253652   3.024   2.921   2.351 -0.1662 -0.5864  0.2895
10746TIP3    H153653   3.016   3.009   2.315  1.0211 -1.5600 -2.6994
10746TIP3    H253654   2.936   2.885   2.346 -0.7773  0.5416  2.0643
10747TIP3   OH253655   5.415   6.254   5.866 -0.6154  0.3265 -0.0355
10747TIP3    H153656   5.331   6.214   5.842  0.8284 -1.9673 -1.6232
10747TIP3    H253657   5.462   6.185   5.914  0.1257  1.8230  1.4937
10748TIP3   OH253658   0.673   3.998   1.175 -0.7631 -0.1692 -0.0897
10748TIP3    H153659   0.666   3.909   1.211 -1.6179 -0.9911 -2.1443
10748TIP3    H253660   0.586   4.017   1.140 -0.5555  1.4636  0.2011
10749TIP3   OH253661   3.509   1.829   5.825 -0.2780  0.1889 -0.5160
10749TIP3    H153662   3.587   1.836   5.770 -0.0219  0.7411 -0.0903
10749TIP3    H253663   3.540   1.851   5.913 -0.4094 -1.8609  0.1075
10750TIP3   OH253664   1.967   0.752   1.179 -0.0697  0.1498  0.5938
10750TIP3    H153665   1.912   0.725   1.106  0.4650  0.2697  0.1405
10750TIP3    H253666   2.056   0.744   1.146  0.2567 -1.1949  1.7023
10751TIP3   OH253667   5.697   5.101   4.141 -0.4432 -0.0879  0.1377
10751TIP3    H153668   5.686   5.193   4.120 -0.2092  0.0831  0.7400
10751TIP3    H253669   5.744   5.101   4.225 -0.6888 -0.7470  0.2835
10752TIP3   OH253670   1.298   4.197  14.391  0.9897 -0.0624  0.4208
10752TIP3    H153671   1.343   4.124  14.432  0.2085 -0.3832  0.7271
10752TIP3    H253672   1.313   4.271  14.450  1.0152 -0.1956  0.5821
10753TIP3   OH253673   0.611   2.282   4.127  0.3894 -0.5554  0.0584
10753TIP3    H153674   0.690   2.258   4.078  0.2151  2.0127 -1.6576
10753TIP3    H253675   0.539   2.245   4.076  0.3541 -1.6914  0.8749
10754TIP3   OH253676   2.419   1.527  13.456 -0.4388  0.0238  0.0155
10754TIP3    H153677   2.478   1.596  13.487  0.2859 -1.4292  2.1203
10754TIP3    H253678   2.367   1.569  13.387  2.0247  1.7766 -0.9145
10755TIP3   OH253679   1.207   5.676   2.085 -0.4353  0.0372  0.1522
10755TIP3    H153680   1.264   5.647   2.156  1.4790  3.8928  0.4440
10755TIP3    H253681   1.252   5.647   2.005  1.6106  2.1426  0.4181
10756TIP3   OH253682   5.658   6.477  12.222 -0.1584 -0.0887  0.7366
10756TIP3    H153683   5.667   6.388  12.189 -1.2861  0.0658 -0.0227
10756TIP3    H253684   5.652   6.532  12.144 -1.4067  0.4443  1.1816
10757TIP3   OH253685   6.655   1.357  12.136 -0.0334  0.4915 -0.3945
10757TIP3    H153686   6.677   1.307  12.215  2.0371 -0.8186 -1.7089
10757TIP3    H253687   6.573   1.318  12.105  0.0834 -0.1967  0.1328
10758TIP3   OH253688   6.653   2.518   4.956 -0.3524  0.6240  0.4049
10758TIP3    H153689   6.611   2.496   4.873 -0.1564  1.2379  0.1418
10758TIP3    H253690   6.612   2.459   5.019  1.0723 -1.4809 -0.4975
10759TIP3   OH253691   3.162   2.096  14.541 -0.0896  0.3052 -0.1717
10759TIP3    H153692   3.169   2.106  14.636 -0.7965 -1.8241  0.1582
10759TIP3    H253693   3.198   2.178  14.505  0.2217  1.1346  1.9074
10760TIP3   OH253694   4.122   4.736  13.468 -0.0081 -0.4359 -0.6107
10760TIP3    H153695   4.147   4.792  13.395 -0.7695 -0.4860 -0.9196
10760TIP3    H253696   4.158   4.781  13.545 -2.6329  1.8447 -0.5534
10761TIP3   OH253697   4.619   1.657   3.005  0.3410  0.0488  0.5043
10761TIP3    H153698   4.552   1.668   3.072 -1.0354 -0.7762 -0.6704
10761TIP3    H253699   4.571   1.669   2.922  1.7203 -0.2371 -0.3594
10762TIP3   OH253700   2.948   1.113  13.515 -0.8246 -0.3836  0.1519
10762TIP3    H153701   2.893   1.115  13.594  0.4797  0.4434  1.0858
10762TIP3    H253702   3.013   1.182  13.530  0.0836 -0.9142 -1.1930
10763TIP3   OH253703   3.865   4.280   2.656 -0.1978 -0.0154  0.0742
10763TIP3    H153704   3.805   4.233   2.599 -1.2731  1.1216  0.2259
10763TIP3    H253705   3.856   4.372   2.631  0.2732  0.3566  1.1922
10764TIP3   OH253706   4.208   4.790  15.227 -0.5019  0.6012  0.5132
10764TIP3    H153707   4.261   4.836  15.292  0.9297  0.0329 -0.2022
10764TIP3    H253708   4.137   4.850  15.206  0.5167  1.8932  0.6406
10765TIP3   OH253709   5.713   2.109   2.845 -0.2589  0.1644 -0.1369
10765TIP3    H153710   5.683   2.176   2.784  0.4026  0.6447  0.0521
10765TIP3    H253711   5.806   2.128   2.857  0.3275 -1.6860 -1.2560
10766TIP3   OH253712   2.400   1.642  13.888  0.3324 -0.3728 -0.1934
10766TIP3    H153713   2.427   1.673  13.974  0.9896  1.6653 -1.0707
10766TIP3    H253714   2.449   1.560  13.876 -0.2706 -1.0286  1.6006
10767TIP3   OH253715   2.260   3.940   1.269  0.0855 -0.4209  0.4102
10767TIP3    H153716   2.259   3.929   1.364  1.7796  1.2122  0.6669
10767TIP3    H253717   2.344   3.982   1.251 -1.1452  1.3549 -1.5675
10768TIP3   OH253718   4.071   4.235  12.201 -0.2121  0.2063  0.1305
10768TIP3    H153719   4.138   4.173  12.174 -0.6070 -0.1703  0.0066
10768TIP3    H253720   3.988   4.187  12.192 -0.5107  0.7064  0.1520
10769TIP3   OH253721   5.257   3.887  15.895  0.7966  0.2679  0.4996
10769TIP3    H153722   5.256   3.917  15.986 -0.1617  0.2734  0.5002
10769TIP3    H253723   5.233   3.965  15.845 -0.2872 -0.1262  0.3835
10770TIP3   OH253724   5.366   2.886   4.917 -0.0926 -0.5343  0.0699
10770TIP3    H153725   5.358   2.981   4.928 -1.9925 -0.5502 -0.6662
10770TIP3    H253726   5.447   2.863   4.961  1.1678  1.6244 -0.9793
10771TIP3   OH253727   4.867   1.613  14.630  0.1455 -0.0752  0.0413
10771TIP3    H153728   4.790   1.594  14.684  0.7539 -1.8874  0.3291
10771TIP3    H253729   4.850   1.700  14.594 -1.0735  0.4532  1.7696
10772TIP3   OH253730   0.037   3.837   1.386  0.0759 -0.8352 -0.2942
10772TIP3    H153731   0.031   3.929   1.413  1.3636 -0.8753  0.2087
10772TIP3    H253732   0.104   3.800   1.444  0.3247 -1.8261 -1.1847
10773TIP3   OH253733   4.641   6.209   5.115  0.8965 -0.6743 -0.0475
10773TIP3    H153734   4.615   6.117   5.108 -1.2883 -0.1053 -0.1726
10773TIP3    H253735   4.662   6.221   5.207 -1.8790 -0.6442  0.6884
10774TIP3   OH253736   3.176   1.751  11.294 -0.2222 -0.0601 -0.5249
10774TIP3    H153737   3.173   1.847  11.285 -1.0572 -0.1700 -1.7831
10774TIP3    H253738   3.156   1.719  11.206 -1.3218 -1.3915  0.1736
10775TIP3   OH253739   2.942   0.002  12.764  0.1565 -1.4250  0.5163
10775TIP3    H153740   3.006   0.029  12.698  0.3058  1.9095  1.8400
10775TIP3    H253741   2.991  -0.054  12.824  1.0551 -1.2563 -0.0498
10776TIP3   OH253742   0.888   0.846  11.864 -0.1177  0.3391 -0.0446
10776TIP3    H153743   0.848   0.905  11.800 -0.1809  1.7257  1.2183
10776TIP3    H253744   0.963   0.894  11.897 -0.8080  0.2091  1.8237
10777TIP3   OH253745   3.288   1.837  15.193  0.3078 -0.2787  0.5909
10777TIP3    H153746   3.339   1.757  15.179  0.8694  0.1763 -0.0493
10777TIP3    H253747   3.203   1.820  15.153  0.0692 -0.9130  1.3412
10778TIP3   OH253748   1.616   5.332   0.033  0.4696  0.1871  0.6897
10778TIP3    H153749   1.560   5.381  -0.028 -1.6644 -1.0453  1.5413
10778TIP3    H253750   1.682   5.291  -0.023 -0.7170  0.0554 -0.6701
10779TIP3   OH253751   0.366   5.743  16.114  0.2548 -0.1178  0.4501
10779TIP3    H153752   0.277   5.739  16.082  0.2486 -0.1716  0.4731
10779TIP3    H253753   0.415   5.680  16.060  0.5220  0.7384 -0.3306
10780TIP3   OH253754   5.101   1.684   2.640 -0.9703  0.1409 -0.0999
10780TIP3    H153755   5.115   1.595   2.607 -0.3605  0.3118 -0.3103
10780TIP3    H253756   5.138   1.741   2.573 -1.0887  0.5473  0.1767
10781TIP3   OH253757   6.316   6.210   5.358  0.2273 -0.0339  0.5818
10781TIP3    H153758   6.233   6.223   5.311  1.6765  1.5922 -1.7342
10781TIP3    H253759   6.326   6.289   5.410  1.0779  0.5927 -0.4837
10782TIP3   OH253760   0.148   4.511  17.012 -0.2437 -0.2181 -0.4810
10782TIP3    H153761   0.089   4.511  17.087  1.0085  0.3879  0.5480
10782TIP3    H253762   0.225   4.462  17.042  0.0408 -0.4779 -1.5760
10783TIP3   OH253763   4.397   0.177   1.131  0.1599 -0.4280 -0.3515
10783TIP3    H153764   4.312   0.146   1.100  0.3802 -0.9634 -0.4479
10783TIP3    H253765   4.377   0.251   1.187 -0.3020  0.0658 -1.1535
10784TIP3   OH253766   0.248   2.246   2.972 -0.2650  0.1573  0.5051
10784TIP3    H153767   0.337   2.278   2.987 -0.2401 -0.4166  1.6816
10784TIP3    H253768   0.202   2.321   2.933  0.5379  0.6922  0.5604
10785TIP3   OH253769   2.135   1.849  15.212  0.1772 -0.5487  0.3943
10785TIP3    H153770   2.056   1.805  15.243  1.0329 -1.6895  1.0737
10785TIP3    H253771   2.148   1.921  15.273 -0.9688  0.4058 -0.4330
10786TIP3   OH253772   4.243   1.925   3.438 -0.1235  0.2837  0.0767
10786TIP3    H153773   4.193   1.988   3.490  1.2624  0.9138  0.6902
10786TIP3    H253774   4.315   1.976   3.401  0.4169 -0.7248 -0.2891
10787TIP3   OH253775   1.118   2.482   2.350 -0.7704 -0.6384  0.9590
10787TIP3    H153776   1.176   2.406   2.349  1.2023  0.7911  0.4391
10787TIP3    H253777   1.084   2.488   2.261 -0.7982 -0.8171  0.9578
10788TIP3   OH253778   2.062   4.005   2.346  0.0457 -0.3121  0.0333
10788TIP3    H153779   2.108   4.073   2.297  0.0988  0.1844  0.7575
10788TIP3    H253780   2.127   3.937   2.361 -0.1472 -0.7884 -1.1653
10789TIP3   OH253781   5.457   2.061   5.708  0.6627  0.2980  0.3878
10789TIP3    H153782   5.386   2.101   5.757 -1.0792 -2.0070 -0.0968
10789TIP3    H253783   5.535   2.110   5.734 -0.9168  2.2750  1.6855
10790TIP3   OH253784   1.571   4.788  17.018  0.5394 -0.0852  0.0554
10790TIP3    H153785   1.641   4.844  17.053  1.6973 -1.6294  0.3133
10790TIP3    H253786   1.614   4.737  16.949 -0.6994 -0.0950 -0.7341
10791TIP3   OH253787   0.620   1.363  12.194 -0.2912  0.2049 -0.3815
10791TIP3    H153788   0.644   1.330  12.107  0.0312  0.2089 -0.2945
10791TIP3    H253789   0.597   1.455  12.180 -0.4288  0.1543 -0.4940
10792TIP3   OH253790   4.879   5.531  14.959  0.5033  0.0216  0.3402
10792TIP3    H153791   4.852   5.569  14.875  1.5778  2.1770  0.8785
10792TIP3    H253792   4.807   5.551  15.019  1.1475  1.5336  0.6697
10793TIP3   OH253793   1.342   6.734   5.987  0.7406 -0.7133 -0.5853
10793TIP3    H153794   1.281   6.665   6.012  2.0183 -0.9441  2.2698
10793TIP3    H253795   1.353   6.787   6.066  1.3579  1.5930 -2.1065
10794TIP3   OH253796   0.320   0.293   5.416  0.0356 -0.1556  0.2509
10794TIP3    H153797   0.300   0.199   5.411 -1.5518  0.1275  0.7946
10794TIP3    H253798   0.258   0.328   5.479 -0.0573  1.4510 -0.6734
10795TIP3   OH253799   3.227   3.303  15.499  0.1074 -0.1681  0.1590
10795TIP3    H153800   3.295   3.276  15.437 -0.4613 -0.0438 -0.5298
10795TIP3    H253801   3.150   3.321  15.444 -0.9186 -1.6438  1.0234
10796TIP3   OH253802   4.600   4.997   6.341 -0.4448 -0.2214  0.1293
10796TIP3    H153803   4.521   4.946   6.358  0.1144 -1.2335 -0.2097
10796TIP3    H253804   4.569   5.086   6.326 -1.2826  0.0706  2.9374
10797TIP3   OH253805   2.406   0.595   4.181 -0.2988  0.3553  0.4496
10797TIP3    H153806   2.405   0.515   4.234 -1.2588 -0.8648 -1.2855
10797TIP3    H253807   2.342   0.652   4.223  1.3827  0.8427  2.5153
10798TIP3   OH253808   4.658   5.403   6.003  0.1601 -0.3017  0.0068
10798TIP3    H153809   4.709   5.476   5.967 -0.4976  1.1469  1.8434
10798TIP3    H253810   4.572   5.411   5.962  0.0813 -0.0215  0.2250
10799TIP3   OH253811   4.048   6.007  11.260 -0.1014  0.2218 -0.5234
10799TIP3    H153812   4.103   5.956  11.200  0.6749  0.3511  0.0641
10799TIP3    H253813   4.019   6.082  11.208  0.4458  0.2583 -0.7845
10800TIP3   OH253814   3.196   6.168   1.143  0.4505  0.1221  0.5517
10800TIP3    H153815   3.122   6.110   1.127 -0.3878  1.0218  1.0219
10800TIP3    H253816   3.267   6.132   1.091  0.1401 -1.6552  1.3057
10801TIP3   OH253817   6.253   3.678  11.321 -0.0790  0.2275 -0.1192
10801TIP3    H153818   6.208   3.628  11.389  0.2867  0.5189  0.3394
10801TIP3    H253819   6.312   3.736  11.368  0.3488  0.2713 -0.6926
10802TIP3   OH253820   0.346   1.713  17.240 -0.4860  0.6951 -0.2025
10802TIP3    H153821   0.318   1.780  17.302  0.4004  0.0923  0.8811
10802TIP3    H253822   0.442   1.719  17.240 -0.3934 -0.5450 -0.1008
10803TIP3   OH253823   0.920   1.890  11.656  0.2345 -0.1975 -0.5070
10803TIP3    H153824   0.962   1.887  11.742 -1.3571 -2.7638  0.2896
10803TIP3    H253825   0.828   1.908  11.675  0.0644  0.3751 -1.7924
10804TIP3   OH253826   2.780   0.154   4.852 -0.6266 -0.2000  0.6966
10804TIP3    H153827   2.732   0.176   4.773  0.6480 -1.0215 -0.3625
10804TIP3    H253828   2.807   0.063   4.839  4.8757  1.2433 -0.9169
10805TIP3   OH253829   0.462   3.426  11.676 -0.1577  0.4460  0.6780
10805TIP3    H153830   0.405   3.496  11.645 -0.8199  0.6081  2.1554
10805TIP3    H253831   0.434   3.349  11.628 -0.8006  0.7854  0.4983
10806TIP3   OH253832   5.275   4.959  16.401  0.6492  0.6359  0.0455
10806TIP3    H153833   5.251   4.983  16.311  1.3719  0.2619 -0.2629
10806TIP3    H253834   5.208   4.896  16.427  0.1868  1.0737 -0.0674
10807TIP3   OH253835   5.844   4.348   4.833  0.0324 -0.5008  0.7273
10807TIP3    H153836   5.821   4.260   4.862 -2.0925 -0.1717  0.2139
10807TIP3    H253837   5.790   4.406   4.886 -0.7536  0.3148 -0.8854
10808TIP3   OH253838   3.107   6.673  16.856  0.4117 -0.0778  0.2918
10808TIP3    H153839   3.192   6.631  16.839  0.3671 -0.0591  0.0107
10808TIP3    H253840   3.129   6.759  16.891  0.5033 -0.4837  1.2532
10809TIP3   OH253841   2.830   3.038   1.139 -0.6986  0.1474  0.3065
10809TIP3    H153842   2.880   2.983   1.200 -1.9838 -0.6603  0.6710
10809TIP3    H253843   2.791   3.106   1.194 -1.4629 -0.2941  0.3185
10810TIP3   OH253844   4.627   4.737  13.406  0.0971 -0.0607  0.1293
10810TIP3    H153845   4.544   4.714  13.449 -0.3950 -0.0822 -0.8119
10810TIP3    H253846   4.636   4.674  13.335 -0.7512  1.8931 -1.8429
10811TIP3   OH253847   0.403   3.043   3.570  0.9267 -0.2645  0.3129
10811TIP3    H153848   0.422   2.957   3.608  0.7910 -0.4081  0.0570
10811TIP3    H253849   0.412   3.103   3.643 -1.7259 -0.8182  1.1901
10812TIP3   OH253850   2.930   2.615  12.303 -0.1221  0.2697  0.3791
10812TIP3    H153851   2.922   2.650  12.215  0.7999 -0.3381  0.0375
10812TIP3    H253852   2.930   2.691  12.360  1.1372  0.7939 -0.2868
10813TIP3   OH253853   3.259   3.034  12.714 -0.0582  0.0967 -0.1741
10813TIP3    H153854   3.280   3.101  12.779 -1.8101  1.2388 -0.7154
10813TIP3    H253855   3.165   3.045  12.697 -0.3242 -2.2767 -0.5572
10814TIP3   OH253856   3.072   5.351  14.424  0.2360  0.4115  0.7113
10814TIP3    H153857   3.094   5.444  14.432  1.4202  0.4251 -1.6797
10814TIP3    H253858   3.003   5.348  14.358 -0.3601 -0.3685  1.3489
10815TIP3   OH253859   2.969   4.766   4.712 -0.2950  0.6398  0.2346
10815TIP3    H153860   2.886   4.733   4.678  0.1840  1.4729 -1.9005
10815TIP3    H253861   3.023   4.688   4.723 -0.5563  0.3052 -0.7363
10816TIP3   OH253862   5.782   5.696   2.417  0.0708  0.0590 -0.4983
10816TIP3    H153863   5.783   5.693   2.513  0.3644  0.1478 -0.4956
10816TIP3    H253864   5.706   5.644   2.392 -0.1811  0.2859 -0.2075
10817TIP3   OH253865   5.828   3.413  13.390  0.3089  0.1646  0.2035
10817TIP3    H153866   5.890   3.372  13.450 -0.1156 -1.8678 -0.6632
10817TIP3    H253867   5.840   3.367  13.307 -1.6371  0.4002 -0.2711
10818TIP3   OH253868   3.410   1.415  11.778 -0.2353 -0.3156 -0.0315
10818TIP3    H153869   3.451   1.495  11.746 -0.3089 -0.5608 -0.7535
10818TIP3    H253870   3.327   1.409  11.730 -0.1673 -0.8939 -0.0834
10819TIP3   OH253871   5.186   4.862   1.776  0.6958  0.1244 -0.1455
10819TIP3    H153872   5.259   4.911   1.738  0.0301  0.5937 -0.8496
10819TIP3    H253873   5.112   4.923   1.774 -0.2578 -0.9984 -1.4081
10820TIP3   OH253874   0.228   5.552  11.913 -0.5881  0.4075  0.0575
10820TIP3    H153875   0.158   5.558  11.977 -0.3497 -0.4860  0.4132
10820TIP3    H253876   0.203   5.613  11.843 -2.9550 -1.6235 -1.0027
10821TIP3   OH253877   1.073   5.386  11.275 -0.2642  0.0135  0.0250
10821TIP3    H153878   1.039   5.440  11.203  0.3878  0.4140  0.0046
10821TIP3    H253879   0.998   5.337  11.306 -0.8050  0.6938 -0.1766
10822TIP3   OH253880   0.481   0.550   2.085 -0.3135 -0.1081 -0.4968
10822TIP3    H153881   0.537   0.625   2.106  1.0990 -0.8613 -1.3980
10822TIP3    H253882   0.493   0.491   2.159 -2.1071  0.8733  0.6387
10823TIP3   OH253883   3.367   0.370  12.754  0.2997 -0.7844 -0.2683
10823TIP3    H153884   3.291   0.419  12.722  1.1321  1.5173  1.0692
10823TIP3    H253885   3.429   0.373  12.682  1.9337  3.8555  0.9510
10824TIP3   OH253886   6.720   3.294  13.079  0.0722 -0.2534  0.1669
10824TIP3    H153887   6.625   3.293  13.092  0.0864 -0.4178  0.2575
10824TIP3    H253888   6.742   3.203  13.057  0.2530 -0.2825  0.4605
10825TIP3   OH253889   0.238   5.769   0.539 -0.4148 -0.6457 -0.6348
10825TIP3    H153890   0.275   5.730   0.460  1.2758 -0.3623 -0.0282
10825TIP3    H253891   0.194   5.849   0.508  2.0187  0.6055 -1.1179
10826TIP3   OH253892   3.838   4.141  14.264 -0.1504  0.3772 -0.0712
10826TIP3    H153893   3.809   4.231  14.278 -1.3484 -0.0980  0.6239
10826TIP3    H253894   3.818   4.123  14.172 -0.4190  0.6487 -0.0674
10827TIP3   OH253895   4.702   5.600   3.927  0.4930  0.1604 -0.0547
10827TIP3    H153896   4.719   5.653   4.005  2.7331  0.6991 -0.8521
10827TIP3    H253897   4.777   5.616   3.870 -1.4607  0.4668 -2.7179
10828TIP3   OH253898   3.591   1.179  14.349 -0.9309 -0.7049  0.4856
10828TIP3    H153899   3.603   1.109  14.285  0.6813 -0.5981  0.6335
10828TIP3    H253900   3.644   1.152  14.424 -0.2042  0.7062  0.5043
10829TIP3   OH253901   2.125   6.576   3.951 -0.4415 -0.4461  0.2924
10829TIP3    H153902   2.162   6.632   3.882 -2.6488 -0.8691 -1.3679
10829TIP3    H253903   2.087   6.638   4.014 -0.7481 -0.0536 -0.2685
10830TIP3   OH253904   1.464   6.026  15.317  0.0036 -0.2136 -0.0206
10830TIP3    H153905   1.437   6.111  15.281  0.5800  0.4379  1.0452
10830TIP3    H253906   1.466   5.968  15.241 -0.0603  0.8077 -0.8285
10831TIP3   OH253907   2.034   6.412   0.097 -0.4475  0.8146  0.5773
10831TIP3    H153908   2.089   6.489   0.084  0.3024 -0.0053 -1.6329
10831TIP3    H253909   2.028   6.372   0.010 -0.4247 -1.8700  1.7176
10832TIP3   OH253910   5.884   4.431  12.594 -0.1657 -0.2222  0.5435
10832TIP3    H153911   5.866   4.383  12.514  0.2818  0.8489 -0.2219
10832TIP3    H253912   5.831   4.511  12.587  2.9242  1.8803 -0.6797
10833TIP3   OH253913   6.236   1.874   4.373 -0.4786  0.1907 -0.2768
10833TIP3    H153914   6.270   1.822   4.445 -0.8765  0.6506  0.2593
10833TIP3    H253915   6.178   1.815   4.325  2.1641 -1.0968 -2.1390
10834TIP3   OH253916   5.710   1.837   4.876  0.4599  0.0749 -0.0328
10834TIP3    H153917   5.764   1.876   4.945  2.6031 -1.2707 -0.8508
10834TIP3    H253918   5.655   1.774   4.922 -0.6205  1.5648  0.8376
10835TIP3   OH253919   4.004   6.724  15.544 -0.0931 -0.9613 -0.2378
10835TIP3    H153920   3.979   6.672  15.468  2.0069 -0.9933 -0.9484
10835TIP3    H253921   4.099   6.715  15.551 -0.1407 -0.4632  2.0344
10836TIP3   OH253922   4.547   6.043   0.237 -0.3696  0.5074  0.2072
10836TIP3    H153923   4.639   6.067   0.230 -0.2865 -0.1292 -1.1179
10836TIP3    H253924   4.539   5.961   0.189 -1.6315  0.5354  0.3242
10837TIP3   OH253925   0.563   5.385  12.387  0.1705 -0.3462 -0.4362
10837TIP3    H153926   0.616   5.453  12.347  1.2328 -0.5986  0.5025
10837TIP3    H253927   0.510   5.350  12.315 -0.3896  1.4382 -0.9335
10838TIP3   OH253928   0.282   1.264  15.539  0.4350  0.3245 -0.8098
10838TIP3    H153929   0.345   1.284  15.609 -0.0039 -1.8911  0.2911
10838TIP3    H253930   0.214   1.212  15.582 -0.8682  0.5297 -2.5133
10839TIP3   OH253931   5.508   3.705   4.805 -0.4249 -0.1442 -0.4771
10839TIP3    H153932   5.425   3.673   4.838  0.8599 -1.6043  1.5824
10839TIP3    H253933   5.567   3.630   4.811  1.5479  1.3528  0.1382
10840TIP3   OH253934   6.319   4.442  11.641 -0.0998 -0.2232 -0.0585
10840TIP3    H153935   6.371   4.412  11.716  0.2186  0.0443 -0.1674
10840TIP3    H253936   6.360   4.401  11.565 -0.3758 -0.4340 -0.0956
10841TIP3   OH253937   4.469   2.599  13.593 -0.5166 -0.4486  0.6281
10841TIP3    H153938   4.510   2.683  13.617  1.0070 -0.3773 -1.9239
10841TIP3    H253939   4.542   2.539  13.580 -1.1067 -0.5721 -3.1924
10842TIP3   OH253940   3.576   5.903  14.312  0.0004 -0.4259  0.1675
10842TIP3    H153941   3.506   5.896  14.377 -0.9081  1.5048 -0.5347
10842TIP3    H253942   3.538   5.868  14.232  0.3681 -0.7438  0.1250
10843TIP3   OH253943   3.406   0.724   3.363 -0.2082  0.2272 -0.6854
10843TIP3    H153944   3.410   0.819   3.361 -0.5655  0.3063  1.0426
10843TIP3    H253945   3.468   0.698   3.432 -1.1540 -0.6929 -0.1478
10844TIP3   OH253946   5.980   0.660  13.098  0.4844  0.6151 -0.3623
10844TIP3    H153947   6.075   0.654  13.091  0.4319 -2.0006  0.1458
10844TIP3    H253948   5.962   0.754  13.101  3.0735  1.1712  0.0101
10845TIP3   OH253949   3.394   2.358  13.627  0.1893  0.0975  0.4026
10845TIP3    H153950   3.444   2.364  13.709  1.0956  1.5287 -0.1971
10845TIP3    H253951   3.325   2.294  13.645  1.7259 -1.3300  1.5531
10846TIP3   OH253952   4.002   4.513  13.128 -0.4149  0.3268 -0.2656
10846TIP3    H153953   3.938   4.584  13.134  0.0173  0.6912  0.1356
10846TIP3    H253954   4.057   4.536  13.053  0.0679  0.7100  0.1992
10847TIP3   OH253955   1.595   0.867  12.757  0.6347  0.3029 -0.5008
10847TIP3    H153956   1.613   0.957  12.729  0.4527  0.2573 -0.7689
10847TIP3    H253957   1.598   0.816  12.676 -0.1987  0.2170 -0.4915
10848TIP3   OH253958   6.147   6.563  16.120  0.7185  0.1061 -0.4111
10848TIP3    H153959   6.214   6.549  16.188  0.3137 -1.4377 -0.2760
10848TIP3    H253960   6.076   6.503  16.145 -0.9365  1.9973 -0.3040
10849TIP3   OH253961   3.016   5.818   4.093  0.3131  0.3630  0.0560
10849TIP3    H153962   3.087   5.864   4.048  0.3834  0.2976  0.1001
10849TIP3    H253963   3.057   5.780   4.170  0.6344 -1.2062 -0.8469
10850TIP3   OH253964   6.389   2.382  14.978  0.3940  0.0023  0.5852
10850TIP3    H153965   6.346   2.301  15.003  0.4939 -0.0627  0.5485
10850TIP3    H253966   6.318   2.445  14.966  0.2634 -0.2562 -0.0398
10851TIP3   OH253967   6.751   4.394   1.647  0.0689 -0.1079  0.0849
10851TIP3    H153968   6.691   4.429   1.713  1.3443  2.2721  0.0817
10851TIP3    H253969   6.808   4.334   1.696 -0.6152 -0.3327  0.6124
10852TIP3   OH253970   4.776   3.494  13.788 -0.2010 -0.4814 -0.0865
10852TIP3    H153971   4.845   3.428  13.797  0.1887  0.0937  1.4496
10852TIP3    H253972   4.800   3.563  13.849 -0.7952  0.9452 -1.3865
10853TIP3   OH253973   2.520   5.080   5.755 -0.4911  0.0517 -0.5055
10853TIP3    H153974   2.435   5.038   5.770 -0.4262 -1.1128 -2.9264
10853TIP3    H253975   2.580   5.034   5.814 -0.9500 -1.4759 -1.1850
10854TIP3   OH253976   6.614   4.314  15.445  0.0297 -0.2269 -0.1144
10854TIP3    H153977   6.546   4.381  15.444  0.1132 -0.1399  0.0525
10854TIP3    H253978   6.664   4.331  15.524 -1.1734 -1.7264  1.0272
10855TIP3   OH253979   2.449   4.478  11.812 -0.9403  0.1260 -0.1924
10855TIP3    H153980   2.422   4.439  11.895  1.5238 -1.5227 -0.0686
10855TIP3    H253981   2.542   4.498  11.824 -0.6042  0.1737 -2.4460
10856TIP3   OH253982   5.755   0.669  16.761 -0.8368  0.3116  0.5762
10856TIP3    H153983   5.701   0.591  16.765  1.2983 -1.2974 -0.1128
10856TIP3    H253984   5.838   0.644  16.802 -0.2080  2.3521  0.6967
10857TIP3   OH253985   5.503   0.607   6.514 -0.5664 -0.6074 -0.0859
10857TIP3    H153986   5.439   0.588   6.444  0.9448 -0.2299 -1.6408
10857TIP3    H253987   5.545   0.689   6.485 -1.4465  0.8412  2.4400
10858TIP3   OH253988   3.886   4.524   5.981  0.0984 -1.0157 -0.4872
10858TIP3    H153989   3.822   4.468   6.024  3.0011 -3.0214  1.5889
10858TIP3    H253990   3.875   4.505   5.887 -2.0310 -1.5556 -0.1711
10859TIP3   OH253991   3.238   5.027   0.679  0.7102  0.1678  0.6911
10859TIP3    H153992   3.240   5.078   0.759  1.9214 -1.1662  1.5590
10859TIP3    H253993   3.235   5.092   0.609  2.7461  1.4713  1.7141
10860TIP3   OH253994   2.049   1.709  17.278 -0.1501  0.0080  0.6132
10860TIP3    H153995   2.084   1.725  17.365  0.3556  0.8270  0.2682
10860TIP3    H253996   2.022   1.795  17.246 -0.2233 -0.2654 -0.0857
10861TIP3   OH253997   1.622   2.487  12.955 -0.6694 -0.0193  0.0526
10861TIP3    H153998   1.596   2.396  12.968 -0.7596 -0.0986 -0.6356
10861TIP3    H253999   1.630   2.523  13.044  0.2362 -0.9300  0.3541
10862TIP3   OH254000   4.791   0.439   1.086  0.1187  0.2463  0.1501
10862TIP3    H154001   4.877   0.461   1.121  0.5233  1.0092 -1.2189
10862TIP3    H254002   4.790   0.343   1.083  0.1540  0.1690  1.9451
10863TIP3   OH254003   1.408   3.854   1.889  0.0301  0.1619 -0.0974
10863TIP3    H154004   1.476   3.787   1.890 -0.2828 -0.1558  0.3940
10863TIP3    H254005   1.373   3.850   1.800 -1.2354 -1.6472  0.4117
10864TIP3   OH254006   0.926   3.487  11.804 -0.4860 -0.0597 -0.3236
10864TIP3    H154007   0.980   3.413  11.775 -0.2504  0.6752 -1.8657
10864TIP3    H254008   0.844   3.448  11.833  0.6696 -1.1710  1.7074
10865TIP3   OH254009   0.593   2.868   0.401 -0.1614  0.2679 -0.6818
10865TIP3    H154010   0.601   2.948   0.349 -0.1958  1.1315  0.6124
10865TIP3    H254011   0.502   2.869   0.432 -0.3545 -0.6190 -1.1807
10866TIP3   OH254012   6.299   1.916   2.477  0.0572 -0.1747  0.2265
10866TIP3    H154013   6.306   1.865   2.558 -0.4677 -0.2202  0.2472
10866TIP3    H254014   6.350   1.995   2.494 -0.1117 -0.1491  0.6267
10867TIP3   OH254015   6.537   2.465  16.694 -0.0598  0.0713  0.4440
10867TIP3    H154016   6.550   2.371  16.704  0.7054  0.2756  1.4387
10867TIP3    H254017   6.539   2.479  16.599  1.7343 -0.6618  0.3308
10868TIP3   OH254018   4.441   0.536   4.613  0.4466 -0.0279 -0.0286
10868TIP3    H154019   4.409   0.482   4.540  1.7036  0.2351 -0.8162
10868TIP3    H254020   4.441   0.477   4.688 -0.5296 -0.4088 -0.3088
10869TIP3   OH254021   0.359   1.501   4.689 -0.1830 -0.6118  0.2652
10869TIP3    H154022   0.369   1.410   4.716 -0.2094 -0.9312 -0.7406
10869TIP3    H254023   0.356   1.497   4.593 -0.4859  0.4182  0.2192
10870TIP3   OH254024   1.274   6.145  15.963  0.4915  0.1259 -0.6486
10870TIP3    H154025   1.351   6.189  16.000 -1.6147  2.5897  1.2150
10870TIP3    H254026   1.278   6.163  15.869  0.9099  2.4682 -0.2429
10871TIP3   OH254027   3.335   1.549  17.278 -0.1326  0.1388  0.0777
10871TIP3    H154028   3.294   1.472  17.318  0.4130  0.2816  0.9318
10871TIP3    H254029   3.274   1.620  17.299  0.2131  0.2369  0.7930
10872TIP3   OH254030   2.133   1.524  14.413 -0.4462  0.1554 -1.0077
10872TIP3    H154031   2.058   1.581  14.424  0.8242  1.4849  1.8923
10872TIP3    H254032   2.103   1.438  14.443 -0.7715  0.7327  0.3668
10873TIP3   OH254033   4.258   2.764  16.453 -0.2136 -0.3627 -0.2309
10873TIP3    H154034   4.255   2.668  16.450 -0.5757 -0.3313 -1.1725
10873TIP3    H254035   4.253   2.791  16.361  0.4235  0.5479 -0.0048
10874TIP3   OH254036   0.765   6.531   2.694  0.0589  0.1120  0.0305
10874TIP3    H154037   0.823   6.540   2.619  0.6759  2.8428  0.7219
10874TIP3    H254038   0.744   6.438   2.697  2.0915 -0.4983 -1.9381
10875TIP3   OH254039   2.793   1.932   2.299 -0.0848 -0.3311 -0.1080
10875TIP3    H154040   2.774   2.000   2.365 -1.1055  0.6372 -1.3497
10875TIP3    H254041   2.707   1.895   2.279  0.4611 -1.9972  0.5082
10876TIP3   OH254042   4.412   5.761  13.067 -0.1563  0.0576  0.0596
10876TIP3    H154043   4.375   5.726  12.986  0.0051  0.1899 -0.0719
10876TIP3    H254044   4.479   5.698  13.093  0.5358  0.5596 -0.4885
10877TIP3   OH254045   6.292   5.238   2.540  0.1484 -0.3009  0.2256
10877TIP3    H154046   6.248   5.242   2.626  0.3555  0.8211  0.2933
10877TIP3    H254047   6.383   5.260   2.559  0.6481 -2.0835 -0.0006
10878TIP3   OH254048   2.748   6.699   0.232  0.0783  0.6270 -0.1413
10878TIP3    H154049   2.725   6.696   0.139 -3.7056  1.5743  0.5784
10878TIP3    H254050   2.835   6.740   0.234  1.0712 -1.0016 -3.2603
10879TIP3   OH254051   4.044   6.326  14.303  0.3009  0.4981  0.5035
10879TIP3    H154052   4.063   6.280  14.384  1.5874  0.6407  0.3059
10879TIP3    H254053   4.052   6.419  14.326 -1.2679  0.6239  0.6582
10880TIP3   OH254054   2.409   3.385   1.757 -0.5364 -0.4354  0.1856
10880TIP3    H154055   2.488   3.334   1.771 -0.5340 -0.0581  1.6654
10880TIP3    H254056   2.401   3.392   1.661  1.9477  0.6671 -0.0076
10881TIP3   OH254057   4.136   1.579  16.159  0.1284  0.3016  0.2974
10881TIP3    H154058   4.138   1.514  16.230 -0.6407 -0.4345 -0.3230
10881TIP3    H254059   4.144   1.526  16.080  0.6843  1.0895 -0.1757
10882TIP3   OH254060   5.834   2.380   1.946  0.3169 -0.0185 -0.4565
10882TIP3    H154061   5.822   2.474   1.930  0.0182 -0.0845 -0.6292
10882TIP3    H254062   5.812   2.369   2.039  0.7730  0.1490 -0.3222
10883TIP3   OH254063   6.457   0.023   3.286  0.2019 -0.4466  0.0092
10883TIP3    H154064   6.375   0.045   3.330  1.6472  0.7013  2.3581
10883TIP3    H254065   6.432  -0.039   3.218 -2.5626 -0.2894  0.7586
10884TIP3   OH254066   3.467   4.833  17.083 -0.6232  0.2379 -0.4995
10884TIP3    H154067   3.460   4.867  17.172 -0.2535 -0.6203 -0.1328
10884TIP3    H254068   3.399   4.766  17.077  0.6147 -1.1029 -0.1899
10885TIP3   OH254069   0.059   2.308  11.500  0.3030  0.4118 -0.1128
10885TIP3    H154070   0.030   2.312  11.592  0.7730  0.3864  0.0417
10885TIP3    H254071   0.108   2.390  11.488 -1.2049  1.2376 -0.8525
10886TIP3   OH254072   2.686   5.281   4.413 -0.1409 -0.2934  0.7585
10886TIP3    H154073   2.624   5.302   4.483 -0.0658 -0.0355  0.7498
10886TIP3    H254074   2.737   5.208   4.448 -1.6521 -1.7472  0.0509
10887TIP3   OH254075   2.807   3.078   4.605  0.3793 -0.2354  0.2599
10887TIP3    H154076   2.711   3.078   4.613  0.0348 -1.3521 -2.6280
10887TIP3    H254077   2.826   3.160   4.560  0.9584  0.5295  1.8344
10888TIP3   OH254078   1.246   1.020   6.564  0.2460  0.0140 -0.2722
10888TIP3    H154079   1.295   0.980   6.636  2.4530 -0.8949 -2.1613
10888TIP3    H254080   1.165   0.969   6.560  1.2202 -1.6285 -0.0289
10889TIP3   OH254081   0.827   5.541   2.442  0.6546 -0.5021 -0.3231
10889TIP3    H154082   0.845   5.468   2.382 -0.1152 -1.9903  1.1508
10889TIP3    H254083   0.889   5.528   2.514 -0.6973 -0.8181  0.8327
10890TIP3   OH254084   1.468   1.147  14.042  0.3571  0.5420  0.5718
10890TIP3    H154085   1.509   1.142  14.128  0.8941  0.9265  0.3436
10890TIP3    H254086   1.455   1.240  14.026 -0.7908  0.4184  0.7176
10891TIP3   OH254087   4.051   1.024  16.653 -0.0484  0.3834  0.1239
10891TIP3    H154088   4.118   0.976  16.702  0.8919  0.9217 -0.5935
10891TIP3    H254089   4.003   1.072  16.719  0.8961  0.7363  0.5773
10892TIP3   OH254090   0.062   6.079  16.342 -0.7383  0.3669  0.3593
10892TIP3    H154091   0.072   6.103  16.250 -0.6606 -2.6023 -0.5351
10892TIP3    H254092   0.145   6.104  16.383  0.3126 -0.6640 -1.0503
10893TIP3   OH254093   5.814   2.369  12.408  0.3143  0.2611 -0.0099
10893TIP3    H154094   5.845   2.281  12.427  0.3905  0.4631  0.8435
10893TIP3    H254095   5.753   2.358  12.335 -1.3204 -0.8145  1.4432
10894TIP3   OH254096   1.146   1.729  13.613 -0.3741  0.0538  0.0731
10894TIP3    H154097   1.068   1.708  13.665  0.5463  0.0921  1.5365
10894TIP3    H254098   1.150   1.825  13.614  0.3531  0.0372  1.0988
10895TIP3   OH254099   2.775   6.143  15.355  0.9809 -0.1780  0.0189
10895TIP3    H154100   2.724   6.089  15.415 -0.7929 -0.5330 -1.7079
10895TIP3    H254101   2.844   6.182  15.410 -0.9685  0.1084  2.4185
10896TIP3   OH254102   0.926   4.137   3.020 -0.1971  0.5699 -0.4207
10896TIP3    H154103   0.997   4.087   3.058 -0.4193 -0.3689 -1.1860
10896TIP3    H254104   0.859   4.140   3.088 -0.1885 -0.2055 -0.3743
10897TIP3   OH254105   3.308   2.520   3.590  1.0120  0.2544  0.1734
10897TIP3    H154106   3.252   2.459   3.638  0.3211  1.6507  1.2245
10897TIP3    H254107   3.248   2.589   3.561  1.6799  0.1869 -1.4564
10898TIP3   OH254108   5.038   2.886   0.611 -0.2700 -0.3368  0.6757
10898TIP3    H154109   5.041   2.842   0.526 -0.1716  2.6103 -1.0116
10898TIP3    H254110   5.127   2.879   0.645  0.1502 -0.1414 -0.3253
10899TIP3   OH254111   4.072   6.057   4.962 -0.3118 -0.6255 -0.0491
10899TIP3    H154112   4.006   6.007   4.915 -0.3831 -0.8557  0.2852
10899TIP3    H254113   4.148   5.998   4.967 -0.3278 -0.6270  0.1793
10900TIP3   OH254114   4.833   0.948   2.014 -0.7111  0.0441  0.1375
10900TIP3    H154115   4.786   1.010   1.958 -1.4465  0.0362  0.7281
10900TIP3    H254116   4.914   0.994   2.038 -0.9107  0.4904 -0.0230
10901TIP3   OH254117   0.503   5.013  16.065  0.1335  0.9256 -0.0043
10901TIP3    H154118   0.430   5.009  16.126  0.3958  1.5089  0.3537
10901TIP3    H254119   0.578   4.981  16.116  0.2799  1.0669 -0.1312
10902TIP3   OH254120   5.017   2.845  17.242 -0.1401 -0.0209  0.0701
10902TIP3    H154121   4.925   2.852  17.269  0.2074 -1.3092  1.8190
10902TIP3    H254122   5.048   2.766  17.287  1.4983 -0.3241 -1.4930
10903TIP3   OH254123   6.243   5.400  12.629 -0.5728 -0.3850  0.0351
10903TIP3    H154124   6.303   5.418  12.557 -1.4324 -1.4660 -0.9986
10903TIP3    H254125   6.238   5.482  12.678  1.3617 -0.1384 -0.1137
10904TIP3   OH254126   4.821   6.131   1.368 -0.1945 -0.3662  0.1507
10904TIP3    H154127   4.848   6.167   1.452  0.5175 -1.5599  0.4728
10904TIP3    H254128   4.904   6.111   1.324 -0.5031  1.7348 -1.5576
10905TIP3   OH254129   5.852   0.977  11.148  0.4461 -1.4523 -0.2865
10905TIP3    H154130   5.853   0.896  11.097 -1.6372 -1.0290 -1.1009
10905TIP3    H254131   5.829   0.949  11.236  0.6291 -1.8247 -0.3520
10906TIP3   OH254132   5.743   2.800  15.822 -0.0887  0.1852  0.0309
10906TIP3    H154133   5.779   2.781  15.735  2.0966 -1.0930  1.1141
10906TIP3    H254134   5.791   2.878  15.850  1.1409 -0.9007  1.0640
10907TIP3   OH254135   1.230   0.402  14.155  0.2663  0.5945 -0.6951
10907TIP3    H154136   1.200   0.312  14.159 -0.2276  0.6928 -1.8127
10907TIP3    H254137   1.322   0.398  14.183 -0.1113 -0.0428  0.5303
10908TIP3   OH254138   6.721   5.545  16.261 -0.1889  0.0181  0.2471
10908TIP3    H154139   6.704   5.634  16.290 -0.8814 -0.4138  1.2195
10908TIP3    H254140   6.634   5.505  16.253  0.1396 -0.7866  0.5620
10909TIP3   OH254141   0.406   4.826   0.240 -0.3759  0.5243 -0.1428
10909TIP3    H154142   0.354   4.746   0.228  1.1731 -0.4887 -0.4305
10909TIP3    H254143   0.477   4.818   0.176  1.4169  0.7325  1.7224
10910TIP3   OH254144   1.149   0.016   1.016 -0.0412  0.1517 -0.7022
10910TIP3    H154145   1.227  -0.004   0.966 -1.3872 -0.8489 -2.5387
10910TIP3    H254146   1.079   0.020   0.950 -1.4710  1.3593  0.8156
10911TIP3   OH254147   6.470   1.270   4.667 -0.1211 -0.2337 -0.1335
10911TIP3    H154148   6.421   1.282   4.586  0.4439 -1.0242 -0.6021
10911TIP3    H254149   6.514   1.186   4.656  0.3768 -0.1018  0.7820
10912TIP3   OH254150   2.993   0.879   0.566 -0.3448  0.3023 -0.4082
10912TIP3    H154151   3.083   0.912   0.575  0.1307 -0.7346 -1.2257
10912TIP3    H254152   2.982   0.866   0.472 -1.1604 -0.1266 -0.2567
10913TIP3   OH254153   1.894   5.865   1.714  0.0753  0.0408  0.1559
10913TIP3    H154154   1.824   5.918   1.675  0.8897  0.6962 -0.4628
10913TIP3    H254155   1.957   5.929   1.747 -0.0700 -0.5247  1.6086
10914TIP3   OH254156   6.458   1.582   6.658  1.1374  0.6930 -0.0520
10914TIP3    H154157   6.514   1.618   6.589 -0.5031 -0.6540 -2.2237
10914TIP3    H254158   6.398   1.523   6.612  1.1669 -1.8084  2.7885
10915TIP3   OH254159   4.403   3.980   1.554 -0.5074 -0.3474 -0.0886
10915TIP3    H154160   4.416   3.929   1.474  0.2319 -1.9191  0.9808
10915TIP3    H254161   4.487   4.022   1.570  0.0734 -1.8418  1.0233
10916TIP3   OH254162   2.119   5.611  13.371 -0.1284  0.8725  0.3313
10916TIP3    H154163   2.112   5.539  13.434 -0.7692  0.1604 -0.5214
10916TIP3    H254164   2.029   5.629  13.344 -0.0032  2.2101  0.7460
10917TIP3   OH254165   1.624   5.908   1.585 -0.2068  0.4705  0.6755
10917TIP3    H154166   1.670   5.870   1.510  0.2954 -2.2546  2.2140
10917TIP3    H254167   1.533   5.880   1.574 -0.1360  0.0818  1.0193
10918TIP3   OH254168   2.248   2.569  15.442 -0.1863 -0.3426 -0.0230
10918TIP3    H154169   2.326   2.606  15.401 -0.1386 -0.9525 -0.4845
10918TIP3    H254170   2.196   2.535  15.369 -0.8514 -0.0101  0.2847
10919TIP3   OH254171   2.679   3.908   2.605 -0.0324 -0.2211 -0.1562
10919TIP3    H154172   2.766   3.886   2.638  1.2720 -0.1375 -3.2053
10919TIP3    H254173   2.695   3.963   2.528 -2.6813 -1.4978 -1.7923
10920TIP3   OH254174   0.882   1.577   3.022  0.4347 -0.1131  0.3281
10920TIP3    H154175   0.802   1.629   3.029  0.8379  0.5502  0.0845
10920TIP3    H254176   0.919   1.578   3.110 -1.2626 -2.8180  1.1912
10921TIP3   OH254177   5.275   0.846  14.359  0.1226  0.4912 -0.1755
10921TIP3    H154178   5.293   0.871  14.269  1.0585  0.3718 -0.0280
10921TIP3    H254179   5.201   0.785  14.353 -0.4130  1.1955 -0.7678
10922TIP3   OH254180   5.095   4.665  10.674 -0.0489 -0.3620 -0.0294
10922TIP3    H154181   5.146   4.613  10.612 -0.2450 -1.6467  0.8291
10922TIP3    H254182   5.005   4.634  10.663 -0.0461 -0.8202  1.0586
10923TIP3   OH254183   4.133   0.836   1.395  0.6678  0.4291  0.1330
10923TIP3    H154184   4.223   0.840   1.428  0.2012 -0.0813  1.5238
10923TIP3    H254185   4.083   0.795   1.465 -0.2217 -1.5789 -1.5385
10924TIP3   OH254186   0.100   1.398  14.713 -0.5177 -0.5679  0.4643
10924TIP3    H154187   0.049   1.348  14.776  0.7778 -2.0575  0.3806
10924TIP3    H254188   0.075   1.363  14.628  1.7208 -2.5169  0.4859
10925TIP3   OH254189   0.040   5.865   4.223  0.0991  0.0451 -0.2524
10925TIP3    H154190   0.030   5.804   4.296  0.5035  1.3010  0.9061
10925TIP3    H254191  -0.014   5.829   4.153  0.8953 -2.0025  0.1279
10926TIP3   OH254192   1.625   0.679  15.178 -0.0609  0.1419  0.0580
10926TIP3    H154193   1.573   0.599  15.169  0.8511 -0.3473 -1.2562
10926TIP3    H254194   1.714   0.648  15.190  0.1782  0.9688  0.4430
10927TIP3   OH254195   4.139   4.104  16.497  0.2126  0.8573  0.0870
10927TIP3    H154196   4.146   4.077  16.589 -1.3310  0.4828  0.1136
10927TIP3    H254197   4.105   4.027  16.452 -0.4239  1.5038 -0.5455
10928TIP3   OH254198   4.749   4.518   4.191 -0.2557 -0.5073  0.2488
10928TIP3    H154199   4.777   4.486   4.277 -2.3566 -0.8628  0.8511
10928TIP3    H254200   4.747   4.613   4.201  0.9069 -0.4459  0.0990
10929TIP3   OH254201   1.966   5.232  15.391 -0.2191  0.1386 -0.6649
10929TIP3    H154202   2.019   5.160  15.426 -0.2295 -0.5567 -1.9803
10929TIP3    H254203   1.912   5.190  15.324  0.6871  1.5616 -2.3684
10930TIP3   OH254204   5.928   5.158   1.477  0.7220 -0.6053 -0.3830
10930TIP3    H154205   5.972   5.167   1.561  0.0095 -0.0414 -0.0634
10930TIP3    H254206   5.908   5.248   1.450 -1.7157 -0.8869  0.2783
10931TIP3   OH254207   6.746   2.279   5.661  0.5320 -0.5038 -0.8833
10931TIP3    H154208   6.733   2.371   5.637  1.0999 -0.3996 -0.8040
10931TIP3    H254209   6.776   2.237   5.580 -2.6086 -1.2996 -1.8053
10932TIP3   OH254210   3.657   5.555  13.509 -0.0851 -0.1654  0.0002
10932TIP3    H154211   3.640   5.542  13.416 -0.5128 -1.7723  0.2764
10932TIP3    H254212   3.699   5.474  13.538 -0.6880 -0.0266  1.3632
10933TIP3   OH254213   1.011   4.135  17.105 -0.0652  0.4061  0.4571
10933TIP3    H154214   1.002   4.213  17.051 -2.3713  0.2835  0.5694
10933TIP3    H254215   1.060   4.074  17.050  1.1904  1.6684  0.1195
10934TIP3   OH254216   5.788   6.542   4.732 -0.0488 -0.9067 -0.4637
10934TIP3    H154217   5.847   6.617   4.730 -1.6476  0.3962 -1.2432
10934TIP3    H254218   5.735   6.555   4.811  0.0924 -1.5789 -0.2517
10935TIP3   OH254219   4.739   2.006   4.785 -0.4490 -0.1830  0.4666
10935TIP3    H154220   4.809   1.966   4.734  1.4544  3.7082 -0.3372
10935TIP3    H254221   4.669   2.022   4.722  1.1355  2.8627 -0.6895
10936TIP3   OH254222   6.538   5.900   3.815  0.2924  0.1263 -0.6743
10936TIP3    H154223   6.475   5.874   3.882 -0.1638  1.2447 -0.6478
10936TIP3    H254224   6.600   5.827   3.811  0.4019  0.0786  1.0394
10937TIP3   OH254225   0.481   4.859   6.052 -0.1542 -0.1203 -0.1210
10937TIP3    H154226   0.508   4.792   6.115  0.4704 -1.7797 -2.0715
10937TIP3    H254227   0.432   4.812   5.985  0.6526  1.2870 -1.7855
10938TIP3   OH254228   0.986   0.668   1.258  0.1811  0.9966  0.7905
10938TIP3    H154229   0.959   0.589   1.305 -0.0548  0.9202  0.5302
10938TIP3    H254230   1.077   0.652   1.233  0.2269  0.9313  0.9999
10939TIP3   OH254231   0.772   0.759   2.865 -0.4389  0.9835 -0.4478
10939TIP3    H154232   0.840   0.762   2.797 -0.2667 -3.1080 -0.7324
10939TIP3    H254233   0.692   0.785   2.820  0.0637  0.5462 -1.6301
10940TIP3   OH254234   5.869   2.954   1.800 -0.2002  0.1771  0.0376
10940TIP3    H154235   5.930   3.008   1.750 -0.0898 -1.3084 -1.5344
10940TIP3    H254236   5.814   3.017   1.847  1.8460  1.5840  0.7240
10941TIP3   OH254237   4.744   5.525   1.339 -0.8225 -0.3723 -0.2009
10941TIP3    H154238   4.656   5.495   1.320 -1.3142  0.9674 -0.1542
10941TIP3    H254239   4.789   5.448   1.373 -2.0036 -1.0488 -0.1218
10942TIP3   OH254240   1.851   0.903  11.678 -0.0247 -0.1889  0.3696
10942TIP3    H154241   1.907   0.975  11.649 -0.6611 -0.3928 -1.4828
10942TIP3    H254242   1.886   0.878  11.763  3.1113 -0.7005 -0.9373
10943TIP3   OH254243   3.983   3.286   4.134 -0.1431  0.1154  0.6423
10943TIP3    H154244   4.004   3.197   4.162  1.3357  0.4278  0.6404
10943TIP3    H254245   3.908   3.276   4.075  0.5322 -1.2308 -0.0253
10944TIP3   OH254246   6.066   2.051   2.758 -0.0489 -0.3838  0.3334
10944TIP3    H154247   6.136   2.093   2.708 -1.2313  1.7428  0.3605
10944TIP3    H254248   6.110   2.015   2.835  0.9889  1.2159  0.5389
10945TIP3   OH254249   2.164   0.322   3.240 -0.3899 -0.0525  0.0060
10945TIP3    H154250   2.160   0.289   3.330 -0.8645 -4.0753 -1.2856
10945TIP3    H254251   2.092   0.277   3.195 -0.1392  1.7924 -2.4242
10946TIP3   OH254252   6.168   1.842  15.423  0.0140  0.3893 -0.7288
10946TIP3    H154253   6.103   1.854  15.354 -0.1595 -1.2999 -0.9004
10946TIP3    H254254   6.252   1.841  15.377 -0.0236  0.2960 -0.7965
10947TIP3   OH254255   0.917   5.060   1.371  0.4062 -0.0215 -0.0013
10947TIP3    H154256   0.908   5.113   1.292  0.9244  0.0332 -0.0271
10947TIP3    H254257   0.849   4.993   1.363  0.6229 -0.1761 -0.6200
10948TIP3   OH254258   3.943   0.083  13.761  0.2732  0.0763 -0.0696
10948TIP3    H154259   3.864   0.029  13.767  0.7870 -0.6077  0.8380
10948TIP3    H254260   3.999   0.051  13.831  0.1576  2.5390  1.2489
10949TIP3   OH254261   5.434   4.064  11.624 -0.0549  0.2891  0.0728
10949TIP3    H154262   5.484   4.141  11.653 -0.8105  0.3796  1.2316
10949TIP3    H254263   5.476   3.991  11.668 -1.3878  0.4591  1.7741
10950TIP3   OH254264   1.614   4.468  11.724 -0.4857 -0.5457 -0.0373
10950TIP3    H154265   1.595   4.559  11.705  2.5169  0.5658  1.6472
10950TIP3    H254266   1.660   4.437  11.646 -1.0136 -0.4788 -0.3816
10951TIP3   OH254267   1.134   6.749   4.627 -0.2254  0.2998 -0.7925
10951TIP3    H154268   1.125   6.678   4.565  1.4048  0.2044 -0.9605
10951TIP3    H254269   1.185   6.816   4.581 -1.6817  1.5874 -0.6285
10952TIP3   OH254270   0.470   4.444   3.356  0.0550  0.3193 -0.3822
10952TIP3    H154271   0.378   4.453   3.333 -0.1349  1.5724  0.7294
10952TIP3    H254272   0.471   4.447   3.452  1.2305  0.1144 -0.3755
10953TIP3   OH254273   5.026   0.248  16.883  0.4062 -0.2978 -0.5893
10953TIP3    H154274   4.978   0.166  16.876 -0.7415  0.4133 -1.2524
10953TIP3    H254275   5.088   0.234  16.955 -0.6676 -1.2921  0.1644
10954TIP3   OH254276   6.176   4.244   4.394  0.2847 -0.0787  0.1857
10954TIP3    H154277   6.244   4.311   4.390  0.4428 -0.2780 -1.0128
10954TIP3    H254278   6.201   4.189   4.468  0.9144  0.3842  0.3267
10955TIP3   OH254279   2.847   4.899   6.363 -0.1205 -0.0778 -0.6176
10955TIP3    H154280   2.869   4.862   6.449  0.3260  0.6676 -0.4004
10955TIP3    H254281   2.919   4.959   6.344 -0.3241 -0.0870 -1.4239
10956TIP3   OH254282   4.342   2.023  11.471 -0.1605  0.9322  0.4114
10956TIP3    H154283   4.434   1.997  11.473 -0.5731 -0.6845  3.2811
10956TIP3    H254284   4.340   2.108  11.515 -0.0973  0.5322  1.2157
10957TIP3   OH254285   3.370   0.401   5.343  0.1158  0.1680  0.0718
10957TIP3    H154286   3.324   0.335   5.394 -0.0943  0.3320  0.0983
10957TIP3    H254287   3.335   0.485   5.375 -0.2274  0.2636 -0.5332
10958TIP3   OH254288   4.493   1.303   5.033 -0.0905  0.4682 -0.8522
10958TIP3    H154289   4.566   1.340   4.984 -0.1879 -0.4204 -1.7160
10958TIP3    H254290   4.533   1.242   5.095 -0.1300 -0.8795 -2.1049
10959TIP3   OH254291   6.749   6.290   0.784  0.0449 -0.1883  0.2607
10959TIP3    H154292   6.687   6.230   0.743  0.0806 -1.0615  1.4527
10959TIP3    H254293   6.769   6.251   0.869  0.5621  1.1874  0.8056
10960TIP3   OH254294   1.478   1.378  12.423  0.2461 -0.4070  0.3752
10960TIP3    H154295   1.537   1.376  12.499  0.5924 -2.7478  0.1237
10960TIP3    H254296   1.532   1.347  12.350 -0.7768 -0.7625 -0.2531
10961TIP3   OH254297   0.430   1.877   1.448 -0.0788  0.2664 -0.0694
10961TIP3    H154298   0.347   1.918   1.423  0.6385  1.5473 -0.4174
10961TIP3    H254299   0.482   1.876   1.367  0.1695 -0.7770  0.0815
10962TIP3   OH254300   6.371   4.713   5.188  0.2710  0.2763  0.4428
10962TIP3    H154301   6.352   4.621   5.202 -0.8348  0.0476 -2.0112
10962TIP3    H254302   6.353   4.755   5.273 -1.3751 -1.4385  1.0000
10963TIP3   OH254303   2.797   3.728   4.320 -0.3485 -0.2763 -0.8855
10963TIP3    H154304   2.874   3.709   4.374 -0.6066  0.9304 -0.0351
10963TIP3    H254305   2.833   3.766   4.240 -0.0128 -0.5903 -0.8837
10964TIP3   OH254306   2.739   2.191  15.034  1.0888  0.3661  0.1613
10964TIP3    H154307   2.749   2.257  14.965  0.1508  1.0560  0.6700
10964TIP3    H254308   2.712   2.112  14.987  0.6759  0.7720 -0.2991
10965TIP3   OH254309   5.100   2.631  16.085 -0.2479  0.4929 -0.2314
10965TIP3    H154310   5.106   2.593  15.997 -0.9383 -0.8547  0.2768
10965TIP3    H254311   5.104   2.726  16.070  2.4630  0.2724 -1.4681
10966TIP3   OH254312   0.093   1.828  15.036 -0.1186  0.3594 -0.0282
10966TIP3    H154313   0.067   1.743  15.073 -2.6197  1.0945  0.1063
10966TIP3    H254314   0.035   1.840  14.961  0.0669  2.0062  0.0477
10967TIP3   OH254315   5.626   2.220   1.020 -0.1465 -0.2381 -0.1427
10967TIP3    H154316   5.587   2.133   1.017  0.3041 -0.4165 -1.0151
10967TIP3    H254317   5.622   2.245   1.113 -2.2846 -0.2527 -0.1933
10968TIP3   OH254318   3.979   4.475  16.242  0.3166  0.1924  0.2431
10968TIP3    H154319   4.058   4.529  16.244  0.7516 -0.4042 -0.2622
10968TIP3    H254320   3.987   4.418  16.319  0.6796 -0.2644 -0.1240
10969TIP3   OH254321   1.105   1.268   1.731  0.1457 -0.2172 -0.1296
10969TIP3    H154322   1.163   1.259   1.806 -0.4345 -0.3919  0.2999
10969TIP3    H254323   1.147   1.335   1.676  1.6263 -1.5001 -0.6482
10970TIP3   OH254324   3.580   1.949  15.794 -0.1454 -0.0813  0.2157
10970TIP3    H154325   3.614   1.946  15.883  0.3252  0.2814  0.0528
10970TIP3    H254326   3.657   1.965  15.739 -0.6021  1.0521 -0.1296
10971TIP3   OH254327   2.361   0.152  16.347  0.3445  0.2131 -0.2246
10971TIP3    H154328   2.401   0.164  16.433 -0.6268 -0.7258  0.3760
10971TIP3    H254329   2.318   0.235  16.329 -1.6495 -0.3843  1.4042
10972TIP3   OH254330   3.084   0.603   3.113 -0.2049  0.1299 -0.2301
10972TIP3    H154331   3.133   0.566   3.186 -1.1211  1.3174  1.0421
10972TIP3    H254332   3.149   0.649   3.060  0.8078 -2.3571 -1.3409
10973TIP3   OH254333   0.524   0.055  15.201 -0.5957 -0.1165  0.2837
10973TIP3    H154334   0.528  -0.007  15.274 -0.0338  1.1199  1.3477
10973TIP3    H254335   0.432   0.082  15.198 -0.6118 -0.1358  0.5638
10974TIP3   OH254336   3.512   3.801   0.680 -0.5067  0.4199  0.6068
10974TIP3    H154337   3.499   3.858   0.604 -0.5370 -0.2592  0.0835
10974TIP3    H254338   3.591   3.835   0.722 -0.7064  1.0386  0.4918
10975TIP3   OH254339   1.930   2.828   3.058  0.4082 -0.2003  0.6943
10975TIP3    H154340   1.970   2.813   3.143 -1.1836  1.9763  1.9320
10975TIP3    H254341   1.837   2.811   3.072 -0.0003  0.9967 -0.3473
10976TIP3   OH254342   0.957   5.679  13.503 -0.1320  0.4001 -0.1279
10976TIP3    H154343   0.896   5.735  13.455 -0.7532  0.0353  0.2196
10976TIP3    H254344   1.010   5.638  13.434 -1.7561 -0.9720 -0.6269
10977TIP3   OH254345   4.665   5.332   1.628 -0.3487 -1.1036  0.0073
10977TIP3    H154346   4.681   5.364   1.717 -0.7089 -0.1829 -0.2527
10977TIP3    H254347   4.617   5.402   1.585  0.5354 -1.1823 -1.1742
10978TIP3   OH254348   2.441   5.174  11.949  0.4726  0.0459  0.2134
10978TIP3    H154349   2.383   5.134  11.883  0.5898  0.5260 -0.1817
10978TIP3    H254350   2.515   5.208  11.898  0.7831  0.0173  0.6460
10979TIP3   OH254351   3.634   1.442  17.029  0.1079 -0.0427 -0.1687
10979TIP3    H154352   3.635   1.348  17.045  1.4365 -0.0392 -0.1297
10979TIP3    H254353   3.716   1.474  17.067 -1.0094  1.3718  1.1887
10980TIP3   OH254354   3.730   5.290   4.363  0.0590  0.5195 -0.1678
10980TIP3    H154355   3.683   5.371   4.345 -0.3253  1.0120  2.6415
10980TIP3    H254356   3.676   5.244   4.427  1.8305 -0.4153  0.7241
10981TIP3   OH254357   5.597   2.680  12.631  0.0553  0.2721  0.0754
10981TIP3    H154358   5.690   2.660  12.628  0.1372  0.7508 -1.2892
10981TIP3    H254359   5.555   2.596  12.650  0.6664 -0.3411 -1.1288
10982TIP3   OH254360   6.513   4.617  15.527 -0.6585 -0.3516 -0.0351
10982TIP3    H154361   6.430   4.647  15.564  0.0953  1.1197  0.5439
10982TIP3    H254362   6.532   4.680  15.457  1.1514  0.8295  1.4473
10983TIP3   OH254363   6.627   4.421  11.766  0.0595  0.2686  0.5112
10983TIP3    H154364   6.554   4.408  11.827  0.1791 -0.4709  0.5131
10983TIP3    H254365   6.704   4.427  11.822  0.2409 -0.9520  0.4405
10984TIP3   OH254366   0.290   4.194   0.562 -0.7140 -0.4444  0.5737
10984TIP3    H154367   0.250   4.184   0.475  0.3017  1.0578 -0.1167
10984TIP3    H254368   0.259   4.118   0.612 -2.0635 -0.8525 -0.8073
10985TIP3   OH254369   3.740   2.240   0.079 -0.0697  0.6003 -0.1858
10985TIP3    H154370   3.657   2.281   0.054  0.2825  0.7108 -1.2173
10985TIP3    H254371   3.804   2.311   0.074  0.2342  0.3282 -0.2119
10986TIP3   OH254372   1.363   5.142   0.797  0.0058  0.1248 -0.2038
10986TIP3    H154373   1.275   5.145   0.759 -0.4930 -1.7046  0.6912
10986TIP3    H254374   1.408   5.072   0.749  1.0445  1.1308 -0.7422
10987TIP3   OH254375   5.038   0.120  12.734  0.4079 -0.3527  0.1479
10987TIP3    H154376   4.967   0.079  12.685 -0.5392  0.5503  0.7123
10987TIP3    H254377   5.074   0.049  12.788  0.3113 -0.9481 -0.5548
10988TIP3   OH254378   0.381   6.340   3.007  0.1537  0.3542 -0.3930
10988TIP3    H154379   0.420   6.420   2.972  0.3489  0.9360  1.0605
10988TIP3    H254380   0.437   6.270   2.974  2.2016  1.1308  1.2101
10989TIP3   OH254381   1.059   1.684   1.896  0.9321  0.0844  0.7452
10989TIP3    H154382   1.121   1.613   1.879  0.5016 -0.0576 -0.2788
10989TIP3    H254383   0.993   1.645   1.954 -0.0885 -0.8165 -0.9417
10990TIP3   OH254384   1.951   6.669   1.240  0.2275  0.7483 -0.3316
10990TIP3    H154385   2.018   6.687   1.306 -0.0257  0.0664  0.1282
10990TIP3    H254386   1.874   6.644   1.290  0.7959 -2.5625 -0.8246
10991TIP3   OH254387   2.178   6.139   5.572  0.2208 -0.2529 -0.5025
10991TIP3    H154388   2.084   6.123   5.566  0.1855  0.3618 -2.2510
10991TIP3    H254389   2.218   6.055   5.550  0.0843 -0.3591 -0.3484
10992TIP3   OH254390   0.092   3.310   0.042  0.1151  0.4832 -0.4913
10992TIP3    H154391   0.043   3.386   0.074  0.6005  1.6080 -2.2799
10992TIP3    H254392   0.027   3.242   0.032 -0.5122  0.9684  0.1688
10993TIP3   OH254393   1.858   4.520   3.415 -0.2643 -0.1304  0.5638
10993TIP3    H154394   1.888   4.500   3.503 -0.5841  2.8749  1.4874
10993TIP3    H254395   1.935   4.505   3.359  0.4418 -0.4957  1.6168
10994TIP3   OH254396   5.381   6.541   5.842 -0.7777 -0.0983  0.4947
10994TIP3    H154397   5.328   6.547   5.763  1.3601  0.5392 -0.9895
10994TIP3    H254398   5.413   6.450   5.843 -0.9341 -0.1535  0.7347
10995TIP3   OH254399   2.806   4.270  13.959  0.8671  0.0406 -0.1878
10995TIP3    H154400   2.711   4.268  13.949  0.3555 -0.2197  3.3768
10995TIP3    H254401   2.837   4.189  13.918 -0.9722 -1.7947  1.7844
10996TIP3   OH254402   5.632   0.892  15.810  0.1788  0.5862 -0.4713
10996TIP3    H154403   5.592   0.979  15.809 -1.4047 -0.0893  0.2686
10996TIP3    H254404   5.720   0.907  15.846 -0.1941  1.8322 -0.0212
10997TIP3   OH254405   1.440   4.372   5.994 -0.1802  0.3086  0.1370
10997TIP3    H154406   1.535   4.363   6.005 -0.2492  0.1931  0.6547
10997TIP3    H254407   1.430   4.447   5.935  0.3215 -1.4355 -2.3248
10998TIP3   OH254408   3.904   1.161   0.506  0.2115  0.4563 -0.0637
10998TIP3    H154409   3.985   1.211   0.499  0.8706 -0.7356 -1.3915
10998TIP3    H254410   3.899   1.111   0.425 -1.2243 -0.4479  0.5297
10999TIP3   OH254411   1.974   0.156  14.174 -0.1984  0.2089 -0.1367
10999TIP3    H154412   1.999   0.110  14.254  1.7556 -1.4824 -1.6111
10999TIP3    H254413   2.051   0.150  14.118 -1.8190  0.4744 -2.5121
11000TIP3   OH254414   2.628   0.551  13.233  0.1427 -0.0787 -0.4711
11000TIP3    H154415   2.588   0.490  13.171 -0.0028 -1.5048  0.9538
11000TIP3    H254416   2.721   0.552  13.209 -0.3867  2.1325 -2.8794
11001TIP3   OH254417   0.979   0.741  11.229 -0.1157  0.0678 -0.7126
11001TIP3    H154418   0.970   0.672  11.295  0.9489 -0.1450 -0.7613
11001TIP3    H254419   0.993   0.821  11.280 -0.3701  0.0828 -0.6673
11002TIP3   OH254420   3.728   1.938   5.659 -0.0663  0.0759 -0.7693
11002TIP3    H154421   3.801   1.903   5.608  1.3399 -0.2137  1.3368
11002TIP3    H254422   3.759   2.022   5.691 -1.2896  0.6918 -1.1488
11003TIP3   OH254423   1.933   6.650  16.454  0.6256 -0.6049 -0.0157
11003TIP3    H154424   1.880   6.674  16.378  2.4010  2.4686 -0.4652
11003TIP3    H254425   1.869   6.626  16.521 -1.3015  1.3918 -0.9989
11004TIP3   OH254426   3.964   0.929   3.921 -0.7356 -0.0407  0.5684
11004TIP3    H154427   4.001   0.892   4.002 -0.3724  2.1376  1.4621
11004TIP3    H254428   4.028   0.906   3.853  0.0330 -0.1059  1.2966
11005TIP3   OH254429   4.332   2.293  10.702  0.4934  0.0092 -0.3361
11005TIP3    H154430   4.320   2.294  10.797  0.7949  1.0569 -0.2900
11005TIP3    H254431   4.244   2.291  10.666  0.2344  2.6359 -0.0139
11006TIP3   OH254432   4.819   3.725  12.508 -0.1460  0.0797  0.5284
11006TIP3    H154433   4.798   3.702  12.417 -0.6435 -1.7296  1.0675
11006TIP3    H254434   4.878   3.800  12.500 -1.4741  1.0281 -1.2305
11007TIP3   OH254435   4.311   3.806  12.372  0.0761  0.1750  0.0629
11007TIP3    H154436   4.327   3.863  12.447  0.5285  0.2585 -0.0907
11007TIP3    H254437   4.370   3.731  12.386 -0.3978 -0.1789  0.1842
11008TIP3   OH254438   1.647   6.157   5.357  0.3055  0.4201  0.6903
11008TIP3    H154439   1.696   6.105   5.421  0.5712 -0.0492  0.1145
11008TIP3    H254440   1.691   6.242   5.357  1.2163 -0.0396  0.0836
11009TIP3   OH254441   3.756   5.056   4.147 -0.3750  0.1196  0.2346
11009TIP3    H154442   3.805   4.978   4.174 -1.2112 -1.7358 -3.0559
11009TIP3    H254443   3.669   5.043   4.185 -0.4058 -0.4029 -0.0001
11010TIP3   OH254444   2.427   3.631  12.530  0.3674  0.0261  0.0911
11010TIP3    H154445   2.504   3.668  12.487  0.2666 -0.3664 -0.4451
11010TIP3    H254446   2.363   3.702  12.530  1.4362  1.1081  2.5559
11011TIP3   OH254447   1.636   2.707   0.096 -0.0224  0.2258 -0.0476
11011TIP3    H154448   1.616   2.623   0.055 -1.4429  0.1814  0.6452
11011TIP3    H254449   1.641   2.769   0.023 -0.3400 -0.2229 -0.4587
11012TIP3   OH254450   2.674   0.576  13.815 -0.3074  0.2640  0.7195
11012TIP3    H154451   2.695   0.661  13.776 -0.5541  0.0584  0.1333
11012TIP3    H254452   2.590   0.552  13.776  0.4374 -0.9164 -0.1972
11013TIP3   OH254453   2.512   6.670  12.468  0.3291  0.1207 -0.5105
11013TIP3    H154454   2.480   6.707  12.550  0.8412  0.3328 -0.4028
11013TIP3    H254455   2.607   6.662  12.481  0.2001 -1.4641 -0.4470
11014TIP3   OH254456   6.243   6.047   2.013 -0.6927  0.0880 -0.0054
11014TIP3    H154457   6.190   6.008   1.944 -0.4929  0.8352 -0.5964
11014TIP3    H254458   6.285   5.972   2.057 -0.9451 -0.4002 -0.5888
11015TIP3   OH254459   4.776   2.509   5.267  0.3792 -0.7144 -0.2719
11015TIP3    H154460   4.689   2.531   5.233  0.4358 -0.1946 -0.0777
11015TIP3    H254461   4.761   2.428   5.317 -0.1737 -0.1224  0.5401
11016TIP3   OH254462   3.071   3.224   1.886 -0.3772  0.4310  0.6148
11016TIP3    H154463   3.133   3.173   1.835  1.0438  1.2746  1.4314
11016TIP3    H254464   3.026   3.279   1.822 -0.2996 -0.1946  0.0185
11017TIP3   OH254465   5.107   1.442  14.599 -0.0523  0.0758  0.1518
11017TIP3    H154466   5.113   1.418  14.507 -1.6886 -1.7334  0.4499
11017TIP3    H254467   5.013   1.449  14.616  0.1543 -0.9311  1.9579
11018TIP3   OH254468   0.860   0.106   2.635  0.5605  0.7525 -0.2652
11018TIP3    H154469   0.836   0.082   2.725 -2.8003  1.4120 -0.8646
11018TIP3    H254470   0.850   0.025   2.585  0.3070  0.8615 -0.3933
11019TIP3   OH254471   1.038   5.570   3.897 -0.0072 -0.2377 -0.3588
11019TIP3    H154472   0.947   5.551   3.920  0.3714 -0.7029  0.7985
11019TIP3    H254473   1.042   5.666   3.891  0.0342 -0.0013  2.3804
11020TIP3   OH254474   5.338   2.776  10.495 -0.2080  0.2264 -0.6749
11020TIP3    H154475   5.310   2.740  10.579 -0.0268  0.9451 -0.2976
11020TIP3    H254476   5.430   2.754  10.489 -0.3767 -0.3949 -0.9884
11021TIP3   OH254477   4.950   5.284   2.931 -0.2676  0.2058  0.1381
11021TIP3    H154478   4.996   5.266   3.013  0.0855 -0.9414 -0.2850
11021TIP3    H254479   4.931   5.378   2.933  0.2141  0.2876  1.2799
11022TIP3   OH254480   0.259   3.266   1.180  0.3761 -0.2159  0.3211
11022TIP3    H154481   0.222   3.333   1.125 -1.2202 -1.5451 -0.2950
11022TIP3    H254482   0.264   3.306   1.267 -0.6617  0.6435 -0.0013
11023TIP3   OH254483   0.668   0.856  13.984 -0.0991  0.4595  0.1529
11023TIP3    H154484   0.659   0.851  13.889  0.8087 -0.8727  0.1055
11023TIP3    H254485   0.581   0.835  14.017  0.0922 -1.2714 -0.3716
11024TIP3   OH254486   2.633   0.536   2.976 -0.3852 -0.5789  0.0871
11024TIP3    H154487   2.672   0.614   3.014 -0.2722  0.1729 -1.5094
11024TIP3    H254488   2.702   0.499   2.921  0.4182 -3.1860  2.5955
11025TIP3   OH254489   6.638   2.609  11.418 -0.4879 -0.1056  0.0671
11025TIP3    H154490   6.580   2.668  11.466 -1.5969  0.2998 -1.6993
11025TIP3    H254491   6.591   2.526  11.416 -0.7066  0.0351 -0.7842
11026TIP3   OH254492   6.570   2.683  13.524 -0.2546  0.1656 -0.0822
11026TIP3    H154493   6.546   2.734  13.447 -1.0974 -0.5610 -0.3177
11026TIP3    H254494   6.599   2.599  13.488 -0.1551  0.0028  0.3731
11027TIP3   OH254495   1.873   3.775   0.727  0.1022 -0.0760  0.0232
11027TIP3    H154496   1.780   3.783   0.748 -0.3044  0.0781 -1.6815
11027TIP3    H254497   1.918   3.800   0.808 -1.3262  0.6130  0.6464
11028TIP3   OH254498   0.484   3.000  12.142 -0.0785  0.3151 -0.1028
11028TIP3    H154499   0.522   3.087  12.134 -1.8900  1.4768  2.5709
11028TIP3    H254500   0.534   2.958  12.212  0.4019 -0.6422 -0.9794
11029TIP3   OH254501   2.853   5.926  17.051 -0.0914 -0.0424 -0.3032
11029TIP3    H154502   2.866   6.000  16.992  1.5661 -1.0173 -1.2622
11029TIP3    H254503   2.914   5.941  17.123 -0.0656 -0.2468 -0.2819
11030TIP3   OH254504   3.399   4.256   4.722  0.2454  0.2622  0.9374
11030TIP3    H154505   3.483   4.247   4.766  0.1209 -0.1472  1.0948
11030TIP3    H254506   3.335   4.223   4.785  0.1857 -1.5105  0.0023
11031TIP3   OH254507   1.442   5.354   1.419 -0.9330 -0.2524 -0.1026
11031TIP3    H154508   1.391   5.322   1.344 -1.6290 -1.9112  0.9975
11031TIP3    H254509   1.393   5.322   1.495  0.6516 -0.0493  1.0347
11032TIP3   OH254510   0.528   6.467  13.367  0.0909 -0.1515 -0.2323
11032TIP3    H154511   0.545   6.431  13.281 -0.0678  0.0650 -0.3553
11032TIP3    H254512   0.511   6.560  13.352 -2.5973 -0.5775 -0.3112
11033TIP3   OH254513   1.517   0.318   4.890 -0.3556 -0.0670  0.1055
11033TIP3    H154514   1.551   0.290   4.974 -1.5762 -1.2977  0.2318
11033TIP3    H254515   1.431   0.356   4.910 -0.3810  0.2276 -0.5215
11034TIP3   OH254516   6.312   5.327   5.152 -0.5398 -0.0843 -0.2729
11034TIP3    H154517   6.306   5.245   5.202  0.1590 -1.0865 -1.7547
11034TIP3    H254518   6.405   5.340   5.139 -0.7217 -0.4676 -2.2366
11035TIP3   OH254519   4.716   2.637  13.875  0.1020  0.8794 -0.4028
11035TIP3    H154520   4.737   2.651  13.967  1.5097 -1.5320 -0.2687
11035TIP3    H254521   4.629   2.597  13.876  0.2289  0.6040 -0.0808
11036TIP3   OH254522   5.838   3.567   1.023  0.0267  0.0608 -0.9221
11036TIP3    H154523   5.819   3.629   1.093 -0.2828 -0.5676 -0.4311
11036TIP3    H254524   5.763   3.508   1.022  0.1451 -0.0809 -1.6234
11037TIP3   OH254525   1.954   1.481   2.792 -0.2401  0.1949  0.3334
11037TIP3    H154526   1.919   1.392   2.787  0.6369 -0.1233 -0.6312
11037TIP3    H254527   1.888   1.536   2.750 -0.4982 -0.0907  0.3618
11038TIP3   OH254528   0.101   3.682  15.293 -0.1468  0.1315 -0.4607
11038TIP3    H154529   0.094   3.688  15.388  1.6185  1.1524 -0.3511
11038TIP3    H254530   0.087   3.771  15.262  1.8846  0.3546 -0.8948
11039TIP3   OH254531   3.747   1.753  15.417  0.3225 -0.0971  0.5632
11039TIP3    H154532   3.682   1.783  15.481  1.5693 -0.8471  2.2612
11039TIP3    H254533   3.798   1.687  15.464  0.7119 -1.3653 -1.5366
11040TIP3   OH254534   2.313   3.575  16.367 -0.4483  0.0267  0.2467
11040TIP3    H154535   2.330   3.631  16.443 -0.9411  0.0178  0.3616
11040TIP3    H254536   2.330   3.487  16.399  0.6263  0.1245 -0.0193
11041TIP3   OH254537   0.915   0.645   4.763  0.0646  0.3453  0.0872
11041TIP3    H154538   0.993   0.659   4.708 -0.5919  2.2455 -0.4296
11041TIP3    H254539   0.875   0.565   4.728  1.4183 -0.3063 -0.0475
11042TIP3   OH254540   2.794   2.387   5.386  0.3060 -0.0737 -0.0962
11042TIP3    H154541   2.719   2.372   5.329 -0.7703 -0.1967  1.3071
11042TIP3    H254542   2.860   2.325   5.355 -0.2241 -0.1047 -1.2157
11043TIP3   OH254543   4.143   3.464  16.516  0.3622 -0.0944  0.4328
11043TIP3    H154544   4.212   3.494  16.575 -0.2331  0.8649  0.6605
11043TIP3    H254545   4.138   3.369  16.531  0.9989 -0.0369  1.0703
11044TIP3   OH254546   5.943   1.610  11.941 -0.0252  0.9491  0.1469
11044TIP3    H154547   6.020   1.666  11.932 -0.3034  1.3987  0.5173
11044TIP3    H254548   5.951   1.574  12.030  1.8853 -2.2118 -1.1277
11045TIP3   OH254549   0.498   3.133   1.158  0.1322 -0.3489 -0.5404
11045TIP3    H154550   0.433   3.201   1.139  0.3809  0.0200 -0.0762
11045TIP3    H254551   0.484   3.068   1.089  0.6237  0.6790 -1.6450
11046TIP3   OH254552   6.733   0.405   4.688  0.2695 -0.4597 -0.1963
11046TIP3    H154553   6.775   0.338   4.633  0.3814 -1.2311  0.7929
11046TIP3    H254554   6.702   0.356   4.764 -1.7173  0.2293 -0.5177
11047TIP3   OH254555   4.281   2.739  11.873 -0.4376 -0.1393 -0.5119
11047TIP3    H154556   4.242   2.773  11.792 -0.3057  2.9856  0.6370
11047TIP3    H254557   4.206   2.706  11.923 -1.0164  1.3344 -0.3712
11048TIP3   OH254558   3.422   3.025   4.730  0.2092 -0.3652 -0.5515
11048TIP3    H154559   3.487   3.025   4.660 -0.1438  1.2934 -0.9177
11048TIP3    H254560   3.340   3.050   4.687 -0.1854 -0.1673  0.2921
11049TIP3   OH254561   5.605   3.034   0.891  0.9715 -0.3808 -0.2925
11049TIP3    H154562   5.665   2.960   0.905  1.3466  0.1733  1.2184
11049TIP3    H254563   5.534   3.019   0.953  1.5430  1.0080  0.7559
11050TIP3   OH254564   0.922   5.774  13.169  0.7273 -0.3875 -0.4899
11050TIP3    H154565   0.842   5.730  13.201  0.0279  0.3136 -1.2242
11050TIP3    H254566   0.994   5.723  13.207 -0.0340  0.1877  1.9099
11051TIP3   OH254567   5.650   1.974  11.874 -0.5566  0.5252 -0.4115
11051TIP3    H154568   5.704   2.053  11.880 -1.5204  1.3201 -1.6948
11051TIP3    H254569   5.565   2.005  11.841 -1.1568 -0.9665 -0.3508
11052TIP3   OH254570   6.042   5.227  11.615  0.5081  0.2032 -0.1581
11052TIP3    H154571   6.093   5.245  11.536  0.2578  0.0291 -0.3610
11052TIP3    H254572   6.053   5.133  11.629 -0.2592  0.0481 -0.5580
11053TIP3   OH254573   2.164   2.539  11.915 -0.0402 -0.2639  0.0794
11053TIP3    H154574   2.244   2.570  11.959 -0.7387  2.0674 -0.1341
11053TIP3    H254575   2.129   2.618  11.873 -1.4681 -1.6284 -1.4056
11054TIP3   OH254576   3.507   1.558  14.959  0.6933  0.1046  0.5400
11054TIP3    H154577   3.518   1.602  15.044 -0.9193  1.0707  0.2907
11054TIP3    H254578   3.438   1.608  14.915  1.8178 -0.1070 -1.5493
11055TIP3   OH254579   4.571   4.068  11.256 -0.7468 -0.1141 -0.5339
11055TIP3    H154580   4.591   4.142  11.199  0.3773  0.2905  0.3426
11055TIP3    H254581   4.601   4.096  11.343 -0.5773 -1.4730 -0.1273
11056TIP3   OH254582   2.398   5.500   4.115  0.1910  0.0974 -0.4570
11056TIP3    H154583   2.424   5.439   4.047  1.4766 -0.5854  0.5988
11056TIP3    H254584   2.381   5.582   4.069  1.7905 -0.1256 -1.5247
11057TIP3   OH254585   5.286   5.637  17.136  0.1995 -0.5138 -0.2530
11057TIP3    H154586   5.319   5.580  17.066  2.0193 -0.0552  0.1953
11057TIP3    H254587   5.282   5.580  17.213  2.7629  0.0443  0.3913
11058TIP3   OH254588   6.521   2.377   2.817  0.0353 -0.0220  0.2390
11058TIP3    H154589   6.589   2.442   2.804 -0.2587  0.6502  1.8937
11058TIP3    H254590   6.506   2.376   2.911 -0.4964 -1.9595  0.1651
11059TIP3   OH254591   3.610   4.504  17.125  0.3530  0.1858 -0.1224
11059TIP3    H154592   3.652   4.424  17.094  0.6285 -0.0541  0.8235
11059TIP3    H254593   3.517   4.486  17.119  0.4094 -0.0119 -0.4087
11060TIP3   OH254594   6.566   6.088  15.548 -0.0777 -0.0764  0.3045
11060TIP3    H154595   6.521   6.075  15.465 -0.2804 -1.6707  0.6325
11060TIP3    H254596   6.533   6.171  15.581 -0.3080  0.3726 -0.9976
11061TIP3   OH254597   1.569   1.228  17.265 -0.3946 -0.1307 -0.0848
11061TIP3    H154598   1.501   1.255  17.326 -0.9272 -1.7179  0.0744
11061TIP3    H254599   1.646   1.280  17.289 -1.2287  0.8871  0.4450
11062TIP3   OH254600   1.252   2.657  16.915  0.4788 -0.0567  0.1980
11062TIP3    H154601   1.298   2.725  16.867 -0.1389  0.7700  0.7410
11062TIP3    H254602   1.314   2.630  16.983  0.7964 -0.1860 -0.1359
11063TIP3   OH254603   1.482   2.059  11.067 -0.9887  0.7157  0.0313
11063TIP3    H154604   1.560   2.109  11.042 -1.8945  2.4522  0.4807
11063TIP3    H254605   1.515   1.973  11.093  0.5408  0.6993 -1.7543
11064TIP3   OH254606   2.991   4.824  17.198 -0.1706 -0.4039 -0.3556
11064TIP3    H154607   2.935   4.749  17.217 -1.0049  0.3894  0.3793
11064TIP3    H254608   3.013   4.860  17.284  1.6601 -0.8166 -0.6100
11065TIP3   OH254609   6.651   6.053   4.385  0.0727  0.1847  0.0256
11065TIP3    H154610   6.690   6.031   4.300  0.1345  0.3318  0.0157
11065TIP3    H254611   6.558   6.061   4.368  0.2322  1.5342 -0.3052
11066TIP3   OH254612   0.757   6.297   0.531  0.3529 -0.4339 -0.0773
11066TIP3    H154613   0.739   6.207   0.558  1.0834 -0.2567  1.1276
11066TIP3    H254614   0.852   6.300   0.520  0.1901 -0.1743 -1.5778
11067TIP3   OH254615   3.025   3.856   2.406  0.6418  0.7335 -0.1168
11067TIP3    H154616   2.946   3.910   2.397  1.1566  1.4829 -0.2854
11067TIP3    H254617   3.053   3.840   2.316 -0.0634 -0.6778 -0.1016
11068TIP3   OH254618   2.167   0.494  17.259 -0.3286 -0.4532  0.1306
11068TIP3    H154619   2.207   0.466  17.177 -0.2142 -3.3002  1.0488
11068TIP3    H254620   2.230   0.555  17.297  1.7141 -2.4468  0.0990
11069TIP3   OH254621   2.677   5.922   0.789  0.0950 -0.6808 -0.1514
11069TIP3    H154622   2.593   5.967   0.780  0.1480 -0.3979  0.6795
11069TIP3    H254623   2.654   5.831   0.806 -0.0122 -1.0502 -2.0462
11070TIP3   OH254624   4.161   1.622  13.293 -0.2189  0.1909 -0.0438
11070TIP3    H154625   4.153   1.716  13.312  0.8542  0.4049 -0.5647
11070TIP3    H254626   4.079   1.599  13.249  0.4563  1.4624 -2.1371
11071TIP3   OH254627   3.111   0.532   5.361  0.2794  0.2195  0.0218
11071TIP3    H154628   3.168   0.555   5.434  0.4803 -0.5454  0.1212
11071TIP3    H254629   3.083   0.616   5.324 -1.4837  0.6898  2.2223
11072TIP3   OH254630   5.497   4.979  14.638  0.2000  0.1871 -0.1303
11072TIP3    H154631   5.450   5.016  14.563 -0.4461 -0.8534 -0.2545
11072TIP3    H254632   5.589   4.993  14.617  0.0260 -0.0546 -1.1016
11073TIP3   OH254633   6.574   5.623  11.369  0.3185  0.5862  0.2894
11073TIP3    H154634   6.521   5.544  11.380  0.6451  0.2590 -0.3686
11073TIP3    H254635   6.514   5.695  11.386 -0.0497  0.2032  0.6498
11074TIP3   OH254636   3.710   5.916  16.216 -0.2746 -0.4279  0.0177
11074TIP3    H154637   3.756   5.861  16.280 -0.0802 -0.0984  0.1661
11074TIP3    H254638   3.756   5.900  16.134 -1.6543 -2.2394 -0.4530
11075TIP3   OH254639   4.179   4.408  13.827  0.1641  0.2808 -0.2543
11075TIP3    H154640   4.185   4.314  13.844 -0.8406  0.2014 -0.3122
11075TIP3    H254641   4.256   4.427  13.772  1.3228 -0.1635  1.1572
11076TIP3   OH254642   4.543   4.396  15.885 -0.5429  0.0317 -0.1906
11076TIP3    H154643   4.610   4.364  15.947  0.9160  0.6259 -1.3967
11076TIP3    H254644   4.518   4.319  15.835  1.1038  0.2163 -1.3865
11077TIP3   OH254645   1.808   4.688  14.240 -0.4176 -0.0861  0.4944
11077TIP3    H154646   1.897   4.659  14.260  0.2901  1.2458 -0.5012
11077TIP3    H254647   1.789   4.651  14.154 -0.9693 -0.6439  0.8504
11078TIP3   OH254648   3.027   0.997   5.591 -0.1206 -0.4326  0.4021
11078TIP3    H154649   2.967   0.963   5.524 -0.0941  1.7352 -0.8162
11078TIP3    H254650   3.082   1.059   5.544  1.2379 -0.3134  2.0743
11079TIP3   OH254651   6.146   4.145  10.809  0.0097 -0.0984 -0.5067
11079TIP3    H154652   6.184   4.097  10.882 -1.2805 -0.6443 -0.1721
11079TIP3    H254653   6.175   4.236  10.821  1.0432 -0.4589 -0.1819
11080TIP3   OH254654   4.718   0.704  16.803  0.1331  0.7224  0.9351
11080TIP3    H154655   4.781   0.695  16.874 -1.0814 -1.7884  1.8069
11080TIP3    H254656   4.641   0.745  16.844 -0.6912 -1.0261  1.2337
11081TIP3   OH254657   3.489   1.036   2.561  0.3079 -0.6293 -0.1672
11081TIP3    H154658   3.425   1.065   2.495 -1.0621  0.7042  1.6158
11081TIP3    H254659   3.436   1.020   2.639  2.0054 -1.0176  0.9471
11082TIP3   OH254660   5.515   3.827  12.019  0.0961  0.3364  0.0618
11082TIP3    H154661   5.598   3.794  11.984  0.2039  1.5093 -0.8312
11082TIP3    H254662   5.448   3.790  11.961 -0.0018 -0.3954  0.6251
11083TIP3   OH254663   0.752   0.310  16.938  0.1142 -0.7400  0.0273
11083TIP3    H154664   0.714   0.356  16.863  0.7224  1.0438  0.7395
11083TIP3    H254665   0.847   0.313  16.922  0.2084 -0.9386  0.5345
11084TIP3   OH254666   5.911   0.870   5.356  0.0140  0.0676  0.3648
11084TIP3    H154667   5.852   0.944   5.339 -0.7866 -0.6462 -0.0024
11084TIP3    H254668   5.936   0.880   5.448 -0.3219  0.6294  0.3989
11085TIP3   OH254669   0.207   6.710  15.327  0.9705  0.6398 -0.1726
11085TIP3    H154670   0.131   6.676  15.374  2.0918 -4.7082 -1.5218
11085TIP3    H254671   0.170   6.755  15.251 -0.8529  0.0699  0.3184
11086TIP3   OH254672   4.683   6.065  12.713  0.3367  0.1621 -0.0405
11086TIP3    H154673   4.648   5.983  12.676  0.3844  0.9010 -1.8462
11086TIP3    H254674   4.615   6.095  12.774 -1.2888  0.4842 -1.8968
11087TIP3   OH254675   3.757   0.337   0.130  0.4868 -0.4840 -0.7310
11087TIP3    H154676   3.846   0.372   0.136  0.5618 -0.8134  0.1541
11087TIP3    H254677   3.702   0.406   0.167  0.4215 -0.4559 -0.8825
11088TIP3   OH254678   5.886   3.245  13.942 -0.4803 -0.1841  0.7949
11088TIP3    H154679   5.862   3.152  13.949  1.6700 -0.7908  0.8814
11088TIP3    H254680   5.879   3.265  13.849 -0.5011 -0.5778  0.7103
11089TIP3   OH254681   3.787   2.570  13.861 -0.4731 -0.3211  0.9135
11089TIP3    H154682   3.693   2.569  13.879 -0.6531 -1.1576 -0.0158
11089TIP3    H254683   3.803   2.488  13.814  0.8363 -0.4920  1.6244
11090TIP3   OH254684   3.480   4.939  11.027  0.2448 -0.1795  0.2016
11090TIP3    H154685   3.568   4.909  11.052  0.8157  0.1233 -1.3659
11090TIP3    H254686   3.464   5.014  11.084  1.2855  0.1616  0.0766
11091TIP3   OH254687   0.848   2.204   3.992  0.2775  0.1605 -0.4930
11091TIP3    H154688   0.866   2.116   4.026  1.2212  0.9052  1.0754
11091TIP3    H254689   0.905   2.213   3.916 -0.2381 -0.7722 -1.0011
11092TIP3   OH254690   5.155   3.216  13.076 -0.7868 -0.3656  0.0775
11092TIP3    H154691   5.078   3.181  13.030 -0.4384 -0.4983 -0.4222
11092TIP3    H254692   5.178   3.295  13.026  1.8543 -2.4778 -2.4072
11093TIP3   OH254693   5.385   2.485  16.867  0.7640  0.2043  0.3310
11093TIP3    H154694   5.378   2.436  16.784  2.0496  0.4862  0.0437
11093TIP3    H254695   5.328   2.561  16.855  0.0678 -0.3359  0.1408
11094TIP3   OH254696   5.149   2.730  14.475 -0.4582 -0.2327 -0.0163
11094TIP3    H154697   5.243   2.732  14.495 -0.4586  0.2520 -0.0498
11094TIP3    H254698   5.128   2.637  14.467  0.4672 -0.3065 -2.1573
11095TIP3   OH254699   0.769   3.939  12.754  0.2985 -0.0077 -0.0317
11095TIP3    H154700   0.677   3.947  12.779  0.4022  2.1025 -0.1428
11095TIP3    H254701   0.767   3.889  12.672 -0.6618 -0.6758  0.3790
11096TIP3   OH254702   1.009   3.320  15.011  0.7666 -0.2848 -0.5368
11096TIP3    H154703   1.099   3.304  15.040  0.1223  0.2768  2.0029
11096TIP3    H254704   0.986   3.404  15.049 -1.2665 -1.0403  0.0460
11097TIP3   OH254705   5.299   3.867   1.627  0.0683 -0.3628  0.2289
11097TIP3    H154706   5.312   3.881   1.721 -1.4451  0.2363  0.3788
11097TIP3    H254707   5.272   3.953   1.594 -2.0030 -1.1474 -0.2536
11098TIP3   OH254708   1.597   2.583   1.040 -0.0194 -0.0933  0.5207
11098TIP3    H154709   1.584   2.677   1.051 -0.2772 -0.1260  0.5081
11098TIP3    H254710   1.511   2.550   1.013 -0.3175 -0.5400  1.9132
11099TIP3   OH254711   2.912   3.678  16.103 -0.0424 -0.4533  0.2607
11099TIP3    H154712   2.952   3.699  16.019  1.1736 -2.3928  0.2817
11099TIP3    H254713   2.880   3.762  16.137  0.2813  0.5054 -1.6871
11100TIP3   OH254714   0.098   3.050   1.148 -0.4327  0.2614 -0.1901
11100TIP3    H154715   0.109   3.063   1.053  1.7225  1.5904  0.1679
11100TIP3    H254716   0.170   3.100   1.187 -1.1793 -0.3914  2.1608
11101TIP3   OH254717   5.701   0.053  13.339  0.4649  0.2722 -0.1613
11101TIP3    H154718   5.632   0.058  13.274  1.9477 -0.6743 -1.9046
11101TIP3    H254719   5.776   0.098  13.299  1.4520 -0.4292  0.8146
11102TIP3   OH254720   5.856   2.268   4.860  0.0052  0.0473 -0.4109
11102TIP3    H154721   5.767   2.276   4.825  0.3782 -0.0575 -1.4083
11102TIP3    H254722   5.896   2.197   4.809  0.1730 -0.9966  1.0837
11103TIP3   OH254723   3.822   5.286  12.586  0.4535 -0.1598 -0.1967
11103TIP3    H154724   3.892   5.260  12.527 -0.1513  0.1994 -1.1010
11103TIP3    H254725   3.866   5.333  12.656  1.1105  0.2627 -0.8741
11104TIP3   OH254726   2.046   3.148  12.565 -0.0033  0.4195  0.0153
11104TIP3    H154727   2.041   3.156  12.470  0.9051  0.2614 -0.0615
11104TIP3    H254728   1.958   3.169  12.596  0.2427  2.7436 -0.6908
11105TIP3   OH254729   1.977   3.245  15.502 -0.0272 -0.0830  0.2821
11105TIP3    H154730   1.927   3.190  15.442  2.3504 -0.4965 -1.4806
11105TIP3    H254731   2.014   3.185  15.566  0.9230 -0.3055 -0.4470
11106TIP3   OH254732   3.026   5.324  15.601  0.3687  0.1393 -0.8386
11106TIP3    H154733   2.966   5.377  15.653  2.7908  2.1348  0.1764
11106TIP3    H254734   3.051   5.252  15.659  0.0066  0.0725 -0.7619
11107TIP3   OH254735   4.039   4.065   5.473 -0.1429 -0.4261  0.5570
11107TIP3    H154736   4.115   4.094   5.423 -0.6932 -0.2579 -0.1927
11107TIP3    H254737   4.070   4.063   5.564  0.1378  1.7493  0.5485
11108TIP3   OH254738   4.858   0.045  11.183  0.6858 -0.2629  0.2695
11108TIP3    H154739   4.942   0.003  11.165  0.7203 -0.0434 -0.0929
11108TIP3    H254740   4.830   0.080  11.098  0.6161  0.3619  0.5459
11109TIP3   OH254741   3.151   5.035  11.331 -0.0787  0.0229 -0.0193
11109TIP3    H154742   3.213   5.104  11.353  1.3978 -1.0674 -0.5771
11109TIP3    H254743   3.198   4.979  11.269 -1.3629 -1.2542  0.0924
11110TIP3   OH254744   2.539   4.021  11.578  0.1086  0.3154  0.7055
11110TIP3    H154745   2.599   4.073  11.525 -0.5571  1.8732  1.4089
11110TIP3    H254746   2.569   4.033  11.668  1.2900 -2.3860  0.7731
11111TIP3   OH254747   2.646   2.656  11.621  0.2060 -0.1054 -0.0200
11111TIP3    H154748   2.670   2.579  11.671 -0.9614  0.3297  1.2628
11111TIP3    H254749   2.619   2.622  11.535 -0.6107 -1.1670  0.6387
11112TIP3   OH254750   6.370   3.933   2.776 -0.0618 -0.6727 -0.6017
11112TIP3    H154751   6.288   3.902   2.815 -0.2225  1.7240  1.2503
11112TIP3    H254752   6.344   3.972   2.693 -0.8468  0.0292 -0.0489
11113TIP3   OH254753   3.680   5.289  14.372  0.1338  0.2326  1.1296
11113TIP3    H154754   3.775   5.294  14.386  0.1647 -0.3041  1.1604
11113TIP3    H254755   3.666   5.328  14.286  0.2788  1.0782  1.4758
11114TIP3   OH254756   3.300   2.433   4.435 -0.3250  0.2725 -0.7232
11114TIP3    H154757   3.324   2.497   4.502  0.0185 -1.1187  0.5329
11114TIP3    H254758   3.205   2.436   4.431 -0.8833 -2.6998  3.2046
11115TIP3   OH254759   5.444   6.435   2.649  0.2340 -0.1920 -0.4621
11115TIP3    H154760   5.454   6.429   2.744  0.5382 -0.1815 -0.4912
11115TIP3    H254761   5.466   6.347   2.617  2.2136  0.3268 -0.6860
11116TIP3   OH254762   6.340   3.418  13.335 -0.7712  0.8142 -0.4560
11116TIP3    H154763   6.409   3.440  13.397 -2.2952  1.8689  0.9454
11116TIP3    H254764   6.387   3.380  13.260  1.3223  1.6438  0.3432
11117TIP3   OH254765   4.454   3.319   3.821  0.5074  0.1723 -0.1054
11117TIP3    H154766   4.430   3.244   3.876 -3.1264  0.4376 -1.0861
11117TIP3    H254767   4.492   3.383   3.883  1.7685 -1.6003  1.0631
11118TIP3   OH254768   0.491   4.214   5.864 -0.0502 -0.7275  0.6504
11118TIP3    H154769   0.512   4.231   5.956 -0.7507  1.2649  0.4884
11118TIP3    H254770   0.476   4.300   5.826 -1.5159 -1.6012 -0.9141
11119TIP3   OH254771   5.341   0.595   3.402  0.0650  0.0090  0.3516
11119TIP3    H154772   5.280   0.585   3.329 -1.3165 -0.2731  1.4877
11119TIP3    H254773   5.329   0.686   3.430  2.2583  0.8269 -1.1419
11120TIP3   OH254774   0.478   2.576  11.485 -0.1918 -0.8978 -0.2289
11120TIP3    H154775   0.554   2.567  11.428 -0.4123  0.6001 -0.8072
11120TIP3    H254776   0.405   2.541  11.433 -0.5428  1.2378 -1.2870
11121TIP3   OH254777   3.629   0.949  15.149  0.3042  0.7799 -0.1563
11121TIP3    H154778   3.539   0.937  15.120  0.9178  1.7379 -2.7092
11121TIP3    H254779   3.639   1.044  15.160  0.9755  0.6790  0.1835
11122TIP3   OH254780   5.708   0.904  14.937 -0.0417  0.3105  0.1204
11122TIP3    H154781   5.672   0.899  14.849  0.8902  0.7623 -0.2958
11122TIP3    H254782   5.671   0.828  14.982 -0.9405  0.3670 -0.4953
11123TIP3   OH254783   6.699   1.694   1.575  0.0283  0.6116 -0.1389
11123TIP3    H154784   6.607   1.689   1.602  0.2598 -0.8866  0.4750
11123TIP3    H254785   6.709   1.623   1.511  0.5724  1.2951 -0.8361
11124TIP3   OH254786   2.296   1.071  17.164  0.1840 -0.1102  0.0756
11124TIP3    H154787   2.283   1.156  17.123 -0.2901  0.0022  0.4519
11124TIP3    H254788   2.372   1.084  17.222 -1.0530  0.6232  1.6140
11125TIP3   OH254789   6.586   1.505   0.022  0.7527  0.1726  0.0456
11125TIP3    H154790   6.621   1.590   0.046  1.7036  0.3363 -1.7587
11125TIP3    H254791   6.611   1.447   0.094  1.7499  1.0187  0.3984
11126TIP3   OH254792   3.610   1.263  16.087  1.0591  0.0808 -0.2704
11126TIP3    H154793   3.673   1.257  16.159 -0.1720 -0.5663  0.7906
11126TIP3    H254794   3.558   1.341  16.108  1.1386  0.2869 -0.8355
11127TIP3   OH254795   2.721   5.441   3.330  0.1966  0.2961  0.0677
11127TIP3    H154796   2.758   5.424   3.417  0.8871 -0.1647 -0.3132
11127TIP3    H254797   2.764   5.522   3.301 -1.9785  1.9898  1.2410
11128TIP3   OH254798   0.894   5.188   4.943 -0.2604  0.1695  0.2611
11128TIP3    H154799   0.921   5.176   5.035 -0.9138  1.9648  0.7225
11128TIP3    H254800   0.965   5.149   4.892  0.5520 -0.0460  1.5130
11129TIP3   OH254801   5.347   1.087   5.837  0.2532  0.6173 -0.3398
11129TIP3    H154802   5.341   1.136   5.919 -0.9076  1.4889 -0.9034
11129TIP3    H254803   5.414   1.021   5.853  0.4435  1.1204  1.1192
11130TIP3   OH254804   4.341   3.111  12.380  0.4864 -0.1324  0.0828
11130TIP3    H154805   4.395   3.176  12.335  0.5294 -0.9619 -1.1061
11130TIP3    H254806   4.368   3.028  12.341 -1.0157 -0.6508  0.1127
11131TIP3   OH254807   3.545   6.729  17.131  0.3409  0.5454  0.5867
11131TIP3    H154808   3.563   6.690  17.216 -0.4807 -0.9307  0.1224
11131TIP3    H254809   3.586   6.815  17.135  2.6784 -0.5146  1.4997
11132TIP3   OH254810   5.612   0.852  12.332  0.1111 -0.5272  0.9555
11132TIP3    H154811   5.586   0.940  12.308  1.7184 -0.4050 -0.5775
11132TIP3    H254812   5.663   0.863  12.413  0.4440 -0.0134  0.6806
11133TIP3   OH254813   5.064   0.226   4.237  0.3652 -0.3078  0.0402
11133TIP3    H154814   5.044   0.301   4.181 -1.7582  0.3270  1.5259
11133TIP3    H254815   5.138   0.184   4.194  0.8177  1.8878 -1.5452
11134TIP3   OH254816   5.354   3.034  15.388  0.5636 -0.1936  1.0746
11134TIP3    H154817   5.361   3.105  15.324  0.1029 -0.1631  1.0547
11134TIP3    H254818   5.314   2.962  15.339  0.0459 -0.1137  1.3669
11135TIP3   OH254819   2.327   2.764   6.084 -0.3670 -0.4397 -0.0684
11135TIP3    H154820   2.418   2.741   6.062  0.1754  0.5336  1.1050
11135TIP3    H254821   2.331   2.795   6.174 -1.8118 -0.0018 -0.1375
11136TIP3   OH254822   6.091   3.604  12.976 -0.2658  0.3885 -0.8151
11136TIP3    H154823   6.126   3.516  12.984 -1.4444 -0.2376 -2.2725
11136TIP3    H254824   6.070   3.630  13.066  0.7645 -0.5059 -0.2978
11137TIP3   OH254825   2.846   4.065   0.135 -0.6164  0.3254 -0.2706
11137TIP3    H154826   2.803   3.991   0.092  0.0561 -0.7352  0.8029
11137TIP3    H254827   2.774   4.113   0.176 -1.2438  1.2136 -2.2664
11138TIP3   OH254828   5.277   6.288  12.895 -0.2931 -0.4863 -0.3998
11138TIP3    H154829   5.352   6.274  12.838 -0.9014 -0.7540 -1.1427
11138TIP3    H254830   5.203   6.300  12.836 -0.3585  3.0189  0.1740
11139TIP3   OH254831   3.353   4.231   3.360  0.5579 -0.2584 -0.8389
11139TIP3    H154832   3.280   4.230   3.298 -0.6304  1.7283  0.4173
11139TIP3    H254833   3.422   4.280   3.314  0.2268 -0.0538 -1.1223
11140TIP3   OH254834   0.400   3.218   5.111  0.1023 -0.0468  0.2291
11140TIP3    H154835   0.354   3.299   5.134 -0.6643 -0.6255  0.7667
11140TIP3    H254836   0.489   3.247   5.090  0.3060  0.7611  2.0185
11141TIP3   OH254837   1.697   1.143   2.877  0.7219  0.1901  0.1907
11141TIP3    H154838   1.762   1.075   2.863  0.6882  0.0595  0.6589
11141TIP3    H254839   1.747   1.217   2.911  0.6551  0.1641  0.3430
11142TIP3   OH254840   6.597   2.264  13.926  0.2262  0.0885 -0.0715
11142TIP3    H154841   6.583   2.349  13.968  1.0729  0.0394  0.3166
11142TIP3    H254842   6.512   2.243  13.887 -0.5634  0.1997  1.4972
11143TIP3   OH254843   3.683   4.805  14.568 -0.5497 -0.0369  0.0435
11143TIP3    H154844   3.616   4.829  14.632 -2.0617  1.5298 -1.9761
11143TIP3    H254845   3.640   4.740  14.512 -0.2209  0.5710 -0.9486
11144TIP3   OH254846   3.601   3.183  16.689  0.5065  0.1586  0.4015
11144TIP3    H154847   3.624   3.114  16.752 -0.7261  0.1977  0.9101
11144TIP3    H254848   3.509   3.202  16.707  0.4136  0.8614 -0.7732
11145TIP3   OH254849   5.053   4.301  14.519 -0.2203 -0.4306 -0.4644
11145TIP3    H154850   4.959   4.319  14.519 -0.5116 -1.7538 -1.7521
11145TIP3    H254851   5.092   4.379  14.558 -1.8053  0.4091 -0.4684
11146TIP3   OH254852   1.945   3.240   1.703 -0.1062  0.5226 -0.1410
11146TIP3    H154853   1.877   3.239   1.635 -0.3003 -0.4025  0.0623
11146TIP3    H254854   1.971   3.149   1.713  1.9821  0.9517 -1.0080
11147TIP3   OH254855   6.756   5.771   0.268 -0.3572 -0.0335 -0.0783
11147TIP3    H154856   6.751   5.733   0.180 -1.0219  0.6574 -0.3510
11147TIP3    H254857   6.664   5.784   0.294 -0.1705 -0.3576  0.7763
11148TIP3   OH254858   1.027   4.301   5.950 -0.4986 -0.2831  0.0177
11148TIP3    H154859   0.937   4.321   5.973 -0.0034 -0.3003  2.1671
11148TIP3    H254860   1.036   4.207   5.965  0.1405 -0.0998  0.8559
11149TIP3   OH254861   3.610   2.760   2.339 -0.0740 -0.4949  0.0834
11149TIP3    H154862   3.616   2.779   2.245 -0.3319  0.9332  0.3412
11149TIP3    H254863   3.558   2.680   2.344  0.4002 -0.8956 -1.0116
11150TIP3   OH254864   3.538   5.353  16.588 -0.1223 -0.0100  0.1069
11150TIP3    H154865   3.510   5.445  16.594 -0.8093 -0.2511  0.7926
11150TIP3    H254866   3.464   5.304  16.625  0.4809 -0.7938  0.2738
11151TIP3   OH254867   2.499   1.987  10.797 -0.3384 -0.3790 -0.1092
11151TIP3    H154868   2.586   2.020  10.775 -1.3831  1.1934 -2.1618
11151TIP3    H254869   2.471   1.940  10.719 -0.5943 -2.6228  1.2567
11152TIP3   OH254870   0.454   0.786  15.697 -0.4105  0.2793 -0.9362
11152TIP3    H154871   0.444   0.754  15.786  1.9969  0.1204 -0.6525
11152TIP3    H254872   0.379   0.843  15.683 -0.3076  1.1242  1.5626
11153TIP3   OH254873   4.475   6.516  13.032  0.2536  0.0950 -0.1241
11153TIP3    H154874   4.524   6.599  13.036 -0.0968  0.3912 -1.4843
11153TIP3    H254875   4.386   6.542  13.008 -0.2013 -0.5716  0.8146
11154TIP3   OH254876   4.619   2.747  16.696 -0.0208 -0.4346 -0.0919
11154TIP3    H154877   4.699   2.718  16.651  0.0078  1.2145 -1.1880
11154TIP3    H254878   4.650   2.794  16.773  0.0501 -0.1951 -0.2670
11155TIP3   OH254879   1.776   2.844   1.715  0.1167  0.3746 -0.2072
11155TIP3    H154880   1.826   2.770   1.682  0.2989 -0.4839  1.9082
11155TIP3    H254881   1.695   2.843   1.664  0.6249 -0.5262 -1.0190
11156TIP3   OH254882   1.408   2.187   2.992  0.5339 -0.0263 -0.4216
11156TIP3    H154883   1.476   2.137   2.946  0.3848 -1.4454  0.8224
11156TIP3    H254884   1.453   2.224   3.067 -0.2799 -2.1239  1.1949
11157TIP3   OH254885   5.430   2.056   3.776 -0.0822  0.2725  0.0450
11157TIP3    H154886   5.497   2.023   3.835  1.3435  0.5882 -1.3374
11157TIP3    H254887   5.478   2.104   3.709 -1.8173  2.0039 -0.0630
11158TIP3   OH254888   1.425   3.065  15.561  0.1500 -0.6788  0.4217
11158TIP3    H154889   1.396   2.975  15.547 -2.6983  0.2649 -0.5356
11158TIP3    H254890   1.403   3.084  15.652 -0.2842 -0.6336  0.3109
11159TIP3   OH254891   1.735   1.275  16.229 -0.2433  0.8481  0.1697
11159TIP3    H154892   1.680   1.215  16.179  0.1124  2.2526 -2.0561
11159TIP3    H254893   1.683   1.298  16.305 -1.6269  0.1023 -0.5141
11160TIP3   OH254894   5.451   6.596   4.718  0.1204 -0.1115 -0.1896
11160TIP3    H154895   5.489   6.682   4.736  1.0941 -0.1257 -2.0485
11160TIP3    H254896   5.516   6.550   4.666 -0.8041 -1.6252 -0.0832
11161TIP3   OH254897   3.863   3.262   2.292  0.1453  0.0944 -0.6334
11161TIP3    H154898   3.797   3.199   2.262 -0.5767  1.3256 -1.7246
11161TIP3    H254899   3.871   3.245   2.386  0.3218 -1.9177 -0.9788
11162TIP3   OH254900   1.468   2.578   5.400 -0.0673 -0.5702 -0.0911
11162TIP3    H154901   1.484   2.626   5.319  0.3398 -1.1818 -0.3804
11162TIP3    H254902   1.385   2.532   5.385  0.5628 -1.5861 -0.6139
11163TIP3   OH254903   4.304   3.392   2.651  0.3484 -0.0488 -0.2518
11163TIP3    H154904   4.399   3.385   2.643  0.5201  0.0141  1.4021
11163TIP3    H254905   4.270   3.351   2.571  1.7583  1.3239 -1.6327
11164TIP3   OH254906   5.914   2.940   2.502  0.4201  0.4087 -0.0855
11164TIP3    H154907   5.838   2.960   2.556 -0.5838 -0.4938 -1.1211
11164TIP3    H254908   5.910   2.846   2.487  3.1719 -0.1471  1.8995
11165TIP3   OH254909   6.322   5.837   2.193  0.0078  0.0509 -0.0762
11165TIP3    H154910   6.353   5.885   2.270  0.7755 -1.5055  0.6317
11165TIP3    H254911   6.231   5.815   2.213 -0.3716  1.2180 -0.4353
11166TIP3   OH254912   1.659   5.172   4.372 -0.4136 -0.5567 -0.9037
11166TIP3    H154913   1.693   5.260   4.355 -0.6820 -0.2793 -0.0538
11166TIP3    H254914   1.630   5.174   4.463 -1.1672 -1.2873 -1.1067
11167TIP3   OH254915   4.763   1.317  15.841  0.3680  0.1315  0.7225
11167TIP3    H154916   4.811   1.397  15.862 -0.5141  1.1359 -0.8919
11167TIP3    H254917   4.674   1.346  15.821  0.0662 -1.2170 -0.0791
11168TIP3   OH254918   0.446   3.494  14.063 -0.8865  0.5315  0.0245
11168TIP3    H154919   0.368   3.550  14.064 -1.8911 -0.7865  2.1171
11168TIP3    H254920   0.412   3.405  14.075  0.8906 -0.1905  0.0329
11169TIP3   OH254921   2.998   2.714  12.569  0.8191 -0.9589 -0.2392
11169TIP3    H154922   2.977   2.782  12.633  0.4904 -1.9382  0.7236
11169TIP3    H254923   3.067   2.753  12.515 -1.1881  1.1413 -1.4635
11170TIP3   OH254924   5.841   5.358   2.254 -0.5668  0.4201  0.1314
11170TIP3    H154925   5.887   5.366   2.337  0.5001 -0.4253 -0.3500
11170TIP3    H254926   5.753   5.328   2.278 -0.4218  0.6479  0.9810
11171TIP3   OH254927   0.072   4.912  13.124  0.2417  0.3074  0.0122
11171TIP3    H154928   0.153   4.924  13.174 -0.6995  1.9395  1.2411
11171TIP3    H254929   0.075   4.979  13.056 -0.0543  0.3465  0.0353
11172TIP3   OH254930   4.746   1.815  11.763  0.0595 -0.0316 -0.1873
11172TIP3    H154931   4.718   1.907  11.755 -1.4134 -0.4633 -0.2474
11172TIP3    H254932   4.814   1.817  11.831  1.0344  1.2834 -1.1221
11173TIP3   OH254933   3.484   5.234  11.920  0.3134 -0.0531 -0.4968
11173TIP3    H154934   3.528   5.188  11.990 -1.4586 -0.2765  0.5379
11173TIP3    H254935   3.476   5.324  11.952  1.0742  0.2815 -1.2066
11174TIP3   OH254936   4.784   1.417   0.367  0.1851 -0.0171  0.7234
11174TIP3    H154937   4.859   1.458   0.410  0.6719 -0.2751  0.1265
11174TIP3    H254938   4.822   1.358   0.303 -0.5262 -0.7845  0.9941
11175TIP3   OH254939   1.757   5.778  15.170  0.1018  0.0340 -0.1325
11175TIP3    H154940   1.664   5.797  15.180 -0.2472 -1.5696 -0.0646
11175TIP3    H254941   1.760   5.686  15.143  1.6315  0.3124 -1.0381
11176TIP3   OH254942   2.491   5.216   2.689  0.2128 -0.4426 -0.7180
11176TIP3    H154943   2.519   5.170   2.768 -0.9568  0.3424  0.2079
11176TIP3    H254944   2.493   5.150   2.620  0.8686 -1.2529  0.0605
11177TIP3   OH254945   4.042   3.064  16.312 -0.1516  0.1900 -0.0365
11177TIP3    H154946   4.042   3.136  16.248  0.6699  0.8070  0.6291
11177TIP3    H254947   3.952   3.060  16.343 -0.6608 -0.3813 -1.5029
11178TIP3   OH254948   4.017   5.768  14.620 -0.2244  0.3228  0.0281
11178TIP3    H154949   3.977   5.729  14.543 -1.8165 -0.7852  1.3509
11178TIP3    H254950   4.110   5.748  14.611 -0.5318 -0.7479 -1.0388
11179TIP3   OH254951   4.790   0.417  11.604 -0.5223 -0.0064 -0.3659
11179TIP3    H154952   4.781   0.359  11.529  2.1454 -0.6317 -0.3002
11179TIP3    H254953   4.715   0.397  11.659 -1.3232 -1.1437 -1.8107
11180TIP3   OH254954   3.029   3.114  13.014  1.1069  0.0233  0.0517
11180TIP3    H154955   3.007   3.021  13.005  1.9610 -0.1222 -0.6739
11180TIP3    H254956   3.124   3.117  13.011  1.0616  1.0650 -1.5795
11181TIP3   OH254957   4.793   0.147   3.828 -0.4402  0.3309 -0.0511
11181TIP3    H154958   4.819   0.239   3.830 -0.6334  0.4778 -1.8398
11181TIP3    H254959   4.876   0.098   3.830 -0.1706  0.6608 -1.7019
11182TIP3   OH254960   2.466   0.661   1.890  0.4940  0.5153 -0.5245
11182TIP3    H154961   2.449   0.688   1.800 -0.8713  1.1557 -0.1027
11182TIP3    H254962   2.391   0.693   1.940  0.8692 -0.4464  0.7288
11183TIP3   OH254963   6.626   2.573   5.991  0.0238 -0.1845 -0.5857
11183TIP3    H154964   6.563   2.626   6.041  1.1324 -0.4221  1.1581
11183TIP3    H254965   6.578   2.547   5.913 -1.4872  1.0267 -0.1220
11184TIP3   OH254966   3.779   6.591   4.211  0.6213  0.3629 -0.4598
11184TIP3    H154967   3.738   6.597   4.297 -0.5044 -3.1896 -0.6176
11184TIP3    H254968   3.730   6.653   4.157 -1.7469 -0.6686  0.3921
11185TIP3   OH254969   6.110   1.224  12.691  0.4686 -0.3512 -0.4883
11185TIP3    H154970   6.195   1.267  12.703 -0.0367  0.7160 -0.6280
11185TIP3    H254971   6.102   1.212  12.597  0.4862 -0.4856 -0.4723
11186TIP3   OH254972   4.350   3.540  16.684  0.2310 -0.1120  0.1208
11186TIP3    H154973   4.418   3.489  16.727  0.1150  0.4406  0.9986
11186TIP3    H254974   4.357   3.627  16.724 -1.3016 -0.1781  0.6018
11187TIP3   OH254975   2.817   4.082  16.550 -0.1006 -0.4758  0.1190
11187TIP3    H154976   2.809   4.166  16.505 -0.7724  0.1741  1.3722
11187TIP3    H254977   2.852   4.022  16.484 -1.9558  0.1693 -1.5551
11188TIP3   OH254978   2.012   5.917   2.374  0.4762 -0.3873  0.0607
11188TIP3    H154979   2.037   5.826   2.391  3.5296  0.3508  0.1309
11188TIP3    H254980   1.964   5.913   2.291  0.1331 -2.0916  0.3013
11189TIP3   OH254981   5.689   0.805  15.535  0.4037 -0.3823  0.2000
11189TIP3    H154982   5.765   0.860  15.513 -1.0350  1.3522 -0.6740
11189TIP3    H254983   5.679   0.816  15.630  0.8623 -0.1317  0.2260
11190TIP3   OH254984   2.282   3.540  13.141 -0.9106 -0.4976 -0.1958
11190TIP3    H154985   2.338   3.471  13.177  0.4227  0.8803  0.4881
11190TIP3    H254986   2.261   3.595  13.216  0.3794  1.3779 -1.1239
11191TIP3   OH254987   1.815   1.616  13.576 -0.0634  0.3508 -0.0634
11191TIP3    H154988   1.911   1.607  13.574 -0.0497  0.1972 -3.0881
11191TIP3    H254989   1.796   1.683  13.510 -2.1288 -0.6880 -0.5906
11192TIP3   OH254990   3.123   0.944   6.117 -0.0616  0.2896 -0.4019
11192TIP3    H154991   3.192   1.010   6.113 -0.2801  0.5674  0.3641
11192TIP3    H254992   3.087   0.943   6.028  0.6275  0.4547 -0.6929
11193TIP3   OH254993   5.430   2.623  12.146 -0.0119  0.1647 -0.3554
11193TIP3    H154994   5.517   2.583  12.143 -0.2469 -0.5262  1.0034
11193TIP3    H254995   5.419   2.663  12.060  2.3050  1.7083 -0.0339
11194TIP3   OH254996   0.982   5.553  11.078 -0.5889  0.4020  0.7318
11194TIP3    H154997   1.016   5.619  11.017 -0.1017 -0.5954 -0.1078
11194TIP3    H254998   0.890   5.544  11.054 -0.4349  0.1214  0.2197
11195TIP3   OH254999   3.817   6.014  12.057  0.0449 -0.0031 -0.0485
11195TIP3    H155000   3.885   5.948  12.040  0.4820  0.6040 -0.7809
11195TIP3    H255001   3.745   5.966  12.096  0.2592 -0.9619 -0.7898
11196TIP3   OH255002   6.640   4.078   1.284 -0.1278 -0.1747  0.4642
11196TIP3    H155003   6.658   4.131   1.206  0.5168 -1.4163 -0.2680
11196TIP3    H255004   6.698   4.112   1.351 -0.5116  0.7498  0.3348
11197TIP3   OH255005   4.683   4.054  12.388 -0.2962  0.3975  0.4873
11197TIP3    H155006   4.732   4.120  12.338  0.1276  1.0269  1.6700
11197TIP3    H255007   4.712   3.970  12.352  0.0126  0.8282 -0.2978
11198TIP3   OH255008   2.538   3.773   0.992  0.2093  0.2346 -0.7087
11198TIP3    H155009   2.442   3.772   0.992  0.2070 -0.4423 -0.2104
11198TIP3    H255010   2.562   3.718   0.917  0.1851 -1.0844  0.2061
11199TIP3   OH255011   2.567   2.472   6.817 -0.1178  0.2409 -0.5036
11199TIP3    H155012   2.640   2.529   6.793  0.9278 -1.3145 -1.1950
11199TIP3    H255013   2.554   2.416   6.741 -2.2537  0.6475 -0.5109
11200TIP3   OH255014   3.261   0.659   4.765 -0.1670  0.3864  0.4352
11200TIP3    H155015   3.178   0.684   4.724  0.2156  2.8805  1.0411
11200TIP3    H255016   3.324   0.661   4.693 -0.4434 -0.6613  0.1434
11201TIP3   OH255017   0.279   4.017  15.052  0.9064  0.0534 -0.0746
11201TIP3    H155018   0.289   4.079  14.979  2.4457 -1.2444 -1.0332
11201TIP3    H255019   0.363   4.019  15.096  0.2442  0.2209  1.2326
11202TIP3   OH255020   5.080   1.033   3.207  0.7161  0.6287 -0.3693
11202TIP3    H155021   5.093   1.086   3.285  0.5869  1.5851 -0.9875
11202TIP3    H255022   5.042   0.951   3.240 -0.9697  1.6720  0.4002
11203TIP3   OH255023   6.385   6.350  16.311 -0.4039 -0.4930 -0.2344
11203TIP3    H155024   6.426   6.377  16.229 -1.2128 -1.0442 -0.8395
11203TIP3    H255025   6.333   6.425  16.338  0.1869 -0.1617 -0.0034
11204TIP3   OH255026   1.871   4.303   1.596  0.1061 -0.1215  0.2608
11204TIP3    H155027   1.906   4.244   1.662 -0.7566 -0.6449  0.2664
11204TIP3    H255028   1.919   4.281   1.516  0.2088 -0.4131  0.4013
11205TIP3   OH255029   0.179   0.716  16.429 -0.7538  0.6994 -0.3209
11205TIP3    H155030   0.100   0.665  16.449 -1.3116  1.5857 -0.2422
11205TIP3    H255031   0.172   0.733  16.335 -0.1782 -0.0045 -0.5013
11206TIP3   OH255032   2.021   2.356  16.789 -0.1935  0.0906  0.6246
11206TIP3    H155033   1.938   2.318  16.818 -0.8263 -0.6622 -1.9388
11206TIP3    H255034   1.998   2.444  16.759  0.1296  0.2560  0.8607
11207TIP3   OH255035   5.362   0.337  14.252 -0.3745  0.1744 -0.1333
11207TIP3    H155036   5.436   0.398  14.259  0.5533 -1.1334  2.4023
11207TIP3    H255037   5.398   0.261  14.206 -0.8701  0.4986 -1.0974
11208TIP3   OH255038   1.323   1.818   4.327 -0.1226  0.4994  0.2035
11208TIP3    H155039   1.249   1.854   4.376 -0.0256  1.1217 -0.1060
11208TIP3    H255040   1.287   1.741   4.282 -0.0304 -0.5912  1.8744
11209TIP3   OH255041   1.185   0.729   1.654 -0.1465  0.1930 -0.4781
11209TIP3    H155042   1.172   0.743   1.560  3.1670  0.0072 -1.1047
11209TIP3    H255043   1.232   0.806   1.684 -2.5293  1.0048  1.5026
11210TIP3   OH255044   2.408   4.979  13.575 -0.4542  0.0765  0.8769
11210TIP3    H155045   2.485   5.027  13.607  1.3641 -2.0122 -0.1061
11210TIP3    H255046   2.387   4.918  13.646 -0.2989 -0.3473  0.5567
11211TIP3   OH255047   6.179   6.625  12.219 -0.0868  0.2815  0.2303
11211TIP3    H155048   6.101   6.570  12.212 -1.0950  1.8270 -2.1298
11211TIP3    H255049   6.252   6.565  12.206 -1.1417 -0.5906 -2.4082
11212TIP3   OH255050   1.792   0.828   2.364  0.4999  0.1737 -0.7051
11212TIP3    H155051   1.763   0.768   2.432  0.2643 -1.3761 -2.0938
11212TIP3    H255052   1.865   0.782   2.321 -1.0549 -0.1949 -3.1915
11213TIP3   OH255053   1.644   1.519  16.627  0.1482 -0.3991 -0.2568
11213TIP3    H155054   1.584   1.457  16.669  1.7500 -1.2396  0.9014
11213TIP3    H255055   1.691   1.466  16.563 -0.7768  0.4112 -1.6686
11214TIP3   OH255056   6.206   2.069  15.596  0.1617 -0.2705  0.0341
11214TIP3    H155057   6.202   1.995  15.535  0.6242 -0.2620 -0.0097
11214TIP3    H255058   6.287   2.055  15.645 -1.3722 -1.6381  2.3975
11215TIP3   OH255059   5.541   6.079  14.165  0.9192  0.3048  0.0971
11215TIP3    H155060   5.487   6.055  14.240  2.0831  0.2594  0.9477
11215TIP3    H255061   5.608   6.137  14.201  0.8638  1.1466 -1.1086
11216TIP3   OH255062   6.184   1.112  16.212 -0.1599 -0.1311  0.2231
11216TIP3    H155063   6.229   1.046  16.264  1.6950  0.7371 -0.1778
11216TIP3    H255064   6.097   1.119  16.251  0.0387 -1.8678  1.0649
11217TIP3   OH255065   3.008   0.971   5.144 -0.2930 -0.1966  0.6227
11217TIP3    H155066   3.094   0.988   5.181  0.0316 -2.4387  1.0247
11217TIP3    H255067   2.951   0.961   5.221 -1.0307  1.5661  0.3632
11218TIP3   OH255068   5.935   2.295  13.259  0.0214  1.1403 -0.6504
11218TIP3    H155069   5.851   2.338  13.244 -0.6830 -0.0845 -0.2878
11218TIP3    H255070   5.965   2.329  13.343 -0.8689  0.3996 -0.0262
11219TIP3   OH255071   2.956   5.875  13.437 -0.1228 -0.8356 -0.5441
11219TIP3    H155072   2.941   5.857  13.345 -0.2859  0.3617 -0.7680
11219TIP3    H255073   2.922   5.964  13.450 -0.5043 -1.1553  0.7637
11220TIP3   OH255074   3.870   5.923   1.509  0.0346 -0.5034  0.3227
11220TIP3    H155075   3.875   6.011   1.471  2.0941  0.5348  2.6446
11220TIP3    H255076   3.944   5.876   1.470  0.6658 -0.2226  1.1348
11221TIP3   OH255077   5.630   2.330   1.747  0.0723 -0.1631  0.2861
11221TIP3    H155078   5.679   2.397   1.699  1.4631 -0.4438  1.2468
11221TIP3    H255079   5.664   2.335   1.836 -0.5901 -1.4196  0.6351
11222TIP3   OH255080   3.512   6.182   3.385  0.0238 -0.1946  0.3165
11222TIP3    H155081   3.417   6.177   3.378  0.0146  1.6133 -2.0335
11222TIP3    H255082   3.545   6.123   3.317  0.5660 -0.1744  0.5520
11223TIP3   OH255083   1.011   4.527   0.402  0.0233  0.1589  0.3187
11223TIP3    H155084   0.960   4.606   0.417  0.1412  0.0744  1.1676
11223TIP3    H255085   0.974   4.462   0.462  0.7733 -0.0597  0.5599
11224TIP3   OH255086   2.658   5.701  14.471  0.4161  0.6174 -0.2489
11224TIP3    H155087   2.689   5.721  14.560 -1.9264 -2.2212  1.3684
11224TIP3    H255088   2.573   5.744  14.465 -0.0927 -0.3931 -0.5345
11225TIP3   OH255089   5.749   5.837   2.154  0.3070  0.2957 -0.2225
11225TIP3    H155090   5.813   5.810   2.220 -1.0311 -1.0381  0.5939
11225TIP3    H255091   5.674   5.868   2.204  0.1258  1.4075 -1.1578
11226TIP3   OH255092   4.195   6.571  10.881 -0.4692 -0.5911 -0.2563
11226TIP3    H155093   4.277   6.602  10.844 -1.0893 -0.6419 -1.7111
11226TIP3    H255094   4.128   6.594  10.816 -1.8917  1.0180  1.6417
11227TIP3   OH255095   2.565   4.745  16.411 -0.3721  0.7572  0.4767
11227TIP3    H155096   2.535   4.673  16.356 -0.4005  1.5390 -0.5407
11227TIP3    H255097   2.549   4.714  16.501 -0.4650 -0.4604  0.0614
11228TIP3   OH255098   2.717   0.095  17.216  0.0888  0.5166 -0.3124
11228TIP3    H155099   2.711   0.004  17.247 -0.3714  0.9265  0.8327
11228TIP3    H255100   2.810   0.106  17.194  0.3785  0.1228  0.6618
11229TIP3   OH255101   2.483   6.085   0.738 -0.3916 -0.1707  0.3580
11229TIP3    H155102   2.390   6.074   0.717 -0.0634  0.9709 -2.1378
11229TIP3    H255103   2.491   6.177   0.763  0.2804  0.2525 -1.2479
11230TIP3   OH255104   4.906   2.940   1.751  0.0431  0.1612  0.2724
11230TIP3    H155105   4.907   2.844   1.756  0.4868 -0.0243 -2.2650
11230TIP3    H255106   4.965   2.968   1.821  1.4803 -1.4958 -0.2058
11231TIP3   OH255107   4.130   4.850  14.779 -0.2702 -0.2137 -0.1547
11231TIP3    H155108   4.177   4.790  14.838 -0.0990 -0.6655 -0.7423
11231TIP3    H255109   4.072   4.793  14.729 -0.1111  0.1177 -0.7169
11232TIP3   OH255110   5.336   2.387   3.378 -1.3444  0.4963  0.0539
11232TIP3    H155111   5.341   2.306   3.327 -2.4317  1.9289 -2.5135
11232TIP3    H255112   5.259   2.375   3.434 -1.9241 -0.0054 -0.8156
11233TIP3   OH255113   2.012   0.298  17.129 -0.6195 -0.4639 -0.0284
11233TIP3    H155114   2.085   0.276  17.072 -2.5410 -1.4188 -2.3210
11233TIP3    H255115   2.051   0.348  17.201  2.1379 -0.3780 -1.4543
11234TIP3   OH255116   2.231   3.205   4.821 -0.0554  0.7009  0.3418
11234TIP3    H155117   2.288   3.240   4.890  0.7036  1.4220 -0.6167
11234TIP3    H255118   2.240   3.110   4.829  1.9608  0.7782 -0.2678
11235TIP3   OH255119   2.863   2.369   4.644  0.7837 -0.0183 -0.1868
11235TIP3    H155120   2.808   2.293   4.626  0.7497 -0.0312 -0.0300
11235TIP3    H255121   2.883   2.363   4.737  0.5346  0.3267 -0.1075
11236TIP3   OH255122   1.358   1.906   5.464 -0.6237  0.0404 -0.0355
11236TIP3    H155123   1.402   1.826   5.438 -1.2374 -0.4698  0.4751
11236TIP3    H255124   1.266   1.881   5.474 -0.6408  0.5537  1.1878
11237TIP3   OH255125   0.427   2.777  13.159 -0.4921 -0.6897  0.1297
11237TIP3    H155126   0.480   2.782  13.238  0.3601 -1.9299 -0.3299
11237TIP3    H255127   0.479   2.822  13.092 -1.3314  0.5986  0.3022
11238TIP3   OH255128   1.899   3.512  12.573  0.1634  0.1363 -0.8936
11238TIP3    H155129   1.874   3.579  12.638  0.3410  0.1782 -0.8684
11238TIP3    H255130   1.816   3.472  12.548 -0.1352  1.4237 -2.0768
11239TIP3   OH255131   1.565   3.309  10.785 -0.1852  1.2310 -0.1992
11239TIP3    H155132   1.501   3.331  10.852  0.1835 -0.1706  0.6699
11239TIP3    H255133   1.526   3.235  10.738  2.2349 -2.4251  2.9042
11240TIP3   OH255134   0.421   4.740   1.150  0.3753  0.1091  0.1362
11240TIP3    H155135   0.401   4.709   1.062 -2.0696  1.3339  0.1832
11240TIP3    H255136   0.471   4.821   1.135 -0.0839  0.3457 -0.1424
11241TIP3   OH255137   4.629   3.174  14.862  0.8620  0.4333  0.3488
11241TIP3    H155138   4.602   3.082  14.862 -0.2861  0.7611 -0.5591
11241TIP3    H255139   4.681   3.183  14.942  0.7007 -0.9179  0.6309
11242TIP3   OH255140   0.338   1.457  11.634  0.0252  0.7978  0.6372
11242TIP3    H155141   0.345   1.520  11.562  1.9676  0.3830  0.3863
11242TIP3    H255142   0.360   1.373  11.593 -2.6351 -0.1198  0.9327
11243TIP3   OH255143   3.679   0.984   5.696  0.4993 -0.4941 -0.2707
11243TIP3    H155144   3.775   0.986   5.691  0.4916 -1.8066 -1.6700
11243TIP3    H255145   3.655   1.073   5.723  2.1003 -0.1242  0.0499
11244TIP3   OH255146   6.428   3.031  15.241 -0.4586 -0.5360 -0.1468
11244TIP3    H155147   6.498   2.975  15.207  1.1800  1.9324 -1.2238
11244TIP3    H255148   6.424   3.104  15.178 -2.2124  0.7295  1.3232
11245TIP3   OH255149   5.234   2.690   5.149  0.4007 -0.2459 -0.3524
11245TIP3    H155150   5.308   2.629   5.142 -0.2834 -1.2485  0.7649
11245TIP3    H255151   5.193   2.668   5.232  0.8777  2.6322  0.7609
11246TIP3   OH255152   0.820   2.799  12.541  0.4505  0.0038  0.6161
11246TIP3    H155153   0.845   2.777  12.631  1.9308  0.2527  0.2981
11246TIP3    H255154   0.874   2.741  12.487 -1.2837 -0.9780 -0.1272
11247TIP3   OH255155   1.029   0.609  14.071 -0.1117  0.5470  0.5841
11247TIP3    H155156   1.003   0.700  14.076  2.1492  1.4083 -1.2509
11247TIP3    H255157   1.113   0.605  14.117  1.7437  0.3736 -2.5125
11248TIP3   OH255158   3.517   6.697   2.491 -0.5186  0.4148 -0.5708
11248TIP3    H155159   3.490   6.769   2.434  0.1617  0.5468 -0.7370
11248TIP3    H255160   3.611   6.709   2.502  0.1361 -1.8166 -2.6231
11249TIP3   OH255161   1.241   0.672  16.958 -0.5876 -0.0072 -0.1512
11249TIP3    H155162   1.182   0.603  16.986 -1.2779  0.8323  0.5059
11249TIP3    H255163   1.230   0.741  17.023 -0.3944  0.9868 -1.1446
11250TIP3   OH255164   2.712   4.141  11.229  0.3308  0.1768 -0.3568
11250TIP3    H155165   2.628   4.121  11.270 -0.1279  1.8260 -0.3825
11250TIP3    H255166   2.690   4.203  11.159  1.6861  1.9754  0.6995
11251TIP3   OH255167   5.095   4.797   0.012  0.6650  0.6183 -0.0275
11251TIP3    H155168   5.074   4.843   0.094  1.6701 -0.5930  0.9473
11251TIP3    H255169   5.186   4.822  -0.006  0.5497  0.6197 -0.6123
11252TIP3   OH255170   5.774   4.511  15.713 -0.5593 -0.0652  0.3906
11252TIP3    H155171   5.847   4.452  15.733  0.9028  1.6252  0.2717
11252TIP3    H255172   5.772   4.572  15.786  0.8098  2.3445 -1.4249
11253TIP3   OH255173   5.211   5.476  15.482 -0.1683  0.1021  0.0972
11253TIP3    H155174   5.137   5.416  15.466 -0.3637  0.4978 -0.5151
11253TIP3    H255175   5.265   5.469  15.403  0.4686 -0.2002  0.5524
11254TIP3   OH255176   1.601   3.792  12.164  0.0487  0.0347 -0.5993
11254TIP3    H155177   1.682   3.747  12.142  0.1556 -0.6222  1.0151
11254TIP3    H255178   1.627   3.862  12.223 -0.5450 -0.2390  0.0106
11255TIP3   OH255179   1.456   0.883   3.591  0.2410 -0.1618  0.3361
11255TIP3    H155180   1.395   0.939   3.544  1.5369  1.6517  0.7119
11255TIP3    H255181   1.437   0.794   3.560 -1.7598  0.4794 -0.3971
11256TIP3   OH255182   6.158   4.182   5.186  0.2821  0.2285 -0.3408
11256TIP3    H155183   6.183   4.092   5.208  1.8528  0.8629  0.6092
11256TIP3    H255184   6.116   4.215   5.265 -1.6067 -0.0774 -1.1595
11257TIP3   OH255185   2.908   3.726   5.114  0.1142  0.1415 -0.0287
11257TIP3    H155186   2.901   3.760   5.203 -2.2999 -1.5025  0.5218
11257TIP3    H255187   2.980   3.663   5.118 -0.2237 -0.2079  0.8940
11258TIP3   OH255188   1.045   5.927  15.970 -0.0541  0.3545 -0.4593
11258TIP3    H155189   1.059   5.875  15.891 -2.7164  0.3396 -0.9940
11258TIP3    H255190   1.129   5.972  15.983  1.9638 -2.9709 -0.6727
11259TIP3   OH255191   4.546   1.841   0.667  0.3492  0.0001  0.2952
11259TIP3    H155192   4.492   1.917   0.645  0.2659 -0.0600  0.2925
11259TIP3    H255193   4.586   1.864   0.752 -0.2048 -0.2299  0.6231
11260TIP3   OH255194   2.488   6.531  15.787 -0.0826 -0.5452 -0.4737
11260TIP3    H155195   2.488   6.561  15.878 -1.3222 -2.1312  0.1070
11260TIP3    H255196   2.396   6.513  15.768  0.1990 -0.5209 -1.9522
11261TIP3   OH255197   2.125   5.893   3.502  0.3812  0.0570 -0.0614
11261TIP3    H155198   2.170   5.833   3.561 -0.0272 -0.3341 -0.1406
11261TIP3    H255199   2.152   5.980   3.531  0.2654 -0.1329  0.6387
11262TIP3   OH255200   4.372   0.070  10.596  0.7280  0.2106  0.4367
11262TIP3    H155201   4.375   0.148  10.652  1.0706  0.0153  0.6984
11262TIP3    H255202   4.401  -0.001  10.654  0.7102 -0.0567  0.1159
11263TIP3   OH255203   5.672   4.836   5.149 -0.5203 -0.2400  0.0324
11263TIP3    H155204   5.646   4.923   5.119  4.5317  1.6766  0.2086
11263TIP3    H255205   5.689   4.847   5.242 -0.9601 -1.8138  0.3256
11264TIP3   OH255206   2.489   3.498   5.251 -0.4530  0.0410 -0.3086
11264TIP3    H155207   2.530   3.412   5.243  0.0563  0.3266 -0.8237
11264TIP3    H255208   2.530   3.537   5.328 -0.0630  0.1507 -0.5665
11265TIP3   OH255209   4.534   5.441   0.781  0.0501  0.0687  0.1765
11265TIP3    H155210   4.453   5.458   0.732 -0.8440 -2.3997  0.6721
11265TIP3    H255211   4.585   5.385   0.723  0.1017 -0.7838  1.0367
11266TIP3   OH255212   3.824   4.524   2.593 -0.1414  0.2222 -0.3625
11266TIP3    H155213   3.794   4.589   2.529 -1.1292  1.9932  1.7438
11266TIP3    H255214   3.833   4.574   2.675  0.1649 -2.0862  1.0962
11267TIP3   OH255215   6.351   5.353  14.897  0.0734  0.1801  0.0425
11267TIP3    H155216   6.417   5.418  14.874 -0.1754 -0.0593 -1.4651
11267TIP3    H255217   6.365   5.281  14.836 -1.6752  0.2096 -0.4721
11268TIP3   OH255218   2.324   1.057  14.505 -0.2153 -0.1671 -0.0515
11268TIP3    H155219   2.313   1.147  14.474 -0.0831  0.0051  0.3985
11268TIP3    H255220   2.314   1.004  14.426 -0.2299  0.2448 -0.3324
11269TIP3   OH255221   3.752   3.442   2.601 -0.3451  0.3270 -0.2607
11269TIP3    H155222   3.729   3.415   2.690 -2.4385  2.5088 -0.0310
11269TIP3    H255223   3.848   3.446   2.601 -0.1674 -2.1346  1.0723
11270TIP3   OH255224   3.602   0.652  12.332  0.1569 -0.6096 -0.1066
11270TIP3    H155225   3.610   0.558  12.317  1.6897 -0.4887 -0.1925
11270TIP3    H255226   3.669   0.672  12.398 -0.2266  0.4072 -0.0019
11271TIP3   OH255227   2.287   3.321   2.686 -0.0174 -0.7423 -0.3476
11271TIP3    H155228   2.348   3.315   2.760 -0.4903 -2.0895 -0.0319
11271TIP3    H255229   2.202   3.338   2.726  0.0211  0.4182 -0.7351
11272TIP3   OH255230   2.082   2.916  11.518  0.3320  0.0926  0.6052
11272TIP3    H155231   1.992   2.920  11.487  0.7292 -1.2066 -0.8268
11272TIP3    H255232   2.099   3.004  11.552 -1.2544  0.5580  0.3030
11273TIP3   OH255233   3.880   1.496   2.498 -0.0878  0.4056  0.3785
11273TIP3    H155234   3.919   1.446   2.569  0.0556  0.0379  0.0465
11273TIP3    H255235   3.917   1.584   2.506  0.9080  0.0405  0.0035
11274TIP3   OH255236   4.915   6.120  12.940 -0.2612  0.4257  0.2651
11274TIP3    H155237   4.988   6.064  12.967  0.7085  1.0770 -0.9184
11274TIP3    H255238   4.903   6.102  12.847  0.3930  2.4630 -0.2702
11275TIP3   OH255239   0.627   3.373   3.517  0.7678 -0.4739 -0.9115
11275TIP3    H155240   0.696   3.431   3.549  0.8665 -1.3064  0.4993
11275TIP3    H255241   0.664   3.330   3.440  1.5021 -0.2635 -0.6754
11276TIP3   OH255242   2.304   0.559  13.078  0.1001  0.1265 -0.2717
11276TIP3    H155243   2.313   0.482  13.134 -0.1265  0.0753 -0.3026
11276TIP3    H255244   2.235   0.612  13.120  0.5445  0.5148 -0.0237
11277TIP3   OH255245   3.676   1.165   1.008  0.9977 -0.0293  0.7557
11277TIP3    H155246   3.635   1.106   1.072  1.2937  0.1107  1.0775
11277TIP3    H255247   3.763   1.127   0.994  0.9019 -0.1105  0.3629
11278TIP3   OH255248   4.774   0.654   3.776 -0.3909 -0.4808  0.1879
11278TIP3    H155249   4.832   0.644   3.701  0.3964 -1.2269  0.8710
11278TIP3    H255250   4.687   0.670   3.738  0.4780  2.4662 -0.8604
11279TIP3   OH255251   2.664   6.252   1.410 -0.6878 -0.5619  0.5978
11279TIP3    H155252   2.620   6.246   1.324 -1.6533  0.7228  0.9675
11279TIP3    H255253   2.662   6.162   1.443 -2.0366 -0.7595  0.0829
11280TIP3   OH255254   0.798   6.328   2.342 -0.4446 -0.5310 -0.3713
11280TIP3    H155255   0.855   6.379   2.400 -3.5976  0.6166  1.9933
11280TIP3    H255256   0.749   6.394   2.292 -2.1842 -1.2888  0.2653
11281TIP3   OH255257   6.538   2.934  11.154  0.7355  0.7703 -0.1150
11281TIP3    H155258   6.589   2.866  11.109  3.1416  1.4083  1.4638
11281TIP3    H255259   6.560   3.015  11.107  0.1815  0.8892 -0.1715
11282TIP3   OH255260   4.952   2.005  13.263 -0.2093  0.2922 -0.0353
11282TIP3    H155261   4.958   2.055  13.182  0.7932  0.9764  0.4438
11282TIP3    H255262   4.865   1.965  13.259 -0.3930  0.7516 -1.1864
11283TIP3   OH255263   6.073   0.744   1.248 -0.0721 -0.0666 -0.6826
11283TIP3    H155264   6.055   0.692   1.170  1.8663 -1.5268 -0.2140
11283TIP3    H255265   6.168   0.738   1.260 -0.0472  1.9449  0.5529
11284TIP3   OH255266   1.950   3.620  16.663  0.1912 -0.2703  0.3947
11284TIP3    H155267   1.882   3.637  16.728  0.1710  1.1875  0.0224
11284TIP3    H255268   1.911   3.557  16.603 -1.2202  1.2617 -0.3619
11285TIP3   OH255269   2.691   0.994   0.883 -0.1983  0.0186  0.4495
11285TIP3    H155270   2.686   0.928   0.953  3.4047 -1.0969 -0.1247
11285TIP3    H255271   2.713   1.075   0.928 -1.9129  0.2657  0.9085
11286TIP3   OH255272   6.493   2.911   3.581  0.0471 -0.1117 -0.3616
11286TIP3    H155273   6.444   2.893   3.662  2.9430 -0.9790  1.3184
11286TIP3    H255274   6.517   2.825   3.548 -0.8663  0.2488 -2.0812
11287TIP3   OH255275   2.984   5.840  11.739 -0.2856  0.1993 -0.2414
11287TIP3    H155276   3.080   5.846  11.737 -0.3703  1.8461 -0.6562
11287TIP3    H255277   2.965   5.753  11.707  1.0944 -0.4036  0.4756
11288TIP3   OH255278   0.871   4.983   3.791 -0.3852 -0.0477 -0.5569
11288TIP3    H155279   0.889   5.023   3.706  2.1439  1.5203  0.5757
11288TIP3    H255280   0.890   4.890   3.779  0.3346  0.2217 -1.6232
11289TIP3   OH255281   4.375   0.060   1.581 -0.5576 -0.3986 -0.3409
11289TIP3    H155282   4.406   0.042   1.492 -2.0528 -0.2904 -0.9298
11289TIP3    H255283   4.351  -0.026   1.616  0.5665 -0.5076  0.1889
11290TIP3   OH255284   2.248   0.259  14.815  0.6369  0.1602  0.1974
11290TIP3    H155285   2.308   0.221  14.751  0.8802  1.2578 -0.2450
11290TIP3    H255286   2.161   0.230  14.786  0.8712 -0.7893  0.3940
11291TIP3   OH255287   2.697   2.419  15.540 -0.2656 -0.0918 -0.0799
11291TIP3    H155288   2.655   2.333  15.539  0.8979 -0.7189  0.8687
11291TIP3    H255289   2.676   2.456  15.626  0.8688 -0.3270  0.3290
11292TIP3   OH255290   3.391   3.290   0.249 -0.1918 -0.2911  0.3810
11292TIP3    H155291   3.471   3.253   0.288  0.6285 -0.5605 -1.4408
11292TIP3    H255292   3.419   3.374   0.213 -0.6794 -0.4974 -0.4837
11293TIP3   OH255293   2.955   1.224  14.590 -0.2886  0.2145 -0.3276
11293TIP3    H155294   2.982   1.270  14.510 -0.5315 -0.4017 -0.7706
11293TIP3    H255295   3.026   1.162  14.607 -0.6099 -0.2052 -0.5149
11294TIP3   OH255296   2.443   0.113   4.332  0.1513 -0.0328  0.2153
11294TIP3    H155297   2.538   0.109   4.320  0.1173 -0.4199  0.0577
11294TIP3    H255298   2.412   0.025   4.308 -0.1746 -0.1134  0.9064
11295TIP3   OH255299   4.565   2.171   1.229 -0.4673  0.3488 -0.0450
11295TIP3    H155300   4.562   2.156   1.134  1.1841  0.0009 -0.0675
11295TIP3    H255301   4.586   2.264   1.238  0.6837  0.1037 -0.0571
11296TIP3   OH255302   3.444   4.771  13.774  0.7251  0.0782  0.8514
11296TIP3    H155303   3.484   4.747  13.857  0.6386 -0.8961  0.6270
11296TIP3    H255304   3.482   4.710  13.710  1.4848  1.4110 -0.0002
11297TIP3   OH255305   4.755   6.734  15.227  0.1323 -0.6440  0.5284
11297TIP3    H155306   4.660   6.743  15.221  0.3199  0.4637 -1.6366
11297TIP3    H255307   4.773   6.736  15.321 -1.7909  1.8296  0.9553
11298TIP3   OH255308   1.871   5.985  14.170  0.5127 -0.3640 -0.4376
11298TIP3    H155309   1.931   6.057  14.150  1.0262 -0.4969  0.5455
11298TIP3    H255310   1.899   5.913  14.113 -0.2378  0.3054 -1.6924
11299TIP3   OH255311   4.280   5.264   2.408  0.2939 -0.2696  0.0855
11299TIP3    H155312   4.250   5.188   2.458 -0.1000  0.7927  1.5277
11299TIP3    H255313   4.375   5.251   2.401  0.2008 -1.0209  0.0658
11300TIP3   OH255314   2.248   3.022   2.767  0.0914  0.0387 -0.3366
11300TIP3    H155315   2.176   3.029   2.829  1.4962 -0.9767  1.4972
11300TIP3    H255316   2.242   3.101   2.714  0.2321  2.1883  2.6444
11301TIP3   OH255317   3.389   4.548   3.255 -0.1814  0.2375  0.2373
11301TIP3    H155318   3.439   4.630   3.255  0.0885  0.0731  0.3431
11301TIP3    H255319   3.300   4.575   3.278 -0.0546  0.4815  0.4554
11302TIP3   OH255320   0.949   6.443  11.505  0.0514  0.4336 -0.3470
11302TIP3    H155321   0.895   6.490  11.443 -0.3634  1.1880  0.5692
11302TIP3    H255322   0.899   6.442  11.586  1.2228  0.7955  0.4104
11303TIP3   OH255323   6.336   3.811   0.152 -0.3623 -0.0386 -0.3498
11303TIP3    H155324   6.373   3.738   0.201 -0.5938  0.3998  0.4919
11303TIP3    H255325   6.320   3.878   0.217 -1.8882  0.0812 -0.8069
11304TIP3   OH255326   0.476   4.654  17.165  0.2965 -0.7350 -0.1853
11304TIP3    H155327   0.529   4.583  17.201  0.9791 -0.3794 -0.4769
11304TIP3    H255328   0.528   4.690  17.093 -0.5357 -0.6644 -0.7684
11305TIP3   OH255329   5.819   1.941  13.143  0.0219  0.5478  0.0349
11305TIP3    H155330   5.800   2.004  13.074 -1.4238  1.2184  0.9942
11305TIP3    H255331   5.742   1.884  13.146  0.5759 -0.2135  0.3285
11306TIP3   OH255332   4.448   3.664  15.810  0.2671 -0.6077 -0.2386
11306TIP3    H155333   4.517   3.599  15.821 -1.2278 -2.1606  0.5114
11306TIP3    H255334   4.423   3.657  15.718  0.0682 -1.1664 -0.1460
11307TIP3   OH255335   6.082   3.016   5.152  0.5583 -0.0974 -0.0455
11307TIP3    H155336   6.057   3.080   5.219 -0.7242 -0.0039 -0.5883
11307TIP3    H255337   6.092   3.067   5.072  0.9752 -0.3739 -0.1757
11308TIP3   OH255338   3.193   3.146  11.205 -0.4625  0.4332  0.6312
11308TIP3    H155339   3.204   3.224  11.259 -3.3281 -0.1984  2.3663
11308TIP3    H255340   3.171   3.077  11.267 -0.4193 -1.2106 -1.0794
11309TIP3   OH255341   3.156   5.913   2.230  0.0595 -0.3316 -0.4312
11309TIP3    H155342   3.171   5.998   2.271 -2.5794  0.7950 -1.5663
11309TIP3    H255343   3.178   5.928   2.138  1.6276 -1.5552 -0.2975
11310TIP3   OH255344   1.016   3.051   2.936  0.1490  0.0052 -0.2694
11310TIP3    H155345   1.100   3.006   2.921  0.8099  1.0130  0.3093
11310TIP3    H255346   1.041   3.141   2.955 -1.1801  0.7653 -1.8896
11311TIP3   OH255347   2.483   2.962  16.363 -0.5095  0.1632  0.1730
11311TIP3    H155348   2.488   2.867  16.349 -0.6451  0.4742 -2.4053
11311TIP3    H255349   2.571   2.987  16.389  0.7177 -0.1865 -3.2020
11312TIP3   OH255350   4.784   1.034  14.902 -1.0912  0.6606  0.2008
11312TIP3    H155351   4.704   1.083  14.918 -0.5947  1.6662 -0.2862
11312TIP3    H255352   4.848   1.072  14.963 -0.5480  1.0279 -0.5869
11313TIP3   OH255353   4.912   5.454   1.093 -0.6761  0.1086  0.6160
11313TIP3    H155354   4.993   5.456   1.144 -0.3863  0.3786  0.1528
11313TIP3    H255355   4.904   5.363   1.064 -1.7987 -0.4908  2.6288
11314TIP3   OH255356   5.229   1.398   3.575 -0.2283  0.6604  0.3787
11314TIP3    H155357   5.237   1.492   3.558 -1.5915  0.6348 -0.5808
11314TIP3    H255358   5.319   1.367   3.580  0.2506  2.0392  0.8948
11315TIP3   OH255359   0.736   0.786   1.252  0.1045 -0.2716  0.3782
11315TIP3    H155360   0.755   0.847   1.180  0.8679  0.0514  0.8403
11315TIP3    H255361   0.817   0.737   1.264  0.1926  0.1117  1.4258
11316TIP3   OH255362   1.419   3.512   3.854  0.3858  0.4862 -0.2814
11316TIP3    H155363   1.385   3.580   3.912  0.7015  0.1227  0.3425
11316TIP3    H255364   1.419   3.433   3.908  0.9004  0.1901 -0.7119
11317TIP3   OH255365   5.586   2.722   3.761  0.1810 -0.9227  0.1633
11317TIP3    H155366   5.549   2.663   3.695 -1.2239  0.5444 -0.4228
11317TIP3    H255367   5.658   2.767   3.715 -1.6800  1.1326 -0.9413
11318TIP3   OH255368   6.047   1.235  11.465 -0.1794 -0.6401  0.0271
11318TIP3    H155369   5.967   1.273  11.502  0.6402  0.3914  0.8157
11318TIP3    H255370   6.032   1.141  11.465 -1.1120 -0.5005  0.8345
11319TIP3   OH255371   5.694   4.824   3.057 -0.0992 -0.4232  0.0469
11319TIP3    H155372   5.687   4.868   2.972  0.0269  0.4581  0.4781
11319TIP3    H255373   5.782   4.844   3.087 -0.3806 -0.1322  0.6954
11320TIP3   OH255374   5.901   4.605  14.254  0.2300 -0.0346 -0.0561
11320TIP3    H155375   5.900   4.563  14.340  1.0689 -0.6771 -0.3342
11320TIP3    H255376   5.810   4.604  14.225 -0.2226  1.1139  1.2404
11321TIP3   OH255377   0.615   0.447  16.696 -0.4908  0.1349  0.3093
11321TIP3    H155378   0.677   0.518  16.711  0.1529 -0.0724 -1.2408
11321TIP3    H255379   0.617   0.432  16.602  1.0559 -3.4080  0.7407
11322TIP3   OH255380   0.269   0.274  16.986  0.1074  0.0852  0.3899
11322TIP3    H155381   0.220   0.214  16.929 -1.1435 -0.3713  1.8580
11322TIP3    H255382   0.278   0.354  16.934 -1.3764 -0.1592 -0.3187
11323TIP3   OH255383   3.244   5.886  11.673 -0.1304 -0.1144 -0.1037
11323TIP3    H155384   3.218   5.954  11.611  0.2056 -0.0295 -0.1519
11323TIP3    H255385   3.285   5.818  11.620  0.4072  0.0829  0.0500
11324TIP3   OH255386   4.410   1.149   5.708  0.6220 -0.4830 -0.4563
11324TIP3    H155387   4.503   1.127   5.714  0.7832  0.3917  0.4981
11324TIP3    H255388   4.406   1.216   5.639  0.6778 -0.6055 -0.5796
11325TIP3   OH255389   6.446   1.068   1.416 -0.1986 -0.3286  0.6956
11325TIP3    H155390   6.432   1.147   1.468  0.1952  0.0384  0.2534
11325TIP3    H255391   6.395   1.082   1.337  0.1458 -0.3602  0.4632
11326TIP3   OH255392   0.538   1.839   5.406 -0.6385  0.9859  0.0592
11326TIP3    H155393   0.546   1.762   5.462 -1.2101  0.6053 -0.3667
11326TIP3    H255394   0.583   1.815   5.325  0.3211  1.5906  0.3928
11327TIP3   OH255395   3.361   6.383  13.517 -0.0783  0.3834  0.2026
11327TIP3    H155396   3.304   6.402  13.591 -2.3658 -0.2568 -1.2874
11327TIP3    H255397   3.444   6.426  13.539 -1.7316  3.1531  1.5760
11328TIP3   OH255398   3.043   0.525  15.257 -0.4279  0.3250  0.0500
11328TIP3    H155399   2.994   0.443  15.261 -0.1344  0.0669 -1.3971
11328TIP3    H255400   3.134   0.499  15.248 -0.4303  0.7702 -1.5942
11329TIP3   OH255401   5.865   0.964  15.168 -0.3988 -0.2475 -0.3824
11329TIP3    H155402   5.811   0.918  15.104 -1.3556  1.9773 -1.2980
11329TIP3    H255403   5.897   1.041  15.121 -0.4672  1.0417  1.5608
11330TIP3   OH255404   4.999   2.618  13.400 -0.2648  0.5359 -0.2500
11330TIP3    H155405   5.051   2.626  13.480 -0.8996 -0.0898  0.2290
11330TIP3    H255406   4.937   2.691  13.404 -0.3576  0.4495 -0.1318
11331TIP3   OH255407   2.786   1.258  14.798 -0.4323  0.0762  0.4927
11331TIP3    H155408   2.835   1.243  14.717 -2.4973 -1.5660 -0.5348
11331TIP3    H255409   2.818   1.343  14.829  1.5159  0.0440 -1.1948
11332TIP3   OH255410   1.020   1.380  13.361  0.0473 -0.1758 -0.1330
11332TIP3    H155411   1.081   1.373  13.287 -0.1946 -0.0742 -0.3445
11332TIP3    H255412   1.057   1.449  13.416 -0.5162  0.7605 -0.8849
11333TIP3   OH255413   2.482   4.107  16.803 -0.3694  0.3552 -0.1416
11333TIP3    H155414   2.473   4.057  16.884  1.5540  1.2988  0.7164
11333TIP3    H255415   2.477   4.199  16.830 -2.7501  0.7231 -1.5466
11334TIP3   OH255416   4.161   5.728   4.020 -0.5160  0.1808  0.0114
11334TIP3    H155417   4.176   5.821   4.041 -1.5509  0.0301  1.6017
11334TIP3    H255418   4.105   5.730   3.942 -0.5025  0.8937  0.0129
11335TIP3   OH255419   0.237   2.359   4.262 -0.6516  0.0618  0.0499
11335TIP3    H155420   0.297   2.373   4.189 -1.3227  2.7285 -0.0825
11335TIP3    H255421   0.290   2.371   4.340 -0.7638  1.4694 -0.0637
11336TIP3   OH255422   6.139   3.240   5.915  0.4654  0.3294 -0.1483
11336TIP3    H155423   6.078   3.313   5.926  1.0419  0.9056 -0.7100
11336TIP3    H255424   6.105   3.191   5.841  0.2581  0.2133  0.0238
11337TIP3   OH255425   5.767   2.886   6.353 -0.9255 -0.9051 -0.4532
11337TIP3    H155426   5.691   2.832   6.331 -0.4837 -1.1566 -1.4217
11337TIP3    H255427   5.733   2.976   6.353 -1.6993 -1.1395  1.3178
11338TIP3   OH255428   1.308   1.608  12.153  0.3087  0.4549 -0.4884
11338TIP3    H155429   1.286   1.698  12.126 -0.9177 -0.2244 -1.9257
11338TIP3    H255430   1.284   1.605  12.245 -0.2015  1.4409 -0.5682
11339TIP3   OH255431   5.051   0.085   3.899  0.2773 -0.1735 -0.1169
11339TIP3    H155432   5.078   0.048   3.815 -0.1364 -1.7207  0.3965
11339TIP3    H255433   5.124   0.141   3.925  0.4488  0.2555 -1.4575
11340TIP3   OH255434   2.966   0.563  11.504 -0.4497 -0.0780  0.8319
11340TIP3    H155435   2.880   0.591  11.475 -0.0384 -1.0097 -1.5422
11340TIP3    H255436   2.957   0.468  11.518  0.5816 -0.5272 -1.2580
11341TIP3   OH255437   3.859   4.448  15.976 -0.2198  0.2705 -0.1489
11341TIP3    H155438   3.844   4.356  15.998  0.7114  0.4162  1.1707
11341TIP3    H255439   3.914   4.481  16.046 -0.3031  1.7761 -0.7583
11342TIP3   OH255440   5.431   4.265  11.102  0.3494 -0.1905 -0.1828
11342TIP3    H155441   5.348   4.230  11.070 -2.0513  0.9412  4.1241
11342TIP3    H255442   5.467   4.195  11.157  2.1885 -0.5173 -1.6907
11343TIP3   OH255443   4.732   1.029  13.782 -0.1432  0.5555  0.1495
11343TIP3    H155444   4.820   1.037  13.746 -0.2088  1.8330  0.2259
11343TIP3    H255445   4.677   1.010  13.706 -0.0476  1.5990 -0.2008
11344TIP3   OH255446   2.786   5.298  14.637 -0.3305 -0.0917  0.5776
11344TIP3    H155447   2.855   5.285  14.702 -0.9514 -1.1956  1.0407
11344TIP3    H255448   2.827   5.351  14.568  0.4614  0.7208  1.6475
11345TIP3   OH255449   3.811   6.287   3.695  0.3555  0.8093 -0.6067
11345TIP3    H155450   3.749   6.337   3.642 -1.0922  1.3420  1.4505
11345TIP3    H255451   3.859   6.353   3.745  0.0892  0.2835  0.3809
11346TIP3   OH255452   6.444   2.045   2.061  0.0508 -0.7437 -0.0983
11346TIP3    H155453   6.407   2.102   1.994  1.5327 -0.3175 -0.5739
11346TIP3    H255454   6.474   1.968   2.013  0.2307 -0.8739  0.2180
11347TIP3   OH255455   1.337   5.910   5.832  0.2147  0.2177  0.3814
11347TIP3    H155456   1.248   5.877   5.845 -0.4760  0.6443 -2.4864
11347TIP3    H255457   1.393   5.834   5.850 -0.8700 -0.6428  0.2856
11348TIP3   OH255458   4.335   6.700  13.266  0.0364  0.5616  0.0549
11348TIP3    H155459   4.420   6.655  13.269  0.2663  0.7409 -2.0535
11348TIP3    H255460   4.270   6.631  13.278  0.4259  0.4639  2.0324
11349TIP3   OH255461   5.023   2.141   0.451  0.1406  0.0861 -0.5333
11349TIP3    H155462   4.967   2.068   0.424 -0.5708  0.9699 -1.5785
11349TIP3    H255463   4.968   2.219   0.436  0.8409  0.8365  0.6307
11350TIP3   OH255464   3.342   6.507  14.274 -0.7971 -0.0096 -0.4832
11350TIP3    H155465   3.283   6.457  14.218 -1.0831  0.2441 -0.4078
11350TIP3    H255466   3.356   6.451  14.350 -1.3410  0.1410 -0.2672
11351TIP3   OH255467   5.987   2.482  11.203  0.4384 -0.1413  0.2756
11351TIP3    H155468   5.984   2.546  11.131 -0.7852 -0.2799  0.1807
11351TIP3    H255469   5.992   2.397  11.158 -0.1907 -0.2207  0.3488
11352TIP3   OH255470   1.293   6.521   4.532 -0.2508 -0.6727 -0.3690
11352TIP3    H155471   1.335   6.509   4.617  0.9667 -1.7742 -1.1006
11352TIP3    H255472   1.220   6.459   4.533 -2.1922  1.4447  1.0162
11353TIP3   OH255473   5.302   4.954   2.887 -0.6602  0.4303  0.3156
11353TIP3    H155474   5.242   4.958   2.812 -1.8166  0.7945  1.2267
11353TIP3    H255475   5.325   5.045   2.903  0.0510  0.3018  0.0524
11354TIP3   OH255476   0.458   5.194   2.429  0.1372 -0.2705 -0.1321
11354TIP3    H155477   0.483   5.109   2.466 -1.3631 -1.0109 -0.6974
11354TIP3    H255478   0.376   5.215   2.473  1.3345  1.7664  1.2598
11355TIP3   OH255479   5.151   4.462  10.872  0.0745 -0.2409  0.1068
11355TIP3    H155480   5.116   4.379  10.838  0.6829 -0.9208  1.0848
11355TIP3    H255481   5.124   4.527  10.808 -1.0102 -1.0934 -0.3348
11356TIP3   OH255482   5.986   1.700   3.534 -0.4170  0.2558 -0.4700
11356TIP3    H155483   5.969   1.629   3.472 -1.5445  0.0239  0.0714
11356TIP3    H255484   5.920   1.766   3.512  0.0025  0.7152 -0.3393
11357TIP3   OH255485   1.209   5.541  11.632 -0.2781  0.2273  0.3567
11357TIP3    H155486   1.123   5.550  11.591 -0.1571  0.9668  0.2586
11357TIP3    H255487   1.189   5.523  11.724 -0.5377  0.2580  0.3080
11358TIP3   OH255488   0.221   1.987   5.821 -0.0615  0.2426 -0.6336
11358TIP3    H155489   0.152   1.931   5.786  0.9022  0.2636 -2.7253
11358TIP3    H255490   0.297   1.929   5.830 -0.1429  0.3528  1.0775
11359TIP3   OH255491   4.747   3.813  12.241  0.3700  0.1649 -0.1622
11359TIP3    H155492   4.797   3.753  12.185  0.2868 -0.1028  0.0478
11359TIP3    H255493   4.657   3.804  12.210  0.1661 -0.7081  0.6363
11360TIP3   OH255494   4.856   0.058   0.624  0.5121 -0.8281 -0.1052
11360TIP3    H155495   4.938   0.010   0.617 -0.2006 -2.0517 -0.3725
11360TIP3    H255496   4.869   0.118   0.698  1.1809 -1.9250  0.6971
11361TIP3   OH255497   2.155   5.687  13.859 -0.3539  0.4310  0.0383
11361TIP3    H155498   2.199   5.711  13.778  1.7753  1.3179  1.3685
11361TIP3    H255499   2.110   5.605  13.839  0.1887  0.5819 -1.9805
11362TIP3   OH255500   0.770   5.859  13.447  0.4379  0.0315  0.2692
11362TIP3    H155501   0.732   5.895  13.367 -1.0015 -0.8815  0.5091
11362TIP3    H255502   0.768   5.932  13.509  0.7738  0.5007 -0.2556
11363TIP3   OH255503   2.827   3.964  14.225  0.2541  0.3013  0.2842
11363TIP3    H155504   2.861   4.003  14.306 -0.4488 -1.2060  1.3435
11363TIP3    H255505   2.891   3.987  14.158  0.4714  2.2371  1.0868
11364TIP3   OH255506   6.252   1.809   1.730  0.1623  0.2314 -0.7294
11364TIP3    H155507   6.163   1.790   1.703  0.4178  0.5993 -1.8823
11364TIP3    H255508   6.246   1.828   1.824 -0.6987 -1.4530 -0.4213
11365TIP3   OH255509   0.970   4.761  15.370 -0.1406 -0.0029  0.2554
11365TIP3    H155510   0.902   4.825  15.393 -0.5946 -0.3445 -0.1159
11365TIP3    H255511   0.960   4.692  15.435  0.1113  0.1307  0.4374
11366TIP3   OH255512   3.770   1.396   2.980 -0.5597 -0.4443  0.1986
11366TIP3    H155513   3.704   1.458   3.010 -0.2675 -0.5029  0.9997
11366TIP3    H255514   3.724   1.312   2.978 -1.6072  0.0926 -3.1140
11367TIP3   OH255515   6.499   6.711   4.152  0.2296 -0.3208 -0.2543
11367TIP3    H155516   6.437   6.643   4.176  1.3040 -1.6859 -1.2255
11367TIP3    H255517   6.522   6.693   4.061  1.1721  0.8479 -0.2760
11368TIP3   OH255518   1.608   5.098  15.405 -0.1484  0.5461  0.5471
11368TIP3    H155519   1.616   5.123  15.497  0.0230 -1.3366  1.0987
11368TIP3    H255520   1.548   5.023  15.406 -0.0532  0.4283 -0.8633
11369TIP3   OH255521   4.002   4.123   3.320 -0.1328 -0.0770  0.4290
11369TIP3    H155522   4.018   4.085   3.406 -0.2458  2.0008  1.4126
11369TIP3    H255523   4.061   4.074   3.261  0.5068 -1.0106  1.7914
11370TIP3   OH255524   1.771   2.564   3.192 -0.1808  0.1195  0.3525
11370TIP3    H155525   1.684   2.600   3.177  0.7460  2.7947  0.9709
11370TIP3    H255526   1.787   2.576   3.285  0.5948 -0.9944  0.3862
11371TIP3   OH255527   2.924   3.131  15.574 -0.5758 -0.8113  0.0501
11371TIP3    H155528   2.971   3.136  15.657 -1.5849  0.0472  0.5943
11371TIP3    H255529   2.901   3.222  15.555  0.4420 -0.8724 -1.6611
11372TIP3   OH255530   2.583   5.274  15.013  0.9279 -0.7194  0.0031
11372TIP3    H155531   2.536   5.196  15.043 -0.1685  0.7599  2.3755
11372TIP3    H255532   2.565   5.277  14.919 -3.3252 -0.6272  0.6197
11373TIP3   OH255533   5.852   1.541  13.925 -0.0296 -0.4555 -0.0267
11373TIP3    H155534   5.911   1.584  13.987  0.4912 -1.2545  0.0473
11373TIP3    H255535   5.858   1.594  13.845 -0.8244  0.6710  0.6294
11374TIP3   OH255536   0.420   1.362   5.331 -0.1446 -0.6388 -0.4716
11374TIP3    H155537   0.448   1.338   5.419 -2.0844  0.2212  0.4504
11374TIP3    H255538   0.433   1.457   5.327  1.4698 -0.8659 -1.7544
11375TIP3   OH255539   4.218   3.784  10.899  0.0695  0.6326  0.7375
11375TIP3    H155540   4.202   3.758  10.990  2.4527  2.8188  1.8896
11375TIP3    H255541   4.302   3.745  10.877 -0.3877  0.2848 -0.5271
11376TIP3   OH255542   5.209   2.216  11.951 -0.3224 -0.1014  0.0576
11376TIP3    H155543   5.175   2.297  11.913 -1.2846 -0.1832  0.7073
11376TIP3    H255544   5.226   2.238  12.042  1.0693 -0.1645 -0.1701
11377TIP3   OH255545   3.127   3.934  11.078  0.0250 -0.6482  0.2746
11377TIP3    H155546   3.116   3.856  11.024 -1.1835  1.3750 -2.6685
11377TIP3    H255547   3.200   3.981  11.039 -0.9179  0.9201  0.2783
11378TIP3   OH255548   6.574   1.857   0.495 -0.1166  0.2686  0.2491
11378TIP3    H155549   6.481   1.876   0.493 -0.2941 -0.4672  0.9995
11378TIP3    H255550   6.616   1.943   0.497 -0.7152  0.6434 -1.5418
11379TIP3   OH255551   3.137   2.667   2.124  0.0956 -0.5394  0.0439
11379TIP3    H155552   3.190   2.590   2.143  0.2758 -0.5079 -0.3166
11379TIP3    H255553   3.188   2.715   2.059 -0.8585 -1.0218 -1.0842
11380TIP3   OH255554   5.982   6.497   0.647 -0.0862 -0.7440 -0.3598
11380TIP3    H155555   5.886   6.496   0.642 -0.0716  0.1717 -1.3086
11380TIP3    H255556   6.004   6.585   0.676  0.4912 -0.3017 -1.9812
11381TIP3   OH255557   6.480   4.929   4.933  0.3666  0.2158  0.8073
11381TIP3    H155558   6.510   4.839   4.923  1.0764  0.6444 -1.4919
11381TIP3    H255559   6.556   4.975   4.970  2.0096  0.8216 -2.8518
11382TIP3   OH255560   6.063   4.470  11.855 -0.0911  0.0339 -0.6484
11382TIP3    H155561   6.130   4.523  11.898  2.2411 -3.9016  1.1668
11382TIP3    H255562   6.015   4.531  11.801  3.0732  3.6869  0.2371
11383TIP3   OH255563   6.032   0.683  12.692  0.0786 -0.5028 -0.3045
11383TIP3    H155564   6.061   0.695  12.601  0.0051 -1.4615 -0.4632
11383TIP3    H255565   6.094   0.734  12.744 -1.1783  1.9141 -1.0285
11384TIP3   OH255566   2.722   2.844  16.758  0.3122 -0.4085  0.1153
11384TIP3    H155567   2.703   2.752  16.738 -1.1558 -0.3522  1.0970
11384TIP3    H255568   2.708   2.890  16.676  0.0034 -0.9261 -0.1262
11385TIP3   OH255569   6.568   6.499   6.290  0.2913  0.1189 -0.3927
11385TIP3    H155570   6.490   6.547   6.262 -0.8001 -0.8801  0.7599
11385TIP3    H255571   6.574   6.425   6.229  0.5415  0.3775 -0.6848
11386TIP3   OH255572   0.035   4.727  14.221  0.0500 -0.0004  0.2749
11386TIP3    H155573   0.024   4.805  14.276 -3.5356 -0.3666  0.3084
11386TIP3    H255574   0.098   4.753  14.154  1.1154  1.9404  1.9392
11387TIP3   OH255575   5.076   5.592   6.535  0.2167  0.1300  0.0947
11387TIP3    H155576   5.125   5.674   6.523 -0.6489  0.6276 -0.1662
11387TIP3    H255577   5.016   5.611   6.608 -1.7979  0.6385 -1.5881
11388TIP3   OH255578   2.700   5.602  11.827 -0.1545  0.6393 -0.2390
11388TIP3    H155579   2.606   5.617  11.829 -0.3716 -0.4159 -1.3331
11388TIP3    H255580   2.714   5.549  11.748  1.0820 -0.9968  1.0113
11389TIP3   OH255581   0.460   5.822  11.688  0.3244 -0.0437  0.1716
11389TIP3    H155582   0.435   5.915  11.686 -1.0589 -0.3647  1.0748
11389TIP3    H255583   0.410   5.782  11.616  1.8324  0.0819 -1.0001
11390TIP3   OH255584   0.162   1.707   4.678 -0.1547  0.2530  0.2102
11390TIP3    H155585   0.185   1.787   4.631 -0.1891  0.7273  0.9826
11390TIP3    H255586   0.198   1.637   4.625  0.4473  0.8183 -0.1442
11391TIP3   OH255587   4.728   5.659  16.689 -0.2093 -0.3226 -0.1360
11391TIP3    H155588   4.725   5.638  16.595 -5.2375 -0.9295 -0.1019
11391TIP3    H255589   4.726   5.574  16.732  2.2135 -0.0501  0.6937
11392TIP3   OH255590   3.272   5.850   0.182  0.0304 -0.2313 -0.1778
11392TIP3    H155591   3.252   5.898   0.262 -0.0697  0.9146 -0.8632
11392TIP3    H255592   3.211   5.885   0.117  0.2540 -0.9879 -0.8093
11393TIP3   OH255593   0.524   5.583  14.868 -0.2116 -0.1470 -0.3749
11393TIP3    H155594   0.501   5.567  14.959  2.4235 -1.1773  0.1879
11393TIP3    H255595   0.440   5.587  14.822 -1.5349 -1.2536  1.8170
11394TIP3   OH255596   1.382   2.816  15.501  0.0183 -0.3185 -0.1185
11394TIP3    H155597   1.405   2.759  15.427  3.0178 -0.1609  0.5521
11394TIP3    H255598   1.368   2.756  15.574  3.1785 -0.3647  0.5878
11395TIP3   OH255599   5.714   6.250   2.719 -0.9691 -0.1108 -0.3721
11395TIP3    H155600   5.660   6.262   2.796 -0.0973 -0.3164  0.2872
11395TIP3    H255601   5.672   6.179   2.670 -0.9012 -0.7447  0.4827
11396TIP3   OH255602   1.008   5.361   5.154  0.4553 -0.1047 -0.3732
11396TIP3    H155603   1.095   5.328   5.131 -0.7329 -2.6306 -1.5997
11396TIP3    H255604   0.966   5.289   5.201 -0.6130  1.4991  1.2887
11397TIP3   OH255605   2.402   5.042  11.622  0.1087  0.3916 -0.0453
11397TIP3    H155606   2.362   5.063  11.538 -1.2445 -0.9042  0.2450
11397TIP3    H255607   2.330   5.040  11.684  0.7815 -0.8187  0.7335
11398TIP3   OH255608   4.484   3.848  16.625 -0.0580 -0.0142  0.1777
11398TIP3    H155609   4.456   3.864  16.715 -0.5580  1.4398 -0.2121
11398TIP3    H255610   4.578   3.833  16.632 -0.4249 -2.1729  1.1802
11399TIP3   OH255611   0.581   1.612   3.380  0.3358  0.3147  0.5311
11399TIP3    H155612   0.669   1.627   3.346 -0.2111  0.2607 -0.9794
11399TIP3    H255613   0.527   1.677   3.335 -0.4607  0.1120  1.1770
11400TIP3   OH255614   1.711   2.564  13.677 -0.5142  0.0853  0.2304
11400TIP3    H155615   1.771   2.500  13.637  0.9874  0.7820  1.2806
11400TIP3    H255616   1.748   2.580  13.764 -0.3273  3.0218 -0.2866
11401TIP3   OH255617   0.859   5.893  15.004  0.2409 -0.8208  0.3813
11401TIP3    H155618   0.765   5.876  14.995 -0.0563  0.6841  0.3333
11401TIP3    H255619   0.897   5.807  15.023 -0.6213 -2.1642 -3.2685
11402TIP3   OH255620   6.443   2.046  17.220  0.4666  0.0642  0.1708
11402TIP3    H155621   6.425   2.074  17.131  3.0960  1.3027 -0.0791
11402TIP3    H255622   6.526   1.998  17.215  0.4992 -0.1505  1.8820
11403TIP3   OH255623   5.257   0.338   2.428  0.1230 -0.3705 -0.3049
11403TIP3    H155624   5.344   0.297   2.431  0.5688  0.5895  1.4753
11403TIP3    H255625   5.274   0.432   2.426 -0.8825 -0.1808 -0.6422
11404TIP3   OH255626   2.627   3.926  16.056  0.1368  0.2973 -0.0487
11404TIP3    H155627   2.611   3.907  16.148 -0.4499  1.6773  0.1598
11404TIP3    H255628   2.675   4.008  16.056  0.0225  0.3813 -0.9860
11405TIP3   OH255629   6.014   0.057   3.961  0.0856 -0.2687 -0.0064
11405TIP3    H155630   6.072   0.114   3.910 -1.5537  1.6427  0.1342
11405TIP3    H255631   6.017   0.093   4.050  0.3026 -1.4864  0.5023
11406TIP3   OH255632   1.616   3.372   0.462  0.1822  0.5452 -0.2693
11406TIP3    H155633   1.671   3.432   0.410  0.9024  0.4981  0.4259
11406TIP3    H255634   1.677   3.309   0.498 -0.6291 -0.9517 -1.4069
11407TIP3   OH255635   4.252   2.693   0.567 -0.2078  0.1940  0.2587
11407TIP3    H155636   4.303   2.618   0.537 -1.4021 -0.6812  0.3757
11407TIP3    H255637   4.317   2.763   0.576  0.5296 -0.0045 -2.4883
11408TIP3   OH255638   1.466   3.974  14.920 -0.3579 -0.5276 -0.0200
11408TIP3    H155639   1.380   3.941  14.943 -0.9823  1.0207 -0.0041
11408TIP3    H255640   1.450   4.037  14.850  0.7087  0.0879  0.2595
11409TIP3   OH255641   4.207   6.070   1.205  0.5771 -0.1938 -0.7650
11409TIP3    H155642   4.170   6.156   1.186  0.7504  0.1126  0.2247
11409TIP3    H255643   4.136   6.008   1.185 -0.5537  0.3867  1.2200
11410TIP3   OH255644   2.364   5.860   6.177 -0.9408  0.0199  0.3904
11410TIP3    H155645   2.358   5.926   6.247 -3.1897  0.1311  0.1653
11410TIP3    H255646   2.361   5.776   6.224 -0.7428  0.0905  0.5301
11411TIP3   OH255647   3.161   0.550  13.025  0.6957  0.4436  0.2269
11411TIP3    H155648   3.138   0.458  13.009 -1.3520  1.2174 -1.9256
11411TIP3    H255649   3.178   0.586  12.938 -2.5447  2.9846  0.4405
11412TIP3   OH255650   5.120   1.168  14.720  0.2855  0.1054  0.2770
11412TIP3    H155651   5.158   1.221  14.650 -0.0334  0.6318  0.5006
11412TIP3    H255652   5.072   1.099  14.674  0.9715 -0.1883 -0.0123
11413TIP3   OH255653   4.544   4.982  16.167  0.3187  0.0208 -0.1140
11413TIP3    H155654   4.449   4.985  16.169  0.2584  0.1443 -1.8418
11413TIP3    H255655   4.567   4.919  16.236 -0.9972 -0.0376  0.3056
11414TIP3   OH255656   2.564   4.564   5.481  0.4084  0.2828 -0.6626
11414TIP3    H155657   2.533   4.654   5.473 -0.5610  0.1125  0.8063
11414TIP3    H255658   2.636   4.568   5.544  0.6887  0.1001 -0.9685
11415TIP3   OH255659   0.648   3.022  16.770  0.4730 -0.0078 -0.0729
11415TIP3    H155660   0.639   2.927  16.772 -0.2732  0.0661  1.1833
11415TIP3    H255661   0.728   3.039  16.821 -0.4838  0.1147  1.4578
11416TIP3   OH255662   4.691   0.869  12.158  0.3031 -0.3568 -0.3614
11416TIP3    H155663   4.689   0.828  12.072  0.7725 -0.9580 -0.0866
11416TIP3    H255664   4.609   0.843  12.199  1.1203 -2.0419  0.2718
11417TIP3   OH255665   2.582   4.629   0.388 -0.5347 -0.2518 -0.0265
11417TIP3    H155666   2.647   4.622   0.318 -0.6834  3.2307 -0.6891
11417TIP3    H255667   2.498   4.624   0.343 -0.6946 -1.0071  0.3411
11418TIP3   OH255668   3.031   2.822  16.130 -0.0388 -0.2713 -0.2108
11418TIP3    H155669   3.124   2.846  16.129 -0.2382  1.7857  4.3850
11418TIP3    H255670   3.000   2.845  16.043  3.3707  0.8193 -1.3077
11419TIP3   OH255671   1.697   2.176   4.153  0.2042  0.0632 -0.5480
11419TIP3    H155672   1.651   2.098   4.185  0.2440  0.5704  0.8038
11419TIP3    H255673   1.630   2.244   4.151  0.2809  0.1175 -1.2524
11420TIP3   OH255674   6.478   6.067  16.834  0.2150 -0.2755 -0.3152
11420TIP3    H155675   6.560   6.043  16.790  1.5443  0.7750  1.4395
11420TIP3    H255676   6.415   6.003  16.802  1.9536 -1.7834 -0.9719
11421TIP3   OH255677   2.207   1.310   4.816 -0.1002  0.3875  1.1435
11421TIP3    H155678   2.155   1.369   4.870 -0.1557 -0.0814  1.6077
11421TIP3    H255679   2.146   1.242   4.788 -0.5987  1.7300 -1.2685
11422TIP3   OH255680   2.570   5.912  15.191  0.0654 -0.1705 -0.6454
11422TIP3    H155681   2.648   5.867  15.225 -0.1185 -1.3012 -1.6900
11422TIP3    H255682   2.563   5.883  15.100 -0.5390  1.3463 -1.1142
11423TIP3   OH255683   0.892   3.013   3.790  0.1937  0.8722 -0.4372
11423TIP3    H155684   0.973   3.064   3.795 -0.1369  1.6545 -2.2031
11423TIP3    H255685   0.892   2.976   3.701 -1.5920  1.2923 -0.6641
11424TIP3   OH255686   5.526   3.389   5.321 -1.0906  0.2737 -0.3469
11424TIP3    H155687   5.462   3.409   5.253 -1.2639  0.1857 -0.2125
11424TIP3    H255688   5.493   3.309   5.362  0.6081 -1.4590 -2.1400
11425TIP3   OH255689   6.086   1.949   3.092  0.5194 -0.0066  0.0335
11425TIP3    H155690   6.077   2.040   3.121 -0.3328 -0.5407  1.5340
11425TIP3    H255691   6.056   1.897   3.166  0.0479 -1.5056 -1.1663
11426TIP3   OH255692   5.321   3.452   4.128  0.1614 -0.0001 -0.1405
11426TIP3    H155693   5.400   3.397   4.119  0.1189 -0.2270  0.8028
11426TIP3    H255694   5.344   3.533   4.082  1.1633  0.1512  0.5818
11427TIP3   OH255695   2.036   2.628  10.750 -0.2128  0.0336 -0.6645
11427TIP3    H155696   2.119   2.629  10.703 -1.5863 -0.2069 -3.2599
11427TIP3    H255697   2.017   2.535  10.762 -0.5481  0.0581 -0.9693
11428TIP3   OH255698   5.423   1.241  14.947 -0.0199 -0.8587  0.0682
11428TIP3    H155699   5.478   1.188  14.889  1.7331  0.1635  0.7149
11428TIP3    H255700   5.460   1.227  15.034  0.0253  0.7969  0.3493
11429TIP3   OH255701   2.011   1.589  10.786  0.6242  0.3528  0.6329
11429TIP3    H155702   2.086   1.646  10.769 -0.2532  1.2603 -0.4058
11429TIP3    H255703   1.935   1.645  10.769 -0.3032 -1.4879 -1.7649
11430TIP3   OH255704   2.345   4.271   5.926 -0.2385  0.5162  0.3117
11430TIP3    H155705   2.432   4.286   5.889 -0.3010 -1.1815 -0.6482
11430TIP3    H255706   2.359   4.264   6.020  0.8353 -0.6821  0.0898
11431TIP3   OH255707   4.793   2.196  15.500 -0.2219  0.4900  0.3305
11431TIP3    H155708   4.886   2.221  15.507  0.0073 -0.5773  1.4464
11431TIP3    H255709   4.794   2.116  15.448 -0.5459  0.5932  0.1665
11432TIP3   OH255710   4.014   4.681  11.819  0.3654  0.7081 -0.6950
11432TIP3    H155711   3.989   4.589  11.829 -0.7554  0.9891 -0.7475
11432TIP3    H255712   4.046   4.707  11.906  1.8038 -0.0330 -0.9787
11433TIP3   OH255713   1.687   3.658  15.672  0.1294 -0.0300  0.4198
11433TIP3    H155714   1.734   3.585  15.631 -1.9833 -1.0546 -0.3316
11433TIP3    H255715   1.667   3.717  15.599 -1.9170 -0.8844  0.2190
11434TIP3   OH255716   2.119   2.586   0.800  0.4497 -0.5201  0.2468
11434TIP3    H155717   2.028   2.563   0.785  0.1606  2.1832 -3.3879
11434TIP3    H255718   2.166   2.503   0.799 -1.6978 -1.7902 -0.2424
11435TIP3   OH255719   5.299   5.199  12.056  0.5023  0.2934 -0.1812
11435TIP3    H155720   5.385   5.240  12.048  0.3377  0.4147 -1.5712
11435TIP3    H255721   5.262   5.203  11.968  0.2718 -2.4380 -0.2985
11436TIP3   OH255722   2.429   6.344   0.834  0.2516  0.7210 -0.0743
11436TIP3    H155723   2.397   6.434   0.830 -1.9070  0.0146  0.2590
11436TIP3    H255724   2.440   6.325   0.927  1.0380  0.7341 -0.1562
11437TIP3   OH255725   0.634   4.582  14.814  1.0198 -0.5432 -0.3362
11437TIP3    H155726   0.565   4.572  14.748  1.6353 -2.6026 -0.7149
11437TIP3    H255727   0.698   4.640  14.773  1.2015 -1.4759 -1.4184
11438TIP3   OH255728   3.119   1.621   3.661  0.6319 -0.1461  0.3030
11438TIP3    H155729   3.172   1.700   3.653 -3.7198  3.1359  0.8241
11438TIP3    H255730   3.095   1.617   3.754  0.0700 -1.6008  0.1220
11439TIP3   OH255731   0.630   0.543  13.820  0.6024 -0.1783  0.5795
11439TIP3    H155732   0.567   0.615  13.820 -0.0569 -0.7136  1.7357
11439TIP3    H255733   0.698   0.569  13.758  0.3869  1.4391  0.9867
11440TIP3   OH255734   5.645   0.388   4.843 -0.1731  0.9366 -0.5315
11440TIP3    H155735   5.723   0.369   4.790  0.8699 -0.0106  1.2208
11440TIP3    H255736   5.671   0.464   4.896 -0.2212  0.2796  0.4506
11441TIP3   OH255737   1.106   3.719  15.139  0.1413  0.3648  0.1751
11441TIP3    H155738   1.032   3.664  15.111  0.5766 -0.7388  1.0763
11441TIP3    H255739   1.081   3.749  15.226  0.5079  0.4392  0.2568
11442TIP3   OH255740   1.878   2.108   1.110  0.3925  0.0223 -0.7154
11442TIP3    H155741   1.888   2.087   1.017 -1.5241 -3.0955 -0.3625
11442TIP3    H255742   1.799   2.163   1.113  0.5164  0.2149 -0.9262
11443TIP3   OH255743   6.113   5.106  14.402  0.3046  0.5276  0.2095
11443TIP3    H155744   6.102   5.052  14.324  0.9886 -1.1468  1.2272
11443TIP3    H255745   6.148   5.189  14.369 -1.8449  0.8607 -1.5098
11444TIP3   OH255746   3.874   2.466  15.048  0.0513  0.1583 -0.0561
11444TIP3    H155747   3.818   2.540  15.071 -0.8765 -0.6407  0.3189
11444TIP3    H255748   3.839   2.392  15.098  0.1946 -0.8151 -1.3295
11445TIP3   OH255749   1.067   5.083  15.914 -1.3148  0.1579  0.0431
11445TIP3    H155750   1.068   5.153  15.980  1.4365  0.7799 -0.5200
11445TIP3    H255751   0.979   5.085  15.878 -1.2113  3.9240 -0.4815
11446TIP3   OH255752   5.795   4.782   2.494 -0.4984  0.0708 -0.5873
11446TIP3    H155753   5.791   4.877   2.494  0.3762  0.1134  0.5990
11446TIP3    H255754   5.735   4.755   2.563  0.6554 -0.1580  0.3504
11447TIP3   OH255755   0.348   2.327   2.007  0.2954 -0.0664  0.3066
11447TIP3    H155756   0.371   2.419   1.998 -0.0834 -0.0713 -0.8610
11447TIP3    H255757   0.266   2.327   2.056 -1.0132  0.3999 -1.7630
11448TIP3   OH255758   1.574   1.443  11.630  0.0567  0.3261 -0.4706
11448TIP3    H155759   1.648   1.475  11.682 -0.8896 -0.2757  1.3363
11448TIP3    H255760   1.603   1.359  11.596  0.7403  0.7893 -1.0707
11449TIP3   OH255761   3.605   3.254  12.783 -0.8270 -0.2727  0.3218
11449TIP3    H155762   3.558   3.336  12.792  0.7332  0.7862 -0.7212
11449TIP3    H255763   3.628   3.250  12.690  0.8430 -0.8955  0.7396
11450TIP3   OH255764   5.576   6.011  12.525 -0.1116 -0.0354  0.5045
11450TIP3    H155765   5.525   6.079  12.569 -0.5890 -0.1359  0.1054
11450TIP3    H255766   5.534   5.929  12.552 -1.6023 -0.0372 -1.5978
11451TIP3   OH255767   6.669   2.095   3.585 -0.8873  0.1544 -0.0396
11451TIP3    H155768   6.681   2.081   3.492  1.8044  0.2522  0.2170
11451TIP3    H255769   6.663   2.190   3.595 -3.3071  0.0765 -0.2593
11452TIP3   OH255770   2.751   6.064  16.150 -0.3889 -0.3229  0.2942
11452TIP3    H155771   2.834   6.112  16.147 -0.4813 -0.1623  0.2835
11452TIP3    H255772   2.705   6.089  16.070 -0.6679 -0.0057  0.5475
11453TIP3   OH255773   2.321   1.269  14.326 -0.2866 -0.0310  0.0246
11453TIP3    H155774   2.415   1.279  14.309  0.0503 -1.0577  1.1777
11453TIP3    H255775   2.281   1.262  14.239  0.7909 -0.3116 -0.4610
11454TIP3   OH255776   5.841   4.113  14.604  0.5330  0.0162  0.6965
11454TIP3    H155777   5.779   4.142  14.537  1.0605  2.9658  1.3520
11454TIP3    H255778   5.790   4.111  14.685  0.4282 -1.3377  0.6144
11455TIP3   OH255779   1.907   2.976  16.590  0.7444 -0.0652  0.6329
11455TIP3    H155780   1.871   2.891  16.613  0.5281 -0.2651 -0.4187
11455TIP3    H255781   1.834   3.025  16.554  0.8274  0.6382  1.3998
11456TIP3   OH255782   3.696   2.551  15.856 -0.0175  0.2104  0.1269
11456TIP3    H155783   3.767   2.587  15.803 -0.6274  2.1347  0.5423
11456TIP3    H255784   3.617   2.595  15.825 -0.7332 -0.3710  1.0475
11457TIP3   OH255785   3.648   5.823   1.655 -0.1866 -0.4913  0.4977
11457TIP3    H155786   3.683   5.755   1.712 -0.2004 -1.8109 -1.0031
11457TIP3    H255787   3.721   5.884   1.641 -0.1810 -0.1683  1.8610
11458TIP3   OH255788   1.421   1.872  11.827  0.7604 -0.0748 -0.3010
11458TIP3    H155789   1.401   1.927  11.751  0.7577  0.4013  0.0426
11458TIP3    H255790   1.421   1.783  11.792 -2.1086 -0.1589 -0.3173
11459TIP3   OH255791   4.773   3.315  14.684  0.9244 -0.3436  0.2846
11459TIP3    H155792   4.699   3.279  14.733  0.8712 -1.3605 -0.5117
11459TIP3    H255793   4.834   3.344  14.752 -0.0080  0.1375  0.9486
11460TIP3   OH255794   6.461   5.373  16.336  0.7097 -0.0631  0.0585
11460TIP3    H155795   6.483   5.284  16.362  2.0791 -0.1852 -1.3499
11460TIP3    H255796   6.369   5.382  16.358  0.4682 -1.9182  0.0079
11461TIP3   OH255797   4.110   1.530  15.852 -0.4263 -0.1592  0.4062
11461TIP3    H155798   4.026   1.571  15.835  0.3433  0.3107 -3.0342
11461TIP3    H255799   4.172   1.602  15.856  0.2429 -0.6628 -0.4948
11462TIP3   OH255800   2.504   0.398  11.886 -0.6382 -0.4541 -0.2507
11462TIP3    H155801   2.492   0.492  11.874 -1.1818 -0.5423 -0.4162
11462TIP3    H255802   2.458   0.378  11.967  0.2109 -0.4358  0.2503
11463TIP3   OH255803   4.898   2.923  11.510 -0.2949  0.0872  0.4347
11463TIP3    H155804   4.874   3.002  11.559  0.2026  0.0656  0.7173
11463TIP3    H255805   4.837   2.856  11.540 -2.4909  0.9837 -1.6999
11464TIP3   OH255806   1.406   5.062  15.016 -0.6946  0.2966  0.1387
11464TIP3    H155807   1.329   5.118  15.011 -1.4923 -0.7985 -0.2975
11464TIP3    H255808   1.370   4.974  15.029  0.3585 -0.6070 -2.5579
11465TIP3   OH255809   1.563   0.852   2.994  0.0076  0.0030  0.0856
11465TIP3    H155810   1.598   0.941   2.990 -0.2078  0.2335  2.2207
11465TIP3    H255811   1.624   0.801   2.941  0.8983  1.2013 -0.1008
11466TIP3   OH255812   4.676   4.542  11.508 -0.2756  0.4348  0.6873
11466TIP3    H155813   4.633   4.627  11.505 -2.3784 -0.5905 -0.3684
11466TIP3    H255814   4.717   4.533  11.421  0.4901  0.6069  1.0201
11467TIP3   OH255815   4.017   4.779   4.474 -0.2572 -0.0287 -0.6178
11467TIP3    H155816   3.924   4.761   4.485 -0.5439  2.0188  0.7402
11467TIP3    H255817   4.021   4.839   4.399  0.1830 -1.4816 -1.8048
11468TIP3   OH255818   2.348   3.108   1.913 -0.2027 -0.4936 -0.3317
11468TIP3    H155819   2.380   3.095   1.824 -0.6156 -0.4997 -0.4818
11468TIP3    H255820   2.375   3.198   1.935  0.0835 -0.5656 -0.3820
11469TIP3   OH255821   4.871   1.064  16.457 -0.0138  0.4039  0.1421
11469TIP3    H155822   4.871   1.035  16.366  0.7715  0.8030  0.0065
11469TIP3    H255823   4.911   0.991  16.505 -0.8951 -0.0181  0.2456
11470TIP3   OH255824   4.752   3.930  16.943 -0.0783 -0.1049 -0.5677
11470TIP3    H155825   4.658   3.925  16.961 -0.1557  2.4876  0.0773
11470TIP3    H255826   4.762   3.885  16.859 -1.9400 -0.2307 -0.7688
11471TIP3   OH255827   2.927   5.113  10.444 -0.2139 -0.4886  0.5107
11471TIP3    H155828   2.960   5.105  10.354  0.1674  1.9358  0.3559
11471TIP3    H255829   3.004   5.098  10.499 -0.2280 -1.0079  0.3880
11472TIP3   OH255830   2.012   2.088  12.381 -0.4377  0.2812 -0.2875
11472TIP3    H155831   1.971   2.175  12.379  0.9467  0.9484 -1.5827
11472TIP3    H255832   2.014   2.065  12.474 -1.2619  1.4179  0.0358
11473TIP3   OH255833   0.153   2.361  14.902 -0.1604  0.4009  0.3453
11473TIP3    H155834   0.165   2.361  14.807  0.9146  0.4379  0.4766
11473TIP3    H255835   0.127   2.271  14.923 -2.3425  0.8460 -0.1951
11474TIP3   OH255836   6.064   3.631   2.830  0.2682  0.1751 -0.2368
11474TIP3    H155837   6.029   3.545   2.807  1.9316 -0.2962 -1.1348
11474TIP3    H255838   6.155   3.615   2.854  0.5487  1.6697 -0.1886
11475TIP3   OH255839   4.079   4.803  16.057 -0.0316  0.8693 -0.1605
11475TIP3    H155840   4.082   4.722  16.005  1.1985  0.0357  1.1083
11475TIP3    H255841   3.989   4.834  16.048 -0.2552 -0.0601 -1.5301
11476TIP3   OH255842   1.571   2.347  13.988 -0.0338  0.6650  0.4271
11476TIP3    H155843   1.549   2.432  13.951  1.5082  1.1622  0.5762
11476TIP3    H255844   1.666   2.338  13.974 -0.3589 -1.5924 -0.7089
11477TIP3   OH255845   6.202   4.756  16.742  0.1033 -0.1823 -0.4274
11477TIP3    H155846   6.139   4.828  16.745  0.4287  0.0655  1.1297
11477TIP3    H255847   6.239   4.760  16.653 -0.9344  0.6380 -0.8423
11478TIP3   OH255848   5.359   2.681  12.887  0.4376 -0.1212 -0.1821
11478TIP3    H155849   5.365   2.773  12.912 -2.6123 -0.0924  0.8304
11478TIP3    H255850   5.381   2.679  12.794  0.7472  1.5636 -0.1627
11479TIP3   OH255851   5.297   2.982   3.651 -0.0047  0.2050  0.2988
11479TIP3    H155852   5.365   2.964   3.587 -0.1025 -0.8654  0.4859
11479TIP3    H255853   5.219   3.001   3.598 -0.0731 -0.6254  0.0829
11480TIP3   OH255854   6.423   4.079  16.524  0.9226 -0.2844 -0.4676
11480TIP3    H155855   6.509   4.044  16.549 -0.0526 -2.0772  0.5661
11480TIP3    H255856   6.431   4.174  16.536  2.3410 -0.5369  0.9119
11481TIP3   OH255857   5.688   1.901   5.835 -0.0314 -0.0852  0.2593
11481TIP3    H155858   5.643   1.889   5.919 -1.6120  2.6399 -0.0917
11481TIP3    H255859   5.781   1.898   5.857 -0.4078 -0.0678  1.9910
11482TIP3   OH255860   5.636   4.815  14.853 -0.2285 -0.7157  0.3489
11482TIP3    H155861   5.541   4.821  14.843 -0.2137 -1.2429 -0.1580
11482TIP3    H255862   5.664   4.905  14.868 -0.6098 -0.2844 -1.3781
11483TIP3   OH255863   2.026   2.141   3.779  0.3894 -0.5634  0.0194
11483TIP3    H155864   2.056   2.199   3.849  0.5471 -2.1007  1.3080
11483TIP3    H255865   2.013   2.056   3.823  0.8361 -1.6854 -1.9032
11484TIP3   OH255866   2.173   4.902   3.720  0.7037 -0.0405  0.6939
11484TIP3    H155867   2.109   4.971   3.703 -0.7807 -1.5674 -0.1823
11484TIP3    H255868   2.254   4.949   3.740 -0.4416  1.9474  0.9413
11485TIP3   OH255869   1.409   0.256  17.068  0.1075 -0.4452  0.0719
11485TIP3    H155870   1.338   0.220  17.121 -1.1584  0.9695 -0.6051
11485TIP3    H255871   1.474   0.286  17.131 -0.7419 -0.0627  0.7688
11486TIP3   OH255872   5.567   1.532   0.070  0.5728 -0.5702 -0.0899
11486TIP3    H155873   5.632   1.461   0.073  0.2423 -0.9092 -0.6493
11486TIP3    H255874   5.573   1.566  -0.019 -0.9937 -1.5584 -0.6115
11487TIP3   OH255875   0.225   4.270  14.354  0.0183  0.1662  0.2018
11487TIP3    H155876   0.312   4.303  14.332  0.2672 -0.5087  0.1735
11487TIP3    H255877   0.195   4.225  14.275 -0.2113  0.0976  0.3265
11488TIP3   OH255878   5.008   5.030  13.214  0.0573 -0.3286  0.4537
11488TIP3    H155879   5.063   5.101  13.246  0.6005 -0.3063 -0.5017
11488TIP3    H255880   5.038   5.013  13.125 -1.3229 -0.4851 -0.0196
11489TIP3   OH255881   4.740   6.111  14.192  0.2403  0.2354 -0.4340
11489TIP3    H155882   4.730   6.203  14.215  1.6161  1.1585 -3.1391
11489TIP3    H255883   4.689   6.099  14.112 -0.9452 -1.7303  0.5263
11490TIP3   OH255884   6.497   0.005  16.344  0.8471  1.0667 -0.5776
11490TIP3    H155885   6.414   0.051  16.337  1.3102  2.2081  1.0434
11490TIP3    H255886   6.529   0.000  16.253 -2.1901 -1.8733 -1.6905
11491TIP3   OH255887   0.710   2.646  11.146 -0.1539 -0.6070  0.3297
11491TIP3    H155888   0.663   2.727  11.164  1.4687  0.2460  0.8954
11491TIP3    H255889   0.729   2.610  11.233  2.1514  0.2246  0.2227
11492TIP3   OH255890   4.843   4.583   1.305 -0.4130  0.0157 -0.8231
11492TIP3    H155891   4.879   4.500   1.275 -1.4864 -1.5280  1.7970
11492TIP3    H255892   4.749   4.567   1.314 -0.4684  1.0391  1.0026
11493TIP3   OH255893   2.466   1.536  11.368  0.1150 -0.1151  0.4917
11493TIP3    H155894   2.470   1.527  11.272  1.1075 -3.4274  0.6976
11493TIP3    H255895   2.507   1.620  11.386 -0.0239  0.5776 -1.9733
11494TIP3   OH255896   2.878   1.192   1.106  0.2171  0.5322  0.4578
11494TIP3    H155897   2.958   1.142   1.093 -1.1857 -1.3017 -1.9613
11494TIP3    H255898   2.898   1.278   1.067  1.0773  0.1804  0.0849
11495TIP3   OH255899   2.907   1.089   4.508  0.1598  0.2481  0.3338
11495TIP3    H155900   2.825   1.096   4.459  0.7719  1.4282 -0.5799
11495TIP3    H255901   2.957   1.167   4.482  0.5756  0.8607  2.7533
11496TIP3   OH255902   2.792   3.311   4.091 -0.2050 -0.5203 -0.0475
11496TIP3    H155903   2.855   3.309   4.163  0.1748  0.2635 -0.3438
11496TIP3    H255904   2.837   3.267   4.019  0.3493  0.7654 -0.5126
11497TIP3   OH255905   4.193   5.301   1.027 -0.5929 -0.0945  0.3196
11497TIP3    H155906   4.180   5.250   1.107  1.5053 -1.3619 -0.0686
11497TIP3    H255907   4.141   5.256   0.961  0.1782 -0.9360  0.2812
11498TIP3   OH255908   1.860   0.930   2.802 -0.0078  0.3554  0.2621
11498TIP3    H155909   1.952   0.911   2.817 -0.5002 -3.0816 -0.3387
11498TIP3    H255910   1.855   0.954   2.709 -0.0014 -2.3686 -0.5130
11499TIP3   OH255911   5.077   1.881  15.812 -0.0353 -0.1551  0.2719
11499TIP3    H155912   5.138   1.878  15.738  0.5908 -2.1416  0.7889
11499TIP3    H255913   5.032   1.797  15.809 -2.9453  1.3028 -0.1576
11500TIP3   OH255914   4.270   0.139  13.451 -0.2478 -0.0848 -0.0651
11500TIP3    H155915   4.208   0.172  13.386  0.3101  0.9231 -0.1055
11500TIP3    H255916   4.254   0.045  13.453 -1.0681  0.0195 -0.8172
11501TIP3   OH255917   2.895   1.202   2.624  0.0143 -0.6672  0.9362
11501TIP3    H155918   2.837   1.245   2.562 -0.2254 -1.3994  0.6530
11501TIP3    H255919   2.978   1.250   2.616 -0.9480  1.3851  2.4500
11502TIP3   OH255920   4.038   5.407   4.281  0.4515  1.0339 -0.4405
11502TIP3    H155921   4.111   5.409   4.219  0.4660  1.1126 -0.4208
11502TIP3    H255922   4.057   5.477   4.344  1.1634  0.0614  0.4716
11503TIP3   OH255923   5.725   4.612  10.990 -0.5912 -0.3148 -0.2110
11503TIP3    H155924   5.814   4.576  10.988 -0.2466  0.5472 -1.1065
11503TIP3    H255925   5.734   4.696  11.035 -1.0062 -0.3670 -0.0286
11504TIP3   OH255926   5.895   5.315  14.200 -0.0680  0.3141  0.0073
11504TIP3    H155927   5.837   5.314  14.123  0.6876  1.4178 -0.5985
11504TIP3    H255928   5.949   5.393  14.188  0.7272 -0.0413  1.1791
11505TIP3   OH255929   1.315   5.102  14.028  0.3748 -0.5056 -0.2916
11505TIP3    H155930   1.313   5.192  13.996  0.2415 -1.0198 -1.7592
11505TIP3    H255931   1.394   5.064  13.989  0.7435 -0.8828  0.7656
11506TIP3   OH255932   6.420   4.394  12.773 -0.1604 -0.3898  0.3611
11506TIP3    H155933   6.393   4.472  12.724 -0.7359 -0.0831  1.1379
11506TIP3    H255934   6.512   4.409  12.794 -0.5337  0.6006  1.4182
11507TIP3   OH255935   3.327   1.272   0.569  0.3445  0.1322 -0.2110
11507TIP3    H155936   3.380   1.247   0.645 -1.7431 -1.2621  0.9021
11507TIP3    H255937   3.324   1.193   0.515  0.3566  0.5637 -0.8525
11508TIP3   OH255938   3.685   4.593  11.456  0.0432 -0.5266  0.3011
11508TIP3    H155939   3.598   4.626  11.478  0.6212 -0.1607  2.2994
11508TIP3    H255940   3.696   4.516  11.513  1.2634 -0.1736  0.5764
11509TIP3   OH255941   3.636   0.162  15.037 -0.1096 -0.0930 -0.5806
11509TIP3    H155942   3.593   0.210  15.108  0.5556 -0.7160  0.2865
11509TIP3    H255943   3.670   0.230  14.979 -0.2158  0.4544 -0.0184
11510TIP3   OH255944   3.072   5.717   4.385  0.1076  0.9543  0.2692
11510TIP3    H155945   2.999   5.655   4.389  0.9251 -0.1489 -1.0463
11510TIP3    H255946   3.113   5.711   4.471 -0.7755  0.8634  0.6938
11511TIP3   OH255947   3.770   3.751   4.005 -0.3577  0.3723 -0.4956
11511TIP3    H155948   3.758   3.673   3.951  2.1775 -0.2471 -0.2872
11511TIP3    H255949   3.748   3.824   3.947  1.6444 -0.3087 -2.2222
11512TIP3   OH255950   2.464   0.488  11.354 -0.2004 -1.0625  0.0180
11512TIP3    H155951   2.423   0.402  11.349 -1.5814 -0.4396  0.0587
11512TIP3    H255952   2.427   0.528  11.433  1.0589 -0.7352  0.4653
11513TIP3   OH255953   3.203   5.804   3.031  0.0105  0.7343 -0.0573
11513TIP3    H155954   3.164   5.891   3.029  0.8570  1.1139 -0.2904
11513TIP3    H255955   3.239   5.796   3.119 -1.3678  0.0180  0.4778
11514TIP3   OH255956   4.869   0.983   4.326  0.3322 -0.2748 -0.2754
11514TIP3    H155957   4.947   1.019   4.369  1.2169  0.8449 -2.6632
11514TIP3    H255958   4.858   0.896   4.366  0.2338  1.1280  3.1378
11515TIP3   OH255959   5.639   0.342  11.705 -0.2306  0.4730 -0.4751
11515TIP3    H155960   5.711   0.306  11.758 -0.9164 -0.2683 -0.0269
11515TIP3    H255961   5.561   0.326  11.757 -0.6828  1.7706 -0.6986
11516TIP3   OH255962   1.925   6.281   1.717 -0.0421  0.2061  0.2874
11516TIP3    H155963   1.980   6.212   1.754  0.7255  1.0702  0.8134
11516TIP3    H255964   1.839   6.240   1.705  0.6058 -1.0614 -0.1954
11517TIP3   OH255965   0.707   1.241   2.842 -0.6441  0.3498 -0.7708
11517TIP3    H155966   0.727   1.187   2.766 -0.9319 -1.5681  0.4277
11517TIP3    H255967   0.649   1.309   2.809  0.7630  0.7456 -2.6003
11518TIP3   OH255968   0.658   5.693   0.413 -0.1928 -0.0168 -0.0304
11518TIP3    H155969   0.566   5.673   0.397 -0.2644 -0.6923  1.1075
11518TIP3    H255970   0.668   5.684   0.507  0.4637  2.5671  0.2244
11519TIP3   OH255971   4.137   1.293   5.972 -0.0044  0.1825  0.1544
11519TIP3    H155972   4.217   1.280   6.023 -0.5899  0.8332  1.2763
11519TIP3    H255973   4.069   1.312   6.037 -0.6398  1.7459 -0.8857
11520TIP3   OH255974   3.862   0.881   1.239 -0.2744  0.1673 -0.2461
11520TIP3    H155975   3.861   0.962   1.289  0.6735  0.2312 -0.2956
11520TIP3    H255976   3.952   0.875   1.205 -0.4393 -0.6962 -0.5701
11521TIP3   OH255977   2.859   4.935   3.884  0.0216  0.5421  0.1723
11521TIP3    H155978   2.831   4.845   3.873  1.9296 -0.1407  0.4340
11521TIP3    H255979   2.816   4.983   3.814 -2.3341 -0.2222  1.0157
11522TIP3   OH255980   3.695   2.020  15.503 -1.0802 -0.0775  0.0228
11522TIP3    H155981   3.609   2.027  15.463 -0.3419 -1.3257 -1.9538
11522TIP3    H255982   3.754   2.061  15.440  0.0207 -1.2717  0.2206
11523TIP3   OH255983   5.922   1.378  13.395  0.1330  0.1224 -0.6532
11523TIP3    H155984   6.017   1.373  13.404  0.3421 -0.2700 -2.7193
11523TIP3    H255985   5.907   1.435  13.320 -1.3268  1.1427  0.3600
11524TIP3   OH255986   5.314   2.692   1.759  0.0939  1.1083 -0.0473
11524TIP3    H155987   5.269   2.661   1.838  1.1742  0.1059  0.2063
11524TIP3    H255988   5.292   2.627   1.692  2.9394 -0.7571  0.6619
11525TIP3   OH255989   2.227   5.334  13.664  0.0624  0.3563  0.0906
11525TIP3    H155990   2.200   5.317  13.574 -1.1183  2.6329 -0.0625
11525TIP3    H255991   2.145   5.352  13.711  0.4977 -2.2000  2.0273
11526TIP3   OH255992   2.328   0.662   1.578 -0.2186  0.0471  0.0992
11526TIP3    H155993   2.233   0.657   1.567 -0.1611  1.9238 -2.1539
11526TIP3    H255994   2.363   0.594   1.520 -0.1593 -1.1551  1.5031
11527TIP3   OH255995   3.695   2.234   4.390 -0.1327 -0.0719 -0.8900
11527TIP3    H155996   3.684   2.307   4.329  0.5453  1.0172  0.2307
11527TIP3    H255997   3.606   2.213   4.417 -0.2646  2.0752  0.6598
11528TIP3   OH255998   4.513   0.994   1.278 -0.2912  0.1672 -0.8113
11528TIP3    H155999   4.592   1.010   1.225 -0.5472  1.7288 -0.7711
11528TIP3    H256000   4.443   1.039   1.231 -0.7381  0.6378  0.2735
11529TIP3   OH256001   5.213   1.834   2.071 -0.3315  0.2356  0.6163
11529TIP3    H156002   5.304   1.826   2.098  0.8107  3.0175 -1.8797
11529TIP3    H256003   5.168   1.868   2.148  1.0964  0.4510  1.3890
11530TIP3   OH256004   6.468   0.596  17.168  0.3550  0.0608  0.6433
11530TIP3    H156005   6.505   0.685  17.168  0.0537  0.1909 -0.0240
11530TIP3    H256006   6.449   0.579  17.076 -2.6294  0.5579  1.0887
11531TIP3   OH256007   5.555   0.905  14.380 -0.1510  0.5053 -0.4296
11531TIP3    H156008   5.463   0.928  14.373  0.1761  1.7511 -0.9863
11531TIP3    H256009   5.601   0.981  14.345  1.0414 -0.7825 -1.7675
11532TIP3   OH256010   2.941   3.437  12.848  0.1240  0.1094  0.0811
11532TIP3    H156011   2.921   3.353  12.806  0.4281 -0.2452  0.6374
11532TIP3    H256012   2.862   3.490  12.835  0.1674 -0.0263 -0.8423
11533TIP3   OH256013   1.712   1.819  11.880 -0.3299  0.0599 -0.2022
11533TIP3    H156014   1.625   1.842  11.846 -0.9895 -0.3505  1.1249
11533TIP3    H256015   1.694   1.773  11.962  1.1710  0.4841  0.3965
11534TIP3   OH256016   0.416   0.913   3.673  0.2787 -0.3557  0.0397
11534TIP3    H156017   0.347   0.975   3.649  0.8776  0.7914  1.1282
11534TIP3    H256018   0.482   0.967   3.717  1.8649 -1.4028 -0.9288
11535TIP3   OH256019   3.484   4.582  13.317 -0.1499 -0.6313  0.3504
11535TIP3    H156020   3.483   4.667  13.272  1.7291 -0.5418  0.4149
11535TIP3    H256021   3.523   4.522  13.255  0.2705 -1.0369  0.9976
11536TIP3   OH256022   3.755   3.766   4.783  0.0891 -0.3369  0.0410
11536TIP3    H156023   3.812   3.782   4.708 -0.8086 -2.8970 -1.3011
11536TIP3    H256024   3.778   3.678   4.812 -1.6184 -0.5191  0.9321
11537TIP3   OH256025   0.607   6.035  14.851  0.2856 -0.6095  0.0853
11537TIP3    H156026   0.595   6.109  14.911  0.3468  1.1344 -1.9473
11537TIP3    H256027   0.520   6.019  14.815  0.4969 -0.7363 -0.3738
11538TIP3   OH256028   1.755   4.643   0.987 -0.4265 -0.1510  0.1862
11538TIP3    H156029   1.712   4.587   1.052  1.0845 -1.1978  0.3614
11538TIP3    H256030   1.684   4.685   0.939 -1.5890  0.0149  1.9769
11539TIP3   OH256031   4.224   2.944  14.142  0.3144 -0.0014  0.2431
11539TIP3    H156032   4.316   2.920  14.134  0.4068  0.5925 -0.6872
11539TIP3    H256033   4.192   2.893  14.216  1.6448  0.5799  1.2545
11540TIP3   OH256034   1.891   4.937   3.225  0.3059  0.1399  0.7056
11540TIP3    H156035   1.873   4.956   3.317 -0.7334  0.3867  0.4621
11540TIP3    H256036   1.828   4.869   3.202  1.7303 -1.2299  0.6412
11541TIP3   OH256037   1.596   0.950  17.213 -0.0795  0.7261  0.3064
11541TIP3    H156038   1.554   1.032  17.238 -0.7338  0.7980 -0.9684
11541TIP3    H256039   1.526   0.885  17.216  0.0081  0.5863 -0.5361
11542TIP3   OH256040   0.069   1.013   3.496  0.3903  0.3581 -0.1881
11542TIP3    H156041   0.121   0.986   3.421  1.2092  0.0266  0.4852
11542TIP3    H256042   0.032   1.097   3.471  1.3478  0.6609 -0.6310
11543TIP3   OH256043   4.841   5.045   6.508  0.0410  0.1838 -0.3483
11543TIP3    H156044   4.755   5.050   6.467 -0.1635 -0.5570 -0.0273
11543TIP3    H256045   4.847   4.955   6.539  1.4410 -0.1526 -1.4673
11544TIP3   OH256046   0.710   6.279   5.858  0.1973 -0.5912  0.2702
11544TIP3    H156047   0.650   6.325   5.799  1.5335 -0.0110 -0.6684
11544TIP3    H256048   0.660   6.201   5.885 -0.8723 -0.2898 -0.7229
11545TIP3   OH256049   3.747   2.683   6.314  0.4967 -0.0446  0.1774
11545TIP3    H156050   3.661   2.669   6.274  0.7163  1.0304 -0.7206
11545TIP3    H256051   3.780   2.595   6.332 -0.6905 -0.4815  0.3390
11546TIP3   OH256052   1.221   1.544  14.108  0.0861  0.6084 -0.9245
11546TIP3    H156053   1.152   1.491  14.150  1.2061  0.1056  0.3639
11546TIP3    H256054   1.236   1.616  14.170  0.3549  1.0199 -1.4621
11547TIP3   OH256055   6.308   2.517  16.093  0.1863  0.1926 -0.1692
11547TIP3    H156056   6.357   2.480  16.166 -0.6824 -1.1967 -0.2469
11547TIP3    H256057   6.344   2.475  16.015 -0.3539  0.0059 -0.3265
11548TIP3   OH256058   2.533   4.640   0.669  0.3632  0.3505  0.6131
11548TIP3    H156059   2.627   4.632   0.685  0.3099 -0.6199  0.4958
11548TIP3    H256060   2.526   4.662   0.576  0.4532 -0.2805  0.4555
11549TIP3   OH256061   4.869   3.306   2.690 -0.4625  0.1975  0.4725
11549TIP3    H156062   4.891   3.399   2.678 -0.8857  0.2275 -0.1115
11549TIP3    H256063   4.791   3.293   2.636 -1.0957 -0.2249  1.4697
11550TIP3   OH256064   1.340   6.062   4.187 -0.1409 -0.5739  0.1755
11550TIP3    H156065   1.364   6.054   4.094  0.0308  0.2916  0.1395
11550TIP3    H256066   1.314   6.154   4.197  0.5010 -0.4920  1.1466
11551TIP3   OH256067   5.339   4.711  12.530 -0.0749  0.3924 -0.6443
11551TIP3    H156068   5.288   4.630  12.531  2.0139 -1.0075 -0.5068
11551TIP3    H256069   5.300   4.763  12.459 -2.9518  0.3569  0.7670
11552TIP3   OH256070   4.126   0.635  12.977 -0.0321  0.4261  0.1067
11552TIP3    H156071   4.218   0.635  12.950 -0.4767  0.4349 -1.5171
11552TIP3    H256072   4.101   0.728  12.978  0.3379  0.5452  1.9902
11553TIP3   OH256073   4.634   3.130  14.197  0.1295 -0.6833  0.2658
11553TIP3    H156074   4.724   3.126  14.164 -0.1516  1.2081 -0.9204
11553TIP3    H256075   4.643   3.163  14.286  0.5700  2.0510 -0.6843
11554TIP3   OH256076   0.444   6.295  12.507  0.3103  0.2307  0.2159
11554TIP3    H156077   0.444   6.241  12.428 -2.1654  0.5666 -0.1191
11554TIP3    H256078   0.433   6.232  12.579 -0.7891  0.1136 -0.0287
11555TIP3   OH256079   5.298   2.054   2.269  0.5458  0.1055 -0.0945
11555TIP3    H156080   5.309   2.118   2.339  1.9248 -0.3524  0.1452
11555TIP3    H256081   5.387   2.027   2.247  0.1508  0.1875 -1.9962
11556TIP3   OH256082   1.754   6.455  13.740  0.4779 -0.0457 -0.3534
11556TIP3    H156083   1.732   6.366  13.712  0.5552 -0.0854 -0.2882
11556TIP3    H256084   1.728   6.510  13.667 -0.2993 -0.0428 -0.0773
11557TIP3   OH256085   3.732   0.218  11.516 -0.5035  0.2869 -0.6905
11557TIP3    H156086   3.652   0.267  11.534  0.0775  0.4621  1.7175
11557TIP3    H256087   3.794   0.247  11.583  0.5121 -2.2558 -0.4134
11558TIP3   OH256088   4.379   6.759   3.783 -0.6078  0.1482 -0.0567
11558TIP3    H156089   4.418   6.846   3.794  0.5445 -0.4815  1.0391
11558TIP3    H256090   4.290   6.768   3.818 -0.2981  0.7424  0.5865
11559TIP3   OH256091   5.556   6.445  16.876  0.1104 -0.3682  0.5139
11559TIP3    H156092   5.602   6.514  16.829  0.8418 -0.5776  0.9002
11559TIP3    H256093   5.621   6.409  16.936 -0.7251 -0.2737  1.5120
11560TIP3   OH256094   0.449   3.018   1.977  0.1558  0.2118 -0.0031
11560TIP3    H156095   0.480   3.101   1.942  0.1388  0.4441  0.5249
11560TIP3    H256096   0.356   3.034   1.997 -0.0717 -0.1918 -0.6902
11561TIP3   OH256097   0.638   5.209   5.317 -0.3430 -0.0368  0.0499
11561TIP3    H156098   0.720   5.187   5.273 -1.5627 -1.2308 -1.7673
11561TIP3    H256099   0.640   5.158   5.399  0.6397 -0.1911 -0.0579
11562TIP3   OH256100   3.772   2.555  10.770  0.2767  0.0395 -0.5558
11562TIP3    H156101   3.745   2.538  10.860  0.5004 -1.0727 -0.6905
11562TIP3    H256102   3.745   2.646  10.754 -1.8556 -0.4518 -0.1273
11563TIP3   OH256103   5.034   1.419  16.067 -0.4225 -0.3568  0.1225
11563TIP3    H156104   4.972   1.489  16.089 -1.0895 -1.0214  0.4119
11563TIP3    H256105   4.979   1.344  16.043  0.2673 -0.9451  0.3235
11564TIP3   OH256106   5.204   6.264   1.981 -0.5129  0.4229  0.6197
11564TIP3    H156107   5.163   6.346   1.956  0.0633  0.7719  0.7980
11564TIP3    H256108   5.239   6.281   2.069 -2.5597 -0.7804  1.7499
11565TIP3   OH256109   4.796   0.306   0.213  0.2611  0.0124  0.2479
11565TIP3    H156110   4.709   0.292   0.175  0.2466  0.1862  0.2166
11565TIP3    H256111   4.826   0.218   0.237  0.8733 -0.2928 -1.4925
11566TIP3   OH256112   6.176   4.149  11.959  0.1004  0.1766  0.3155
11566TIP3    H156113   6.111   4.143  11.890  0.5891 -2.3258 -0.0144
11566TIP3    H256114   6.190   4.059  11.988  2.1294  0.8161  1.5842
11567TIP3   OH256115   0.196   5.054   3.931  0.1562  0.1788 -0.1269
11567TIP3    H156116   0.167   4.966   3.907 -0.9104  0.5135 -0.1358
11567TIP3    H256117   0.153   5.071   4.015  0.7043  0.5237  0.0847
11568TIP3   OH256118   4.230   4.461  13.303 -0.2559  0.5026 -0.0651
11568TIP3    H156119   4.159   4.495  13.248 -0.9056  1.6508  1.4041
11568TIP3    H256120   4.198   4.376  13.332 -1.6888  1.5380  1.6170
11569TIP3   OH256121   3.605   2.766   5.413 -0.2914  0.2402  0.5614
11569TIP3    H156122   3.573   2.745   5.501 -1.2839  1.7101  0.5758
11569TIP3    H256123   3.548   2.716   5.354 -0.4538  0.2541  0.7051
11570TIP3   OH256124   1.792   0.683   4.984 -0.0348  0.3188  0.0556
11570TIP3    H156125   1.789   0.709   5.076  1.3265 -0.1668  0.2482
11570TIP3    H256126   1.882   0.656   4.969 -0.1987  0.5527 -1.4767
11571TIP3   OH256127   4.042   1.519   1.216  0.2731  0.5068 -0.2592
11571TIP3    H156128   4.053   1.546   1.124 -2.2317  1.8601 -0.2467
11571TIP3    H256129   4.019   1.427   1.211  0.8906  0.3749 -0.9098
11572TIP3   OH256130   1.805   1.495  15.631 -0.1790  0.2478 -0.3468
11572TIP3    H156131   1.864   1.564  15.664 -0.0318  1.2320 -2.4895
11572TIP3    H256132   1.722   1.539  15.617 -1.1576 -0.8765  1.5450
11573TIP3   OH256133   5.394   1.693   3.331  0.1165 -0.1236 -0.7793
11573TIP3    H156134   5.367   1.606   3.304 -0.2707 -1.4399  3.2222
11573TIP3    H256135   5.314   1.734   3.365  0.7411  0.8789 -0.4553
11574TIP3   OH256136   1.545   5.677  11.794 -0.0837 -0.5104  1.0682
11574TIP3    H156137   1.511   5.765  11.777 -0.6850 -0.7459  1.0371
11574TIP3    H256138   1.566   5.678  11.888 -3.5611 -1.4472  1.9963
11575TIP3   OH256139   6.118   0.419   5.410  0.1413 -0.7444 -0.1739
11575TIP3    H156140   6.090   0.468   5.332  0.5818 -1.0548 -0.5357
11575TIP3    H256141   6.052   0.440   5.476 -0.6561 -1.0347 -0.8453
11576TIP3   OH256142   2.245   4.990   5.760 -0.1973 -0.7957 -0.4555
11576TIP3    H156143   2.168   4.946   5.795 -0.8741 -1.4273 -2.5701
11576TIP3    H256144   2.228   5.083   5.774 -1.1376 -0.9539 -0.4743
11577TIP3   OH256145   3.670   1.307   4.966 -0.2299  0.6660 -0.7294
11577TIP3    H156146   3.646   1.343   4.880 -2.2540  1.5095  0.1199
11577TIP3    H256147   3.587   1.301   5.013  0.7423 -0.4594  0.9316
11578TIP3   OH256148   0.419   2.912  12.546  0.4294 -0.1784  0.4385
11578TIP3    H156149   0.434   2.886  12.638 -1.0211 -0.3516  0.6454
11578TIP3    H256150   0.342   2.968  12.549 -1.0733 -2.0238 -0.9146
11579TIP3   OH256151   0.766   6.230   3.252  0.0075 -0.2705  0.0584
11579TIP3    H156152   0.861   6.240   3.260  0.1805  0.3298 -2.1708
11579TIP3    H256153   0.730   6.302   3.303  0.7493 -0.2605  0.5877
11580TIP3   OH256154   4.383   2.046  11.053 -0.7010 -0.1340 -0.0960
11580TIP3    H156155   4.346   2.134  11.063 -0.7519  0.1707 -2.4390
11580TIP3    H256156   4.474   2.055  11.081 -0.8201  0.5498  0.1008
11581TIP3   OH256157   1.493   2.127   0.262  0.2747 -0.2948 -0.0315
11581TIP3    H156158   1.476   2.071   0.337 -2.8718  0.0044 -0.3676
11581TIP3    H256159   1.443   2.207   0.280  1.5455  0.8389 -1.2927
11582TIP3   OH256160   2.983   2.682   1.154  0.0570 -0.5070  0.2039
11582TIP3    H156161   2.988   2.595   1.114  0.3101  0.0426 -0.9918
11582TIP3    H256162   2.990   2.743   1.081 -1.0803  0.5323  0.9208
11583TIP3   OH256163   1.576   6.212   1.439  0.1469  0.0020  0.2666
11583TIP3    H156164   1.495   6.185   1.481 -1.0861  1.8612 -0.7527
11583TIP3    H256165   1.589   6.303   1.468  0.8465  0.3386 -1.0138
11584TIP3   OH256166   5.081   1.747  11.647 -0.3177 -0.2494 -0.8038
11584TIP3    H156167   5.133   1.698  11.710  0.6734 -0.9297 -2.0814
11584TIP3    H256168   5.113   1.837  11.654  0.9742 -0.6252 -1.4502
11585TIP3   OH256169   0.569   1.835   1.975  0.0701  0.0144 -0.5590
11585TIP3    H156170   0.528   1.782   2.044 -0.6065  0.7085 -0.4070
11585TIP3    H256171   0.525   1.809   1.895  1.7223 -1.7080 -0.9797
11586TIP3   OH256172   4.531   4.445   4.703  0.4693 -0.2427 -0.2164
11586TIP3    H156173   4.548   4.539   4.693  0.8435 -0.1598  0.9584
11586TIP3    H256174   4.543   4.409   4.616  2.9699  0.4195 -0.2365
11587TIP3   OH256175   5.659   1.547  13.240 -0.2587  0.3482 -0.1660
11587TIP3    H156176   5.628   1.592  13.161 -0.6586  0.7156  0.1897
11587TIP3    H256177   5.639   1.608  13.311  1.2612  0.5834  0.0890
11588TIP3   OH256178   5.293   2.478   5.708 -0.2365  0.2784  0.1613
11588TIP3    H156179   5.264   2.471   5.617 -0.0001 -0.8847  0.1631
11588TIP3    H256180   5.271   2.568   5.733 -2.0083  0.0442 -0.4441
11589TIP3   OH256181   5.881   2.173   3.250  0.0092  0.4610 -0.7171
11589TIP3    H156182   5.857   2.131   3.333  0.9605  0.9924 -0.1520
11589TIP3    H256183   5.798   2.205   3.215 -0.6987 -1.5012 -0.9785
11590TIP3   OH256184   0.125   6.526  17.210 -0.3362 -0.2417 -0.9118
11590TIP3    H156185   0.178   6.593  17.254 -1.3209  0.2045 -0.3989
11590TIP3    H256186   0.187   6.484  17.150  0.8643 -0.4102  0.3951
11591TIP3   OH256187   2.864   6.455   4.207 -0.3545 -0.5122  0.1678
11591TIP3    H156188   2.934   6.516   4.230  0.2961 -1.0019 -0.4722
11591TIP3    H256189   2.852   6.466   4.113  0.3779 -1.9651 -0.1275
11592TIP3   OH256190   4.985   3.945  16.446 -0.4056 -0.2167  0.6212
11592TIP3    H156191   5.036   3.866  16.462  1.0526 -0.0486 -2.4364
11592TIP3    H256192   4.906   3.934  16.499  0.1591 -3.2600  0.9996
11593TIP3   OH256193   5.876   0.017  12.551  0.2799 -0.7219  0.5957
11593TIP3    H156194   5.819  -0.014  12.621  0.6446 -1.3047  0.6347
11593TIP3    H256195   5.881  -0.056  12.489 -3.3742  1.0633 -2.2213
11594TIP3   OH256196   5.472   3.516   0.325 -0.3494  0.4101  0.3311
11594TIP3    H156197   5.543   3.549   0.269  0.0887  1.0214  1.2053
11594TIP3    H256198   5.512   3.443   0.373  0.3630  1.9546  2.2558
11595TIP3   OH256199   3.874   6.471   1.312  0.2835 -0.0918  0.4969
11595TIP3    H156200   3.907   6.431   1.393  0.8022 -0.6245  0.0342
11595TIP3    H256201   3.919   6.556   1.308  1.7589 -0.8616 -0.1902
11596TIP3   OH256202   6.749   2.944  13.196  0.6834 -0.5315 -0.1906
11596TIP3    H156203   6.779   2.855  13.180 -0.4609 -0.7550 -1.2416
11596TIP3    H256204   6.682   2.935  13.264  2.1273 -0.1675  1.3500
11597TIP3   OH256205   2.550   2.821   3.685  0.5926  0.1287 -0.8104
11597TIP3    H156206   2.463   2.859   3.675 -0.7862 -2.9906 -2.0175
11597TIP3    H256207   2.545   2.770   3.766  1.2907 -0.0588 -0.8754
11598TIP3   OH256208   0.902   5.332  15.622 -0.2681 -0.5760 -0.3226
11598TIP3    H156209   0.943   5.246  15.634 -0.3129 -0.7418 -1.3111
11598TIP3    H256210   0.969   5.386  15.582 -0.6941 -0.5800 -1.0668
11599TIP3   OH256211   3.923   6.640   3.519  0.4097 -0.5860 -0.3799
11599TIP3    H156212   4.017   6.660   3.520  0.4555 -0.7936 -0.6475
11599TIP3    H256213   3.905   6.615   3.429  0.1339 -0.7242 -0.2854
11600TIP3   OH256214   3.094   0.691  15.821 -0.4712 -0.3694 -0.4709
11600TIP3    H156215   3.013   0.712  15.776 -1.7475 -1.4150  1.2453
11600TIP3    H256216   3.128   0.776  15.849 -1.7164 -0.0077  0.0021
11601TIP3   OH256217   3.809   2.096   6.270  0.2131 -0.1068 -0.2045
11601TIP3    H156218   3.720   2.070   6.244  0.2223 -1.3725  0.8885
11601TIP3    H256219   3.862   2.019   6.251  0.9434  0.3772 -0.1453
11602TIP3   OH256220   2.099   3.945  13.505  0.7938  0.1953 -0.0414
11602TIP3    H156221   2.005   3.931  13.512  0.8389 -0.0731  0.0289
11602TIP3    H256222   2.110   4.040  13.511  0.2456  0.5753 -3.1752
11603TIP3   OH256223   1.926   1.378  16.543  0.2816 -0.1880 -0.1723
11603TIP3    H156224   1.898   1.344  16.628 -2.7199  0.0167 -0.9479
11603TIP3    H256225   1.931   1.300  16.487  1.9087 -0.2807  0.0696
11604TIP3   OH256226   1.828   0.744   0.914 -0.1075  0.5968  0.2107
11604TIP3    H156227   1.761   0.746   0.846 -0.8276 -1.2207  0.7998
11604TIP3    H256228   1.877   0.664   0.897 -0.5614 -0.1141  2.0183
11605TIP3   OH256229   6.315   1.148  16.785 -0.1105  0.1244 -0.2446
11605TIP3    H156230   6.300   1.238  16.757  1.7028  0.1982 -1.1116
11605TIP3    H256231   6.368   1.155  16.864  1.5532 -0.1535 -1.2883
11606TIP3   OH256232   2.840   0.395  15.979  0.2339 -0.0207  0.8144
11606TIP3    H156233   2.919   0.372  16.028  0.4100 -0.3170  0.3924
11606TIP3    H256234   2.768   0.376  16.040  0.4127 -1.0246  0.7244
11607TIP3   OH256235   4.282   3.673   3.476  0.3445 -0.2994 -0.2012
11607TIP3    H156236   4.285   3.768   3.462 -0.1539 -0.2118  0.2424
11607TIP3    H256237   4.198   3.659   3.520 -0.5316 -1.1783 -2.0354
11608TIP3   OH256238   2.277   6.558   0.637 -0.0366 -0.4729 -0.0255
11608TIP3    H156239   2.190   6.591   0.657 -0.4124  0.3789 -2.6825
11608TIP3    H256240   2.310   6.616   0.568  2.2917 -1.2859  0.2980
11609TIP3   OH256241   2.545   5.184   4.844 -0.2370  0.0802  0.1934
11609TIP3    H156242   2.575   5.094   4.831  0.3226  0.3059 -0.1445
11609TIP3    H256243   2.594   5.215   4.920 -0.2219  0.1833  0.1432
11610TIP3   OH256244   5.747   5.700   2.693  0.5189 -0.2419 -0.0110
11610TIP3    H156245   5.725   5.613   2.728  0.9714 -0.1512  0.5263
11610TIP3    H256246   5.714   5.761   2.759  2.2891 -0.1062  0.8115
11611TIP3   OH256247   6.445   6.246   1.343  0.1139  0.4096 -0.1163
11611TIP3    H156248   6.388   6.258   1.266 -0.8000 -2.3694  0.0010
11611TIP3    H256249   6.417   6.314   1.404 -2.9093 -0.5501 -0.2411
11612TIP3   OH256250   2.770   5.511   0.490  0.3871  0.1495  0.0897
11612TIP3    H156251   2.859   5.501   0.455  0.2970 -0.3995  0.0083
11612TIP3    H256252   2.735   5.422   0.492 -0.5871  0.4871 -0.9771
11613TIP3   OH256253   4.195   2.988  11.351  0.1904  0.0580 -0.7160
11613TIP3    H156254   4.285   3.019  11.338  0.3151  0.1515  0.2944
11613TIP3    H256255   4.202   2.893  11.351  0.7346  0.0183  1.9234
11614TIP3   OH256256   1.977   1.235   2.651 -0.1701 -0.3438  0.2657
11614TIP3    H156257   1.947   1.311   2.601  1.1995  0.1202  0.1059
11614TIP3    H256258   1.927   1.161   2.616  0.9374 -0.0894 -2.0059
11615TIP3   OH256259   3.659   5.830   6.450  0.4330  0.2560  0.4606
11615TIP3    H156260   3.587   5.806   6.393  0.1650  1.3402  0.3182
11615TIP3    H256261   3.666   5.925   6.441 -0.2518  0.6160  2.9642
11616TIP3   OH256262   6.296   1.308   1.223 -0.0890 -0.3129  0.3916
11616TIP3    H156263   6.313   1.391   1.267  0.5482 -0.2285  0.0000
11616TIP3    H256264   6.204   1.289   1.241 -1.3574  2.2826 -2.4528
11617TIP3   OH256265   2.503   4.357  16.921  0.3507  0.1375 -0.1890
11617TIP3    H156266   2.578   4.403  16.882  0.8917 -0.6823 -0.1345
11617TIP3    H256267   2.526   4.348  17.013 -0.4554  1.1283  0.1307
11618TIP3   OH256268   2.066   5.705   5.174 -0.0195 -0.3006 -0.1107
11618TIP3    H156269   2.128   5.772   5.145 -0.6346  0.4381  0.2490
11618TIP3    H256270   2.007   5.693   5.100 -0.3000  0.0290  0.0585
11619TIP3   OH256271   5.197   6.546  12.466 -0.1905 -0.3962  0.8382
11619TIP3    H156272   5.267   6.527  12.403  0.1901 -0.3817  1.2459
11619TIP3    H256273   5.124   6.491  12.438 -1.0019  1.5808 -1.2369
11620TIP3   OH256274   3.698   6.439  10.585  0.0020  0.2518  0.3740
11620TIP3    H156275   3.693   6.343  10.591 -0.8680  0.3318  1.0788
11620TIP3    H256276   3.731   6.466  10.671  0.9676  0.5508 -0.0745
11621TIP3   OH256277   4.490   2.600   4.809 -0.6946  0.4415  0.3715
11621TIP3    H156278   4.511   2.530   4.872  0.3954 -0.3361 -0.8140
11621TIP3    H256279   4.480   2.678   4.863  3.9210  0.6522  1.3499
11622TIP3   OH256280   4.280   1.321  15.401 -0.1647  0.1106  0.1208
11622TIP3    H156281   4.187   1.340  15.391 -0.0000  0.8233 -0.1261
11622TIP3    H256282   4.282   1.239  15.450 -0.9198  0.6136  1.0370
11623TIP3   OH256283   4.877   5.752   0.968  0.4146  0.6030  0.3093
11623TIP3    H156284   4.972   5.741   0.969  0.3862  0.4331  1.1480
11623TIP3    H256285   4.858   5.774   0.877  0.9032 -2.2893 -0.5862
11624TIP3   OH256286   2.263   1.021  13.706 -0.4591 -0.2266  0.5972
11624TIP3    H156287   2.182   1.058  13.672 -0.1320  0.2505  0.3278
11624TIP3    H256288   2.297   0.967  13.635 -1.2147 -1.5275  1.1771
11625TIP3   OH256289   4.365   2.848  12.871  0.2773 -0.2677 -0.1850
11625TIP3    H156290   4.294   2.912  12.861  0.7263  0.2030 -0.3649
11625TIP3    H256291   4.388   2.851  12.964  0.1843 -0.2914 -0.1615
11626TIP3   OH256292   6.701   5.602   3.267  0.1010 -0.1666  0.6693
11626TIP3    H156293   6.766   5.666   3.236 -0.9983  0.4065 -0.5482
11626TIP3    H256294   6.709   5.530   3.205 -0.0742 -0.3227  0.8301
11627TIP3   OH256295   3.739   1.689   0.443  0.0951 -0.0185 -0.7346
11627TIP3    H156296   3.728   1.728   0.356  0.2637  1.4776 -0.1139
11627TIP3    H256297   3.830   1.707   0.467 -0.5271  1.5635  0.6352
11628TIP3   OH256298   3.727   1.134  11.075 -0.7214 -0.6155 -1.1087
11628TIP3    H156299   3.717   1.138  11.170 -1.2926 -0.9967 -1.1489
11628TIP3    H256300   3.743   1.042  11.056 -0.8849 -0.5857 -1.4048
11629TIP3   OH256301   4.501   5.663  17.013 -0.0762  0.6523  0.1772
11629TIP3    H156302   4.439   5.723  16.972 -0.0973  0.6687  0.2331
11629TIP3    H256303   4.586   5.686  16.976 -0.2355 -0.0139 -0.6419
11630TIP3   OH256304   5.024   5.647  16.992 -0.0677 -0.0932  0.3284
11630TIP3    H156305   5.107   5.646  17.040 -0.0447 -1.4857  0.3021
11630TIP3    H256306   5.042   5.599  16.911 -0.8952 -0.4743  0.3549
11631TIP3   OH256307   1.470   1.359  16.786 -0.7177 -0.0047  0.4637
11631TIP3    H156308   1.446   1.268  16.773 -0.7345  0.0885 -0.1991
11631TIP3    H256309   1.544   1.356  16.847 -0.9269 -0.4325  0.7015
11632TIP3   OH256310   0.378   4.826  14.698  0.5631  0.1650 -0.2386
11632TIP3    H156311   0.377   4.746  14.646 -0.5273 -0.0085  0.0264
11632TIP3    H256312   0.362   4.797  14.788 -1.9526  0.8272 -0.4061
11633TIP3   OH256313   2.104   5.315   6.414 -0.3766  0.3210  0.0040
11633TIP3    H156314   2.142   5.401   6.433 -0.4497 -0.0307  2.0358
11633TIP3    H256315   2.175   5.253   6.427 -1.1152 -0.1839  2.0334
11634TIP3   OH256316   2.395   6.555  17.303 -0.3209  0.3989 -0.5304
11634TIP3    H156317   2.344   6.621  17.350 -1.0955  0.5264 -1.5263
11634TIP3    H256318   2.383   6.475  17.355 -0.2257  0.7925  0.1097
11635TIP3   OH256319   2.277   4.598  15.429 -0.1426 -0.0338 -0.3391
11635TIP3    H156320   2.194   4.611  15.384 -0.2969  0.9618  0.2051
11635TIP3    H256321   2.317   4.523  15.385 -1.5542 -0.8672 -0.2656
11636TIP3   OH256322   6.242   3.522   1.200  0.4089 -0.0288 -0.0804
11636TIP3    H156323   6.305   3.572   1.149  1.1197 -0.1992  0.6159
11636TIP3    H256324   6.235   3.569   1.283  0.1073 -0.3635  0.0866
11637TIP3   OH256325   0.207   6.520   1.960 -0.7122  0.0746 -0.2328
11637TIP3    H156326   0.239   6.608   1.980 -0.2849  0.1552 -1.1995
11637TIP3    H256327   0.282   6.463   1.973 -1.3014 -0.3486  1.5903
11638TIP3   OH256328   2.862   4.136  11.855  0.2715 -0.2395 -0.0213
11638TIP3    H156329   2.923   4.174  11.792 -0.3018  0.3556 -0.2255
11638TIP3    H256330   2.878   4.182  11.937  0.2039 -0.1890 -0.0362
11639TIP3   OH256331   2.783   0.867  10.746 -0.2345  0.7582 -0.1297
11639TIP3    H156332   2.729   0.800  10.705 -0.6742  0.4126  0.9705
11639TIP3    H256333   2.856   0.819  10.785 -0.3993  0.9330  0.4164
11640TIP3   OH256334   5.989   4.357  12.110 -0.1415 -0.5930 -0.3078
11640TIP3    H156335   6.079   4.365  12.142 -0.7178 -1.0273  1.5647
11640TIP3    H256336   5.983   4.422  12.040  1.7096 -0.7835 -0.7017
11641TIP3   OH256337   5.397   3.183   5.451  0.3099 -0.2781  0.2844
11641TIP3    H156338   5.464   3.181   5.519 -0.3565 -2.6983  0.9476
11641TIP3    H256339   5.323   3.135   5.488 -0.3492 -1.0263 -1.8619
11642TIP3   OH256340   4.698   2.595  12.699 -0.8832 -0.2369  0.2253
11642TIP3    H156341   4.604   2.609  12.714 -0.6992  0.3434  0.8966
11642TIP3    H256342   4.705   2.502  12.678 -1.7290 -0.0843 -0.8163
11643TIP3   OH256343   0.150   4.640  16.525 -0.0205  0.4791  0.6420
11643TIP3    H156344   0.100   4.616  16.603  0.2921 -0.1382  0.6530
11643TIP3    H256345   0.085   4.684  16.469 -0.5083 -0.0494  0.7806
11644TIP3   OH256346   4.430   5.686  11.493 -0.6118 -0.2047 -0.4422
11644TIP3    H156347   4.358   5.714  11.549 -0.3986  3.7435 -1.8723
11644TIP3    H256348   4.390   5.672  11.407 -0.2683 -2.1526 -0.3268
11645TIP3   OH256349   5.912   0.122   0.885  0.5893  0.2064  0.8314
11645TIP3    H156350   5.888   0.037   0.921  0.0319  0.2074  0.4850
11645TIP3    H256351   5.880   0.119   0.794  0.1810  0.9374  0.9469
11646TIP3   OH256352   0.914   4.200   0.902  0.2953 -0.3549 -0.0265
11646TIP3    H156353   0.909   4.269   0.968 -0.3123  0.4137 -0.8498
11646TIP3    H256354   0.895   4.119   0.951  1.2997  0.0020  0.9998
11647TIP3   OH256355   1.681   5.706  16.123  0.4610 -0.1320 -0.1129
11647TIP3    H156356   1.632   5.679  16.200  0.6970 -0.0291  0.0761
11647TIP3    H256357   1.767   5.730  16.157  0.8372 -0.8956 -0.5224
11648TIP3   OH256358   5.332   1.661  12.842  0.3291 -0.2119  0.2425
11648TIP3    H156359   5.350   1.724  12.772 -1.6325  0.1019 -0.0458
11648TIP3    H256360   5.356   1.576  12.804 -0.7980 -0.0578 -0.8971
11649TIP3   OH256361   3.975   6.237   3.187  0.0012 -0.4726  0.0563
11649TIP3    H156362   4.048   6.212   3.131  0.4800 -0.3438  0.6127
11649TIP3    H256363   4.005   6.220   3.276  0.0996  1.3986  0.4232
11650TIP3   OH256364   5.633   0.067   2.833 -0.0679  0.0533 -0.2681
11650TIP3    H156365   5.613   0.041   2.744 -0.7967  2.0012 -0.7267
11650TIP3    H256366   5.565   0.025   2.886 -0.3945 -0.0736 -0.7820
11651TIP3   OH256367   0.662   6.228  12.226  0.5549 -0.6495 -0.7418
11651TIP3    H156368   0.594   6.162  12.238  0.3334 -0.5355 -1.3509
11651TIP3    H256369   0.652   6.287  12.301 -0.3902 -0.3148 -1.1172
11652TIP3   OH256370   6.617   4.405  16.417  0.2973  0.0871 -0.5205
11652TIP3    H156371   6.704   4.365  16.423 -0.1058 -1.0688 -1.8384
11652TIP3    H256372   6.571   4.376  16.496  0.2340 -1.5628 -1.1356
11653TIP3   OH256373   5.917   2.986  15.922  0.0775 -0.2887  0.1980
11653TIP3    H156374   5.999   2.978  15.970 -0.9197  1.5780  2.3688
11653TIP3    H256375   5.904   3.080  15.912 -0.6604 -0.5774 -2.2852
11654TIP3   OH256376   0.770   3.414   1.976  0.8093 -0.4271 -0.3190
11654TIP3    H156377   0.812   3.496   2.004 -0.9725  1.1909 -2.0424
11654TIP3    H256378   0.839   3.348   1.985  2.3289  1.2266  1.1496
11655TIP3   OH256379   4.155   5.140  17.294  0.6051  0.0320  0.2515
11655TIP3    H156380   4.156   5.225  17.338  0.2082 -0.7835  1.9138
11655TIP3    H256381   4.121   5.158  17.206  0.0815  1.5065  0.7345
11656TIP3   OH256382   1.920   1.748  12.268  0.1091 -0.1310  0.3302
11656TIP3    H156383   1.884   1.823  12.315  1.2954  1.1273 -0.6899
11656TIP3    H256384   1.937   1.781  12.180  0.5240 -1.6439 -0.1820
11657TIP3   OH256385   3.083   5.495   2.504 -0.2193 -0.3005  0.0887
11657TIP3    H156386   3.121   5.529   2.424  1.5818  0.6309  1.2698
11657TIP3    H256387   3.062   5.573   2.556  0.8684 -0.8883  1.4690
11658TIP3   OH256388   1.322   2.145   5.295  0.3508 -0.7376 -0.0252
11658TIP3    H156389   1.305   2.081   5.364  0.2436 -0.3751  0.2879
11658TIP3    H256390   1.236   2.183   5.276  0.6552  0.5245  0.9924
11659TIP3   OH256391   3.622   6.649   4.428  0.1341 -0.2903 -0.1364
11659TIP3    H156392   3.689   6.675   4.491 -0.1396 -0.1339  0.0895
11659TIP3    H256393   3.567   6.726   4.418 -0.8643 -0.8644  0.7805
11660TIP3   OH256394   5.038   0.958  15.762 -0.6626  0.0060  0.2703
11660TIP3    H156395   5.059   0.873  15.799 -2.7839 -1.2751 -1.2765
11660TIP3    H256396   5.113   0.979  15.706 -0.4400 -1.1927  0.1071
11661TIP3   OH256397   2.513   4.988   2.853  0.3172  0.4078 -1.3079
11661TIP3    H156398   2.596   4.942   2.864  0.0574  0.1069 -0.5477
11661TIP3    H256399   2.446   4.921   2.868 -0.0590  0.9141 -0.6761
11662TIP3   OH256400   0.485   3.433  12.777  0.2983  0.3701  0.5206
11662TIP3    H156401   0.483   3.436  12.872 -0.4959 -0.7429  0.5693
11662TIP3    H256402   0.392   3.438  12.751  0.4823  0.3528 -0.1727
11663TIP3   OH256403   5.122   6.243   0.797 -0.2049  0.4120 -0.3015
11663TIP3    H156404   5.126   6.205   0.709  1.4745  0.5681 -0.3315
11663TIP3    H256405   5.184   6.316   0.794 -0.4097  0.6598  0.9018
11664TIP3   OH256406   2.508   5.552   4.839 -0.2802  0.5244 -0.1430
11664TIP3    H156407   2.424   5.591   4.861 -0.7178 -1.0226  1.1184
11664TIP3    H256408   2.487   5.483   4.777  0.0293  0.0759  0.2398
11665TIP3   OH256409   2.370   6.111  16.555 -0.3564 -0.1105  0.1185
11665TIP3    H156410   2.292   6.068  16.589 -0.5304  1.4669  1.8146
11665TIP3    H256411   2.381   6.074  16.467 -1.4735 -2.2887  0.8237
11666TIP3   OH256412   3.415   4.073   5.028 -0.2871 -0.2269  0.1762
11666TIP3    H156413   3.458   4.124   5.097  1.1192  0.0001 -0.8313
11666TIP3    H256414   3.486   4.042   4.973 -1.4236  0.6458 -1.9114
11667TIP3   OH256415   4.890   1.236   5.642 -0.6294 -0.0264  0.1034
11667TIP3    H156416   4.865   1.154   5.685  1.3270  0.5863  2.6665
11667TIP3    H256417   4.985   1.230   5.631 -0.6265  1.3332 -0.9295
11668TIP3   OH256418   5.515   5.903   2.314 -0.7131  0.1012 -0.2049
11668TIP3    H156419   5.543   5.927   2.402 -1.2528  1.3183 -0.3408
11668TIP3    H256420   5.432   5.858   2.327  0.0401 -1.2630  0.0152
11669TIP3   OH256421   6.759   2.066  15.143  0.1846  0.1803  0.4432
11669TIP3    H156422   6.696   2.054  15.071 -0.2709  0.6292  0.7635
11669TIP3    H256423   6.828   2.001  15.125  0.5030  0.8305 -0.8649
11670TIP3   OH256424   3.787   4.515  12.832 -0.0224  0.5981 -0.2177
11670TIP3    H156425   3.726   4.535  12.761 -2.3245 -1.9499  0.8554
11670TIP3    H256426   3.784   4.419  12.840  0.6957  0.7327  2.8360
11671TIP3   OH256427   4.106   1.820   3.198 -0.1341 -0.0952  0.1998
11671TIP3    H156428   4.123   1.875   3.275 -0.5636 -1.0526  1.0030
11671TIP3    H256429   4.044   1.871   3.146  2.0997  1.7080 -0.8349
11672TIP3   OH256430   3.105   1.029  11.817 -0.1886 -0.0428  0.1855
11672TIP3    H156431   3.037   0.963  11.800 -0.5072  0.3626 -0.1523
11672TIP3    H256432   3.168   1.018  11.746 -0.9262  0.8806 -0.6649
11673TIP3   OH256433   0.580   1.648  10.946 -0.1880  0.1589 -0.0760
11673TIP3    H156434   0.595   1.577  10.885  0.5195 -1.0777  1.4692
11673TIP3    H256435   0.643   1.634  11.016  0.2452  2.5510  0.1009
11674TIP3   OH256436   4.698   4.976  10.919  0.6101  0.3408  0.3641
11674TIP3    H156437   4.719   5.056  10.967 -0.4195  0.3023  0.8980
11674TIP3    H256438   4.605   4.985  10.896  0.2664 -1.0349  1.1036
11675TIP3   OH256439   3.898   3.128  16.634  0.1640  0.1463 -0.3853
11675TIP3    H156440   3.876   3.038  16.610  0.4712 -0.2561  0.7702
11675TIP3    H256441   3.831   3.181  16.592  0.0888 -0.5959 -1.2478
11676TIP3   OH256442   3.054   4.947   5.056 -0.5321  0.3664 -0.2480
11676TIP3    H156443   3.068   4.854   5.043 -0.7120  0.2750  0.1864
11676TIP3    H256444   3.118   4.990   4.998  0.2699 -0.0284  0.3288
11677TIP3   OH256445   5.372   0.113   0.002 -0.8103  0.4893 -0.4391
11677TIP3    H156446   5.382   0.207   0.016 -1.1192  0.3561  0.7995
11677TIP3    H256447   5.316   0.106  -0.076  0.5460  1.2949 -1.5311
11678TIP3   OH256448   3.573   2.147  13.812  0.2288 -0.5663 -0.3692
11678TIP3    H156449   3.613   2.060  13.812 -0.7788 -1.0363 -0.9944
11678TIP3    H256450   3.527   2.153  13.896  1.4316 -0.0843  0.2837
11679TIP3   OH256451   1.898   0.327  14.517  0.4049 -0.2514  0.2798
11679TIP3    H156452   1.981   0.366  14.489  0.1257  1.3684  1.5103
11679TIP3    H256453   1.840   0.334  14.441  0.8130  0.4441  0.0272
11680TIP3   OH256454   2.521   5.084   1.805 -0.3225  0.2315 -0.5423
11680TIP3    H156455   2.492   5.043   1.723 -2.4538 -1.5549  0.9509
11680TIP3    H256456   2.439   5.110   1.848  0.6897  0.5073  1.3033
11681TIP3   OH256457   4.366   5.518  17.218  0.3718 -0.3574  0.1907
11681TIP3    H156458   4.409   5.533  17.302  1.7831  0.9353 -0.7180
11681TIP3    H256459   4.409   5.578  17.158 -1.9742  0.2037 -1.0538
11682TIP3   OH256460   6.626   0.644   2.328 -0.2658  0.1785  0.9144
11682TIP3    H156461   6.658   0.733   2.312 -0.1580 -0.0913 -0.4605
11682TIP3    H256462   6.531   0.653   2.338 -0.2648  0.4408  0.6855
11683TIP3   OH256463   3.406   3.502   3.166  0.0572  0.1905  0.4493
11683TIP3    H156464   3.322   3.527   3.204 -0.3816  0.0598 -0.4204
11683TIP3    H256465   3.439   3.433   3.223 -1.2028 -0.9162 -0.1121
11684TIP3   OH256466   4.786   2.329  16.333  0.0723  0.0824  0.4229
11684TIP3    H156467   4.696   2.311  16.361 -0.0700  0.2502  0.0884
11684TIP3    H256468   4.824   2.243  16.315  0.2352 -0.0394  1.3250
11685TIP3   OH256469   1.410   5.820  14.113 -0.1333  0.1141  0.5196
11685TIP3    H156470   1.376   5.796  14.027  1.1246  0.3618 -0.0614
11685TIP3    H256471   1.493   5.864  14.095 -1.5388  3.5521  1.6090
11686TIP3   OH256472   3.750   5.809  15.295 -0.2521 -0.0172  0.2669
11686TIP3    H156473   3.706   5.794  15.379  0.9893 -1.9656  0.6296
11686TIP3    H256474   3.838   5.774  15.307  1.1108  2.6689 -0.8114
11687TIP3   OH256475   0.251   3.715   2.641 -0.2863 -0.0929 -0.7230
11687TIP3    H156476   0.159   3.696   2.662  0.4035 -1.4645  1.4023
11687TIP3    H256477   0.284   3.760   2.719  0.7736  0.6919 -1.6085
11688TIP3   OH256478   2.876   4.973  14.936 -0.3305  0.5160  0.0660
11688TIP3    H156479   2.867   5.011  15.023 -1.5725  0.5516 -0.0670
11688TIP3    H256480   2.803   5.009  14.886  1.2001  1.6983 -1.4539
11689TIP3   OH256481   6.114   3.887   2.338  0.6051  0.4447  0.1492
11689TIP3    H156482   6.113   3.831   2.260  2.1181  0.5929 -0.0104
11689TIP3    H256483   6.056   3.960   2.315 -3.0566 -1.8838  1.1021
11690TIP3   OH256484   0.596   3.842  15.976  0.3602  0.0166 -0.5001
11690TIP3    H156485   0.639   3.904  16.034 -1.6210 -0.2629  1.3887
11690TIP3    H256486   0.588   3.761  16.027  0.8381 -1.1068 -2.0955
11691TIP3   OH256487   0.311   2.279  11.627  0.3322  0.2320 -0.0307
11691TIP3    H156488   0.241   2.328  11.669  0.2442  0.4257 -0.3932
11691TIP3    H256489   0.269   2.240  11.550  0.4287 -0.3157  0.1909
11692TIP3   OH256490   2.139   1.258  12.924 -0.0413  0.0488  0.4904
11692TIP3    H156491   2.045   1.263  12.910  0.0423  0.1735 -0.0549
11692TIP3    H256492   2.150   1.264  13.019 -0.7041 -1.9670  0.7305
11693TIP3   OH256493   6.510   5.780  15.301 -0.0530  0.4286  0.3401
11693TIP3    H156494   6.501   5.691  15.336 -1.0089  0.2018 -0.4464
11693TIP3    H256495   6.473   5.836  15.369  1.6773  0.3864  1.4068
11694TIP3   OH256496   4.951   0.910  15.212  0.0495 -0.0834 -0.3186
11694TIP3    H156497   4.915   0.996  15.191  1.3455  0.6244  0.2741
11694TIP3    H256498   4.905   0.850  15.154 -2.0797  0.7587  0.3777
11695TIP3   OH256499   0.180   1.585   1.090  0.0970  0.0641  0.4215
11695TIP3    H156500   0.185   1.499   1.050 -1.3220 -0.1675  0.6709
11695TIP3    H256501   0.128   1.637   1.029  0.1144  0.4507  0.7282
11696TIP3   OH256502   0.758   4.181   1.386  0.0696 -0.1922  0.6203
11696TIP3    H156503   0.740   4.106   1.443 -2.0892 -0.5391 -0.4207
11696TIP3    H256504   0.713   4.161   1.304  1.6019  1.1092 -0.5998
11697TIP3   OH256505   2.633   5.506   1.248 -0.7474 -0.1555  0.4190
11697TIP3    H156506   2.583   5.542   1.175  0.1509  1.7819  0.7249
11697TIP3    H256507   2.607   5.414   1.251 -1.3315 -0.1149 -1.8777
11698TIP3   OH256508   1.120   5.205  15.164  0.0536 -0.3545 -0.0408
11698TIP3    H156509   1.125   5.164  15.250  0.3211 -0.0742  0.0762
11698TIP3    H256510   1.082   5.137  15.108 -1.5831 -0.0459  0.6258
11699TIP3   OH256511   0.545   4.271   5.454  0.2478  0.0214 -0.1239
11699TIP3    H156512   0.469   4.254   5.399  0.5814  0.6479 -0.8071
11699TIP3    H256513   0.535   4.213   5.529 -2.0748  1.6289  0.9451
11700TIP3   OH256514   0.719   0.662   2.382 -0.0754  0.3926  0.3770
11700TIP3    H156515   0.715   0.608   2.460 -2.4048 -1.2827 -0.7814
11700TIP3    H256516   0.636   0.709   2.381  0.0910  0.6989 -0.8637
11701TIP3   OH256517   3.703   6.228  15.449  0.3496 -0.0889 -0.1645
11701TIP3    H156518   3.754   6.154  15.416  1.1457  1.2156 -2.0648
11701TIP3    H256519   3.667   6.269  15.370 -0.5683  1.1993  0.8780
11702TIP3   OH256520   3.847   5.392   6.071  0.0359  0.4910  0.1932
11702TIP3    H156521   3.866   5.328   6.140  0.0340  0.3053  0.0224
11702TIP3    H256522   3.914   5.376   6.005 -1.9905 -1.7123 -1.4973
11703TIP3   OH256523   3.496   5.770  16.092 -0.3399 -0.1733 -1.1346
11703TIP3    H156524   3.577   5.817  16.110 -0.4055  0.3997 -2.2416
11703TIP3    H256525   3.427   5.836  16.105 -0.6380 -0.6247 -0.3143
11704TIP3   OH256526   2.731   1.450   3.896 -0.3155 -0.8700 -0.0411
11704TIP3    H156527   2.807   1.462   3.839 -0.1664 -2.9613 -0.3429
11704TIP3    H256528   2.656   1.451   3.836 -0.3770 -0.6350  0.0379
11705TIP3   OH256529   1.035   4.853  12.896  0.3544  0.2472 -0.0666
11705TIP3    H156530   0.961   4.887  12.946 -0.7414  1.2302 -2.2641
11705TIP3    H256531   1.110   4.905  12.926 -0.2469  0.7501  0.5988
11706TIP3   OH256532   2.814   3.420   2.334 -0.3772 -0.0010 -0.5715
11706TIP3    H156533   2.739   3.479   2.345  0.1473  0.6392 -0.4027
11706TIP3    H256534   2.806   3.357   2.406 -1.7558 -1.0582 -1.5884
11707TIP3   OH256535   1.150   1.359  12.124  0.1771  0.4593 -0.3546
11707TIP3    H156536   1.064   1.389  12.095  0.6602  1.5554 -0.6931
11707TIP3    H256537   1.193   1.437  12.158  0.9338 -0.1349  0.0854
11708TIP3   OH256538   1.209   4.518   1.184  0.0176  0.0047  0.0092
11708TIP3    H156539   1.225   4.476   1.100  1.7111  1.0941 -0.2784
11708TIP3    H256540   1.221   4.611   1.167  4.4264  0.0939  2.0915
11709TIP3   OH256541   5.496   6.731   2.601  0.1001  0.2504 -0.1906
11709TIP3    H156542   5.522   6.752   2.511  0.3056  2.0505  0.2464
11709TIP3    H256543   5.488   6.636   2.602  1.3728  0.0841 -1.7712
11710TIP3   OH256544   2.495   1.793  12.168  0.6695  0.1373  0.3365
11710TIP3    H156545   2.453   1.872  12.133  1.0599 -0.7572 -2.3608
11710TIP3    H256546   2.425   1.745  12.212 -0.1090  0.8015 -0.1690
11711TIP3   OH256547   2.727   4.670   4.595  0.2946  0.1250 -0.2857
11711TIP3    H156548   2.671   4.614   4.649 -0.4663  1.5994  0.5143
11711TIP3    H256549   2.666   4.720   4.540  0.9413  0.3525 -0.8097
11712TIP3   OH256550   2.541   1.298   5.664  0.2115 -0.2499  0.1019
11712TIP3    H156551   2.572   1.249   5.588 -0.4036  0.6782 -0.7573
11712TIP3    H256552   2.475   1.241   5.703 -1.9233  0.6391 -2.0150
11713TIP3   OH256553   1.413   5.801  15.933  0.2747  0.2655  0.0353
11713TIP3    H156554   1.353   5.806  16.007 -3.9253 -0.9840 -2.9313
11713TIP3    H256555   1.360   5.768  15.861  4.5245 -0.5836 -3.1140
11714TIP3   OH256556   6.448   0.746  15.067 -0.0465  0.0746  0.0656
11714TIP3    H156557   6.445   0.782  14.979  0.9708 -0.8198 -0.3531
11714TIP3    H256558   6.525   0.787  15.108 -0.4067  0.3471  0.4880
11715TIP3   OH256559   4.301   1.860  14.860 -0.1860  0.1950 -0.0801
11715TIP3    H156560   4.382   1.885  14.815 -0.1589  1.0217  0.4060
11715TIP3    H256561   4.324   1.780  14.907  0.1397  0.0259 -0.5118
11716TIP3   OH256562   2.990   4.645  15.957  0.4266  0.0887 -0.2993
11716TIP3    H156563   3.034   4.561  15.945 -0.9541 -0.6772 -0.1760
11716TIP3    H256564   3.008   4.668  16.049  1.4860  0.3486 -0.5588
11717TIP3   OH256565   2.009   4.241   4.153  0.6496 -0.0681 -0.4407
11717TIP3    H156566   2.016   4.237   4.249  2.2923  1.7997 -0.4248
11717TIP3    H256567   2.006   4.334   4.132 -0.7426 -0.4482 -2.1906
11718TIP3   OH256568   2.299   4.182  13.668 -0.8207  0.9443  0.7604
11718TIP3    H156569   2.248   4.236  13.608 -0.5841  0.4897  0.1397
11718TIP3    H256570   2.243   4.170  13.744 -2.5917 -1.3650 -0.7793
11719TIP3   OH256571   2.304   6.100   5.988 -0.3199  0.1585  0.4620
11719TIP3    H156572   2.386   6.146   5.972 -0.9904  0.6226 -1.9873
11719TIP3    H256573   2.331   6.015   6.023  1.0200  1.3933  2.6726
11720TIP3   OH256574   0.321   1.154   1.836  0.0098 -0.1446  0.6047
11720TIP3    H156575   0.334   1.239   1.794  0.1114  0.8586  2.5631
11720TIP3    H256576   0.401   1.139   1.886  0.3804 -1.8648 -0.4071
11721TIP3   OH256577   4.381   1.456  11.536 -0.2251  0.1081  0.2510
11721TIP3    H156578   4.343   1.393  11.476 -0.2360 -0.0217  0.3952
11721TIP3    H256579   4.431   1.516  11.480 -2.3594  1.5817 -0.2331
11722TIP3   OH256580   0.988   0.501   6.080  0.4548 -0.0447 -0.2773
11722TIP3    H156581   0.951   0.413   6.074  1.2819 -0.3186 -1.7640
11722TIP3    H256582   0.944   0.550   6.011  0.0597  0.6967  0.4896
11723TIP3   OH256583   1.644   2.636   5.585  0.7329  0.3109 -0.2123
11723TIP3    H156584   1.572   2.607   5.529 -0.7092  0.7872  1.3313
11723TIP3    H256585   1.721   2.633   5.528 -0.0252 -2.5447 -1.2655
11724TIP3   OH256586   5.316   5.887  16.075  0.0653  0.5369  0.2344
11724TIP3    H156587   5.351   5.957  16.130 -0.0090  1.0952 -0.4147
11724TIP3    H256588   5.343   5.806  16.119  0.9436  0.9631  0.4928
11725TIP3   OH256589   0.509   4.073  11.781 -0.4270 -0.1500 -0.4587
11725TIP3    H156590   0.538   4.161  11.757  0.2057  0.0802  1.0190
11725TIP3    H256591   0.500   4.027  11.698  0.6900  0.8632 -1.1743
11726TIP3   OH256592   3.029   4.454   0.682 -0.1898  0.0121 -0.0205
11726TIP3    H156593   3.097   4.513   0.716 -0.2085  2.3649 -3.6082
11726TIP3    H256594   3.060   4.366   0.707  1.9412  1.2257  2.0615
11727TIP3   OH256595   3.736   0.779   6.449  0.3749 -0.0856  0.3295
11727TIP3    H156596   3.804   0.712   6.448 -0.5983 -1.0896 -0.7388
11727TIP3    H256597   3.654   0.731   6.464 -0.5128  0.6357 -1.7734
11728TIP3   OH256598   4.331   5.291  16.933 -0.5260 -0.2189 -0.8149
11728TIP3    H156599   4.254   5.251  16.893  0.0557 -0.6192 -1.5631
11728TIP3    H256600   4.354   5.232  17.004 -0.2130 -0.7364 -1.3386
11729TIP3   OH256601   4.656   6.223   6.470 -0.1874 -0.4255 -0.0041
11729TIP3    H156602   4.700   6.294   6.424  1.8105 -0.4569  1.6799
11729TIP3    H256603   4.684   6.144   6.424  0.2891 -0.3206  0.0909
11730TIP3   OH256604   1.117   4.332  14.995 -0.5613 -0.1328 -0.2546
11730TIP3    H156605   1.112   4.379  14.912  1.2930  0.5492 -0.0201
11730TIP3    H256606   1.209   4.311  15.005 -0.3497  1.6931  2.6561
11731TIP3   OH256607   1.239   6.387   1.606 -0.2223  0.1376  0.5515
11731TIP3    H156608   1.271   6.477   1.602 -0.3598  0.1832  0.4911
11731TIP3    H256609   1.315   6.337   1.635  0.0644  0.1680 -0.1083
11732TIP3   OH256610   3.753   4.711   5.780  0.6969 -0.3079  0.1640
11732TIP3    H156611   3.708   4.631   5.753 -1.9677  1.1171  0.0259
11732TIP3    H256612   3.761   4.702   5.875  0.3373 -0.7201  0.1613
11733TIP3   OH256613   3.365   3.258   4.879 -0.2854  0.2259  0.0447
11733TIP3    H156614   3.345   3.202   4.804  0.6059  1.1504 -0.9126
11733TIP3    H256615   3.459   3.277   4.870 -0.9741  3.7981 -1.0348
11734TIP3   OH256616   4.844   2.287   3.359  0.2660 -0.5881  0.0568
11734TIP3    H156617   4.821   2.275   3.266  1.2463  1.8009 -0.5726
11734TIP3    H256618   4.769   2.334   3.396  0.7972  0.4184 -0.1077
11735TIP3   OH256619   2.643   1.107  13.516  0.1879  0.3670  0.2259
11735TIP3    H156620   2.683   1.192  13.533  0.0493  0.5856 -0.4814
11735TIP3    H256621   2.714   1.054  13.482  0.2764  0.1977  0.6778
11736TIP3   OH256622   5.629   6.405   1.529 -0.1974  0.0176  0.4354
11736TIP3    H156623   5.548   6.364   1.499  0.3039 -0.9975  0.4394
11736TIP3    H256624   5.698   6.362   1.479  0.2836  1.5497 -0.2703
11737TIP3   OH256625   0.903   3.330  12.396  0.2531 -0.1370 -0.2764
11737TIP3    H156626   0.985   3.375  12.418 -0.3987  2.0334 -1.8922
11737TIP3    H256627   0.835   3.380  12.441 -0.2556 -1.7855  0.8688
11738TIP3   OH256628   0.719   6.336  12.492 -0.3560  0.2086  0.3194
11738TIP3    H156629   0.793   6.321  12.551 -0.6522  0.6488  0.8071
11738TIP3    H256630   0.643   6.346  12.550 -0.9984 -1.2510 -0.1986
11739TIP3   OH256631   0.677   1.970   3.836  0.1710 -0.0750 -0.2286
11739TIP3    H156632   0.691   2.049   3.785  0.7010  0.5085  0.7861
11739TIP3    H256633   0.766   1.942   3.862 -0.0016 -1.0353 -0.6244
11740TIP3   OH256634   0.780   2.827   4.165 -0.5817  0.0088  0.0687
11740TIP3    H156635   0.709   2.841   4.228 -2.0072 -0.8603 -1.2641
11740TIP3    H256636   0.737   2.837   4.079  1.1181  0.3556 -0.7792
11741TIP3   OH256637   4.578   3.959  14.318 -0.3173  0.0465 -0.4446
11741TIP3    H156638   4.576   3.898  14.392 -2.1709  0.2272 -0.2870
11741TIP3    H256639   4.578   4.046  14.359 -0.8483  0.1441 -0.6459
11742TIP3   OH256640   1.074   2.614   3.979 -0.4411  0.0465 -0.4077
11742TIP3    H156641   1.016   2.548   4.017 -0.2163 -0.3255 -0.7040
11742TIP3    H256642   1.055   2.694   4.028  1.1510 -0.8121  1.8003
11743TIP3   OH256643   4.307   3.376   6.536 -0.0028  0.4319 -0.0457
11743TIP3    H156644   4.223   3.332   6.552 -0.7800  0.9088 -2.4736
11743TIP3    H256645   4.293   3.466   6.565  0.4985 -0.0117  1.7423
11744TIP3   OH256646   2.309   3.523   6.310  0.6676 -0.5569 -1.0557
11744TIP3    H156647   2.286   3.558   6.396 -0.3476 -3.8515  0.1684
11744TIP3    H256648   2.227   3.488   6.275  1.2184 -0.0090 -3.0546
11745TIP3   OH256649   1.419   2.562   1.672  0.5016  0.1676 -0.9731
11745TIP3    H156650   1.426   2.589   1.581  1.3630  3.3097 -0.1093
11745TIP3    H256651   1.506   2.527   1.694 -0.3298 -2.6876 -1.8308
11746TIP3   OH256652   4.378   4.184   3.463  0.5744  0.4876 -0.0633
11746TIP3    H156653   4.421   4.267   3.442 -0.7741  1.0295 -0.8166
11746TIP3    H256654   4.310   4.208   3.526  0.3690 -0.0854 -0.0595
11747TIP3   OH256655   1.396   3.846   2.456  0.0365 -0.2866  0.1320
11747TIP3    H156656   1.395   3.851   2.361 -0.1882 -1.6867  0.0355
11747TIP3    H256657   1.453   3.772   2.475  2.1026  1.4626  1.1984
11748TIP3   OH256658   0.691   5.560  11.083  0.1072  0.0734  0.6146
11748TIP3    H156659   0.623   5.516  11.032  1.1569 -1.4639  0.4577
11748TIP3    H256660   0.705   5.644  11.040 -1.2226  0.1299  0.2716
11749TIP3   OH256661   2.647   2.473   5.607  0.0785  0.3760  0.3929
11749TIP3    H156662   2.617   2.392   5.649  0.6011  0.3575  0.7372
11749TIP3    H256663   2.688   2.443   5.526  1.8280  0.1169  1.3325
11750TIP3   OH256664   6.162   3.781  13.554 -0.9937 -0.2891  0.3042
11750TIP3    H156665   6.249   3.801  13.517 -1.2105  0.0111 -0.0550
11750TIP3    H256666   6.107   3.854  13.525 -0.9856  0.3901  1.9442
11751TIP3   OH256667   1.998   4.993   0.011 -0.2937 -0.2874  0.1195
11751TIP3    H156668   2.043   5.077   0.004 -0.4557 -0.1202  0.9432
11751TIP3    H256669   1.906   5.016   0.019 -0.3020 -0.5110  0.7709
11752TIP3   OH256670   0.595   1.053   3.799 -0.4745 -0.3246  0.2164
11752TIP3    H156671   0.664   1.119   3.812 -0.7725  0.2762 -1.0805
11752TIP3    H256672   0.640   0.969   3.811  0.3838  0.0706 -0.1192
11753TIP3   OH256673   0.134   2.327  13.130 -0.1765 -0.3488  0.9138
11753TIP3    H156674   0.066   2.390  13.106  0.2880  0.3356  1.3491
11753TIP3    H256675   0.199   2.379  13.177  0.1773 -1.1735  1.3571
11754TIP3   OH256676   0.854   5.986  14.708 -0.3394  0.0903 -0.1494
11754TIP3    H156677   0.783   6.007  14.769  0.4515  0.0434  0.8100
11754TIP3    H256678   0.828   6.030  14.627 -3.1349 -2.6443 -0.9443
11755TIP3   OH256679   6.013   5.571   1.103 -0.2903  0.9318  0.3370
11755TIP3    H156680   5.966   5.654   1.114 -0.6160  0.6297  1.3159
11755TIP3    H256681   5.948   5.513   1.063 -0.7386  0.5463  1.5893
11756TIP3   OH256682   0.719   3.027  14.458  0.0257 -0.0615 -0.0636
11756TIP3    H156683   0.804   3.014  14.415 -0.0127 -0.2034 -0.0986
11756TIP3    H256684   0.719   2.963  14.530 -0.0147 -0.0004 -0.0093
11757TIP3   OH256685   5.779   2.645   5.104  0.4175 -0.9618  0.0936
11757TIP3    H156686   5.833   2.569   5.082  1.2014 -0.1009 -1.1014
11757TIP3    H256687   5.838   2.704   5.151  0.2504 -0.4467 -0.3262
11758TIP3   OH256688   4.430   5.193   4.815  0.3522  0.8084 -0.5877
11758TIP3    H156689   4.336   5.179   4.804  0.3369 -0.1531  0.5464
11758TIP3    H256690   4.437   5.278   4.858  0.1070  1.5641 -1.9734
11759TIP3   OH256691   2.640   4.868  11.614 -0.2759 -0.5106 -0.4464
11759TIP3    H156692   2.721   4.919  11.618  0.0003 -0.8244 -1.6564
11759TIP3    H256693   2.570   4.933  11.619  0.0699 -0.0592 -1.2466
11760TIP3   OH256694   4.765   4.794   4.255 -0.0515 -1.1616 -0.0644
11760TIP3    H156695   4.847   4.843   4.252  1.1047 -2.9762  0.3062
11760TIP3    H256696   4.719   4.820   4.175  0.7498  0.1047 -0.1440
11761TIP3   OH256697   0.763   6.414  13.698  0.0756  0.5216  0.1704
11761TIP3    H156698   0.684   6.458  13.729 -0.2158 -1.2801  2.2379
11761TIP3    H256699   0.757   6.326  13.735  0.9017 -1.1535 -3.2592
11762TIP3   OH256700   3.685   2.162  17.076 -0.2939 -0.3027 -0.7750
11762TIP3    H156701   3.674   2.246  17.032 -1.6934 -0.4024 -0.6695
11762TIP3    H256702   3.772   2.166  17.115 -0.2594  1.0090 -0.9555
11763TIP3   OH256703   1.090   6.124  14.649 -0.1040 -0.2140 -0.3865
11763TIP3    H156704   1.053   6.208  14.676 -1.6779 -1.1588  0.5340
11763TIP3    H256705   1.032   6.058  14.687  0.0913 -1.7219 -2.4910
11764TIP3   OH256706   6.201   2.117  11.638 -0.3444  0.2228 -0.4396
11764TIP3    H156707   6.239   2.136  11.552  1.1677  1.8230  0.5125
11764TIP3    H256708   6.169   2.027  11.631  0.1843  0.1465 -2.5068
11765TIP3   OH256709   1.573   1.672   0.371 -0.0867 -0.4786  0.4865
11765TIP3    H156710   1.528   1.588   0.377 -0.8977 -0.2510 -1.5447
11765TIP3    H256711   1.647   1.655   0.313  0.0536  0.0889  0.4926
11766TIP3   OH256712   0.277   5.295   5.427 -0.1303 -0.5536 -0.0963
11766TIP3    H156713   0.325   5.377   5.441  1.6310 -1.0973 -2.2955
11766TIP3    H256714   0.303   5.239   5.500  1.3153 -0.2502 -0.3514
11767TIP3   OH256715   2.294   1.704  16.087 -0.4519  0.0863 -0.3334
11767TIP3    H156716   2.330   1.764  16.153  1.3659 -0.6995 -0.5501
11767TIP3    H256717   2.250   1.636  16.138 -1.3665  0.8803 -0.0415
11768TIP3   OH256718   0.942   0.030   5.884 -0.0998  0.6698 -0.1714
11768TIP3    H156719   0.985  -0.055   5.880  1.1648  1.2494  0.6534
11768TIP3    H256720   0.999   0.088   5.834 -0.1884  1.3347  0.4867
11769TIP3   OH256721   4.602   6.125  11.733  0.1060  0.0616  0.1234
11769TIP3    H156722   4.583   6.032  11.724  1.8107 -0.2678 -0.6691
11769TIP3    H256723   4.520   6.169  11.712 -0.0825 -1.2248 -2.2339
11770TIP3   OH256724   4.613   0.334  12.320 -0.3733 -0.9350 -0.2079
11770TIP3    H156725   4.562   0.343  12.401 -0.2225  0.1808 -0.2102
11770TIP3    H256726   4.699   0.306  12.349  0.3459  1.5332  0.3002
11771TIP3   OH256727   5.073   4.299  16.818  0.0584 -0.5583  0.7203
11771TIP3    H156728   5.032   4.329  16.899 -1.3871 -1.3312  0.3109
11771TIP3    H256729   5.011   4.326  16.749  0.5367 -1.2170  0.0189
11772TIP3   OH256730   0.631   0.509   2.903  0.2541  0.0837  0.4625
11772TIP3    H156731   0.577   0.489   2.979  0.1433  1.3976  0.7620
11772TIP3    H256732   0.668   0.595   2.922  0.8036  0.1137 -0.6511
11773TIP3   OH256733   2.035   5.450   0.297  0.1020  0.7741 -0.2395
11773TIP3    H156734   2.030   5.506   0.374 -1.2264  1.1264 -0.5593
11773TIP3    H256735   1.945   5.447   0.263  0.6329  0.5288 -1.7004
11774TIP3   OH256736   3.387   4.361   2.652 -0.4589 -0.1948 -0.0776
11774TIP3    H156737   3.319   4.428   2.649 -1.0781 -0.7073  1.6334
11774TIP3    H256738   3.419   4.363   2.742  0.6352 -1.1227 -0.4159
11775TIP3   OH256739   3.548   0.251  13.844 -0.2264  0.5041  0.1764
11775TIP3    H156740   3.575   0.241  13.935 -0.3173  2.4585  0.4477
11775TIP3    H256741   3.619   0.211  13.793  0.5140  0.6831  1.0537
11776TIP3   OH256742   1.278   3.081   3.619  0.1210 -0.1417 -0.2700
11776TIP3    H156743   1.366   3.043   3.612  0.6234  1.0429 -0.6931
11776TIP3    H256744   1.235   3.058   3.537  0.2109 -0.2981 -0.2734
11777TIP3   OH256745   4.792   5.606  16.411 -0.0607  0.3408  0.5173
11777TIP3    H156746   4.838   5.584  16.330  0.7593  0.4630  0.9358
11777TIP3    H256747   4.724   5.667  16.384 -1.2479 -1.3189 -0.4104
11778TIP3   OH256748   5.229   3.572  16.831 -0.0711 -0.2138  0.1733
11778TIP3    H156749   5.214   3.661  16.798  0.5746 -0.2238 -0.1716
11778TIP3    H256750   5.206   3.577  16.924  0.5351  0.4710  0.2974
11779TIP3   OH256751   3.200   4.556   2.694  0.8022 -0.7779  0.6113
11779TIP3    H156752   3.156   4.486   2.742  1.7528 -1.1086  1.0397
11779TIP3    H256753   3.174   4.636   2.740  0.0168 -0.8822  0.3584
11780TIP3   OH256754   5.430   3.220  11.239 -0.4985 -0.4585  0.2647
11780TIP3    H156755   5.424   3.302  11.288 -1.8489 -1.4990  1.9585
11780TIP3    H256756   5.364   3.228  11.171 -0.0433  0.1792 -0.1121
11781TIP3   OH256757   1.440   3.036   3.215  0.4118  0.0037  0.5904
11781TIP3    H156758   1.380   2.981   3.165 -1.4533  0.9143  1.7366
11781TIP3    H256759   1.482   3.092   3.150 -0.3420 -0.3030 -0.1750
11782TIP3   OH256760   2.628   6.757   2.008 -0.4174 -0.2135 -0.6355
11782TIP3    H156761   2.551   6.765   2.065 -1.1967 -1.8992 -1.3628
11782TIP3    H256762   2.592   6.746   1.920  0.6588 -0.8092 -1.0245
11783TIP3   OH256763   4.520   3.291   5.195  0.8579 -0.4333 -0.1503
11783TIP3    H156764   4.562   3.238   5.128  2.5099  0.6376 -0.0040
11783TIP3    H256765   4.589   3.309   5.259 -0.6444 -1.4182  1.8915
11784TIP3   OH256766   2.334   5.497  15.128 -0.8236  0.3686 -0.2198
11784TIP3    H156767   2.281   5.575  15.111 -0.0757  0.6983 -1.1372
11784TIP3    H256768   2.294   5.428  15.075 -2.0238 -0.1341  1.2697
11785TIP3   OH256769   5.132   6.191  14.093  0.1517 -0.2037 -0.6428
11785TIP3    H156770   5.102   6.104  14.066  1.8109 -1.1557  0.4486
11785TIP3    H256771   5.220   6.199  14.058  0.9421  0.0224  1.2377
11786TIP3   OH256772   3.117   4.963  14.194  0.2948 -0.0401  0.0046
11786TIP3    H156773   3.168   4.884  14.211 -0.1726 -0.1092  1.2089
11786TIP3    H256774   3.076   4.949  14.109  1.4597 -0.4141 -0.5077
11787TIP3   OH256775   5.214   2.120  12.702 -0.3882 -0.4056 -0.0367
11787TIP3    H156776   5.125   2.154  12.697 -0.0824  0.5378  0.8205
11787TIP3    H256777   5.226   2.094  12.793  1.3144  2.6385  0.7442
11788TIP3   OH256778   3.303   1.407  15.658  0.3780  0.8093  0.3769
11788TIP3    H156779   3.276   1.378  15.745 -0.2526 -0.8346 -0.3193
11788TIP3    H256780   3.224   1.445  15.620  0.2928  0.3387  0.0695
11789TIP3   OH256781   3.174   1.585   2.333 -0.0873 -0.0506 -0.0316
11789TIP3    H156782   3.201   1.673   2.361  3.0793 -0.4387 -1.3878
11789TIP3    H256783   3.140   1.598   2.244  1.5923 -0.2253 -0.7611
11790TIP3   OH256784   6.165   2.039  13.473  0.4533  0.0873 -0.8295
11790TIP3    H156785   6.154   2.134  13.484  2.1467  0.3375 -1.0527
11790TIP3    H256786   6.178   2.006  13.562 -0.1368  0.0493 -0.7513
11791TIP3   OH256787   5.568   6.571  11.841 -0.3000  0.0990 -0.1924
11791TIP3    H156788   5.515   6.537  11.913  1.6401 -2.5543  0.1513
11791TIP3    H256789   5.511   6.565  11.764 -1.5844  0.6414  0.6784
11792TIP3   OH256790   4.984   1.776  16.920 -0.0013  0.2894  0.0319
11792TIP3    H156791   5.044   1.838  16.877 -1.1627  1.0439 -0.5792
11792TIP3    H256792   5.038   1.730  16.984  0.8057  2.3602  0.9386
11793TIP3   OH256793   2.442   0.431   1.450  0.1797 -0.1240  0.2802
11793TIP3    H156794   2.430   0.366   1.520  0.6108 -1.5210 -0.8989
11793TIP3    H256795   2.533   0.422   1.424 -0.1772 -0.2115 -1.0028
11794TIP3   OH256796   6.136   1.067   6.315 -0.3862  0.3849  0.2865
11794TIP3    H156797   6.065   1.044   6.375  1.0829 -0.4994  1.7757
11794TIP3    H256798   6.163   1.155   6.343  0.2508  0.0018  0.9046
11795TIP3   OH256799   5.424   4.851   5.825  0.1739 -0.0974  0.2381
11795TIP3    H156800   5.363   4.779   5.845 -0.4611 -0.4009 -2.4265
11795TIP3    H256801   5.501   4.808   5.790  0.3177  0.4792 -0.1588
11796TIP3   OH256802   5.498   0.067   1.759  0.1450 -0.3150  0.7214
11796TIP3    H156803   5.582   0.059   1.805  0.8333 -2.1046 -0.7175
11796TIP3    H256804   5.475  -0.023   1.736 -0.9729  0.3698 -1.0076
11797TIP3   OH256805   1.691   5.419   6.345 -0.4529  0.6410 -0.3789
11797TIP3    H156806   1.680   5.508   6.311 -0.7745  0.5913 -0.4014
11797TIP3    H256807   1.609   5.399   6.389 -0.1698  0.5699  0.1272
11798TIP3   OH256808   1.322   6.236   1.108 -0.2820 -0.6080 -0.2199
11798TIP3    H156809   1.385   6.277   1.048 -0.6639 -0.5993 -0.6219
11798TIP3    H256810   1.288   6.308   1.160 -0.3734 -0.5257 -0.3907
11799TIP3   OH256811   0.599   6.601   0.838 -0.6383 -0.0842 -0.1608
11799TIP3    H156812   0.521   6.550   0.816 -0.5205 -0.8850  1.1597
11799TIP3    H256813   0.673   6.543   0.819 -0.3972  0.3168 -0.4876
11800TIP3   OH256814   6.555   5.223   2.427 -0.6829  0.0932  0.0306
11800TIP3    H156815   6.597   5.285   2.486 -0.9218  1.0239 -0.7631
11800TIP3    H256816   6.586   5.137   2.457 -1.0414  0.5068  1.6942
11801TIP3   OH256817   6.705   4.986   2.348 -0.3610  0.0733 -0.2062
11801TIP3    H156818   6.670   5.023   2.267 -1.5365  0.0855  0.2790
11801TIP3    H256819   6.792   4.954   2.325 -1.2411 -1.2961 -1.8748
11802TIP3   OH256820   2.602   0.948  16.748  0.2488  0.1795 -0.2115
11802TIP3    H156821   2.512   0.980  16.742 -0.1271 -0.4698  1.3903
11802TIP3    H256822   2.612   0.890  16.673 -1.5954 -1.8495  1.0154
11803TIP3   OH256823   1.007   0.450   5.510  0.0428  0.1984 -0.0128
11803TIP3    H156824   1.091   0.425   5.471  0.7115 -0.3525  1.7055
11803TIP3    H256825   0.946   0.382   5.480  0.6499 -0.4982  0.3111
11804TIP3   OH256826   1.907   1.508   3.779 -0.4795  0.1032 -0.1651
11804TIP3    H156827   1.856   1.577   3.822 -0.4883  1.0412 -1.6033
11804TIP3    H256828   1.903   1.529   3.685 -1.2199 -2.3734 -0.7625
11805TIP3   OH256829   5.445   0.470   1.780  0.1361  0.3730 -0.4251
11805TIP3    H156830   5.386   0.541   1.758 -0.7548 -0.0840  0.4618
11805TIP3    H256831   5.394   0.390   1.766  0.5943 -0.0388  0.1873
11806TIP3   OH256832   2.706   0.644  17.005  0.2599 -0.7569 -0.1604
11806TIP3    H156833   2.763   0.684  16.939 -0.2282  0.9995  0.4223
11806TIP3    H256834   2.675   0.563  16.965 -0.5710  0.5846 -2.3886
11807TIP3   OH256835   5.887   1.270   3.966 -0.5177 -0.1471  0.2183
11807TIP3    H156836   5.871   1.193   4.020  0.1406 -0.5159 -0.0977
11807TIP3    H256837   5.940   1.237   3.893  1.8203  0.9896  1.2938
11808TIP3   OH256838   3.642   1.429   1.068 -0.6812 -0.4113  0.2868
11808TIP3    H156839   3.548   1.421   1.051 -0.4026  0.4959 -2.1296
11808TIP3    H256840   3.679   1.347   1.036 -0.4543  0.0827 -0.7471
11809TIP3   OH256841   2.741   1.252  13.045 -0.0512 -0.2678 -0.5980
11809TIP3    H156842   2.814   1.198  13.077 -0.0152  0.4605  0.6325
11809TIP3    H256843   2.784   1.325  13.001  0.0157  0.4905  0.6707
11810TIP3   OH256844   6.595   1.933  13.717 -0.6175  0.4810  0.6566
11810TIP3    H156845   6.551   2.017  13.706  0.1688  0.7897 -0.2838
11810TIP3    H256846   6.680   1.944  13.674  0.7587  0.1668  3.0900
11811TIP3   OH256847   1.050   0.846   6.491 -0.1339 -0.5725 -0.3605
11811TIP3    H156848   0.965   0.803   6.498  0.5450 -1.9932 -0.4888
11811TIP3    H256849   1.114   0.775   6.501  1.0612  0.5953  0.6887
11812TIP3   OH256850   3.330   1.204   1.921  0.6539  0.2504 -0.4775
11812TIP3    H156851   3.402   1.203   1.984 -0.1013  0.8542  0.4285
11812TIP3    H256852   3.305   1.112   1.910  0.5289  0.1631  0.4395
11813TIP3   OH256853   0.563   0.246  14.454  0.4623 -0.3138  0.7363
11813TIP3    H156854   0.501   0.302  14.501  0.0725 -0.1606  0.0625
11813TIP3    H256855   0.543   0.158  14.484 -1.2955 -0.4827 -0.7309
11814TIP3   OH256856   1.281   5.176  14.795 -0.2817 -0.9433  0.2328
11814TIP3    H156857   1.195   5.136  14.809 -0.4318  0.3501  4.1732
11814TIP3    H256858   1.342   5.112  14.831 -0.0037 -0.1768  1.1605
11815TIP3   OH256859   2.644   2.066  15.830  0.0694 -0.2177 -0.1893
11815TIP3    H156860   2.717   2.078  15.769 -0.4984  1.4258 -0.5946
11815TIP3    H256861   2.685   2.034  15.910  1.0070 -0.9983 -0.9520
11816TIP3   OH256862   1.702   1.166   2.468  0.3948 -0.4194  0.0630
11816TIP3    H156863   1.627   1.107   2.462 -1.2002  1.5583 -0.7856
11816TIP3    H256864   1.705   1.209   2.383  0.4578  1.8440  1.1410
11817TIP3   OH256865   2.347   2.969  12.827  0.1951  0.0556  0.5406
11817TIP3    H156866   2.364   3.052  12.870  1.4691 -0.9292  2.0744
11817TIP3    H256867   2.268   2.936  12.870 -0.0326  0.2475  0.2722
11818TIP3   OH256868   5.031   4.512   5.808 -0.7467 -0.1387  0.6486
11818TIP3    H156869   5.061   4.528   5.718 -1.4545  2.0031  0.7361
11818TIP3    H256870   4.956   4.452   5.798 -0.3141 -0.5671 -0.1043
11819TIP3   OH256871   4.801   3.040   4.875  0.0173 -0.1540  0.3528
11819TIP3    H156872   4.769   2.956   4.840  0.1728 -0.4740  0.9495
11819TIP3    H256873   4.886   3.052   4.835  1.0558 -1.4677  1.9970
11820TIP3   OH256874   4.356   1.983  12.437  0.7677 -0.0349 -0.1462
11820TIP3    H156875   4.420   1.971  12.507  0.8908 -1.3241 -0.4603
11820TIP3    H256876   4.326   1.894  12.416  0.0423  0.4152 -1.0851
11821TIP3   OH256877   2.509   0.737  16.559  0.4553  0.2457  0.5985
11821TIP3    H156878   2.545   0.694  16.637  2.7994 -0.9678 -1.0642
11821TIP3    H256879   2.422   0.698  16.549  0.4614 -0.2288  2.0568
11822TIP3   OH256880   2.416   0.881   2.715  0.4696 -0.0043  0.4780
11822TIP3    H156881   2.418   0.819   2.642 -1.9365 -1.3526  1.4286
11822TIP3    H256882   2.406   0.826   2.793  1.4145  1.4607  1.6843
11823TIP3   OH256883   0.735   4.406  15.141  0.3130  0.4620  0.0313
11823TIP3    H156884   0.722   4.367  15.055 -1.9542  0.7972  0.1566
11823TIP3    H256885   0.788   4.484  15.124 -1.3364  1.3558 -1.3231
11824TIP3   OH256886   3.526   0.325   5.099 -0.2002 -0.1658  0.4881
11824TIP3    H156887   3.515   0.416   5.070  1.2581  0.2815  1.1992
11824TIP3    H256888   3.463   0.315   5.170 -0.2210  0.3683  0.5473
11825TIP3   OH256889   5.831   4.778  12.781  0.3939 -0.4422  0.0582
11825TIP3    H156890   5.773   4.774  12.857  1.7329 -0.7302  1.1097
11825TIP3    H256891   5.919   4.773  12.818  1.0651 -1.5065 -1.5814
11826TIP3   OH256892   5.397   5.036  12.259  0.1093  0.0044  0.4168
11826TIP3    H156893   5.485   5.056  12.226 -0.0553  0.7732  0.4072
11826TIP3    H256894   5.339   5.087  12.202 -0.4819 -1.7608 -0.6275
11827TIP3   OH256895   1.195   4.393  12.652  0.4168 -0.1697 -0.1625
11827TIP3    H156896   1.246   4.313  12.637  1.7610  0.8898 -1.5726
11827TIP3    H256897   1.161   4.417  12.566 -1.0228  0.1307  0.4580
11828TIP3   OH256898   3.684   4.529   3.509  0.0106  0.1729  0.2918
11828TIP3    H156899   3.757   4.591   3.507  1.5655 -1.5298  1.0816
11828TIP3    H256900   3.724   4.444   3.493 -1.8373 -0.8215  0.6302
11829TIP3   OH256901   2.197   0.726  14.105  0.1883 -0.7162 -0.4314
11829TIP3    H156902   2.271   0.669  14.084  0.4377 -0.0168 -1.5409
11829TIP3    H256903   2.185   0.779  14.026 -2.6523 -2.0368 -0.9990
11830TIP3   OH256904   4.750   3.612  12.788 -0.0811  0.6342 -0.3420
11830TIP3    H156905   4.711   3.648  12.708 -0.6045  1.3059  0.2049
11830TIP3    H256906   4.839   3.646  12.789  0.0931  0.2126 -0.8911
11831TIP3   OH256907   1.827   0.042  14.811  0.1053 -0.0493  0.1148
11831TIP3    H156908   1.769   0.107  14.851 -0.3233 -1.2804  1.6123
11831TIP3    H256909   1.768  -0.016  14.763  0.3080 -0.2349  0.0922
11832TIP3   OH256910   2.119   1.230   2.926  0.3670 -0.1740  0.0623
11832TIP3    H156911   2.093   1.321   2.932  0.9528  0.1129 -1.3508
11832TIP3    H256912   2.091   1.203   2.838  0.4773 -1.2589  0.3475
11833TIP3   OH256913   5.248   3.629   5.402 -0.0667 -0.1798 -0.2025
11833TIP3    H156914   5.154   3.627   5.424  0.4991  0.8912  2.7349
11833TIP3    H256915   5.258   3.706   5.347 -1.0910 -1.1330 -1.8035
11834TIP3   OH256916   2.292   2.714   3.540  0.0232 -0.0126 -0.1145
11834TIP3    H156917   2.297   2.622   3.514  1.2966  0.0939 -0.2830
11834TIP3    H256918   2.274   2.711   3.634  0.4364 -0.4323 -0.0489
11835TIP3   OH256919   4.912   6.176   0.552 -0.5067 -0.5900  0.0515
11835TIP3    H156920   5.001   6.144   0.564  0.2572  1.2265 -0.3445
11835TIP3    H256921   4.860   6.128   0.616  1.2617  0.2636  2.2946
11836TIP3   OH256922   3.140   3.342  10.775 -0.7226 -0.0063 -0.1176
11836TIP3    H156923   3.116   3.260  10.818 -2.1404  0.0558 -0.7451
11836TIP3    H256924   3.123   3.409  10.841 -0.3735 -0.1470  0.1133
11837TIP3   OH256925   5.616   3.726  16.380  1.0933  0.2085  0.4459
11837TIP3    H156926   5.623   3.801  16.322  2.6255 -0.9143 -0.9360
11837TIP3    H256927   5.707   3.699  16.395  0.7203  0.2539  3.1505
11838TIP3   OH256928   4.887   4.096  15.515 -0.2295  0.3312 -0.2530
11838TIP3    H156929   4.953   4.045  15.467  0.6387  0.3270  0.8894
11838TIP3    H256930   4.860   4.038  15.587 -1.4710  0.3535 -0.6735
11839TIP3   OH256931   4.167   0.619   0.105  0.3500 -0.0001 -0.0897
11839TIP3    H156932   4.097   0.684   0.103 -0.7662 -1.1776 -1.1801
11839TIP3    H256933   4.194   0.611   0.013 -0.8517 -2.3879 -0.3056
11840TIP3   OH256934   1.628   2.974   4.021 -0.4056 -0.3527 -0.4103
11840TIP3    H156935   1.609   2.971   4.115  1.6820 -0.1515  0.0675
11840TIP3    H256936   1.556   3.024   3.983  0.0841  1.9946  1.5152
11841TIP3   OH256937   0.481   4.279   1.095 -0.0530 -1.0076  0.2569
11841TIP3    H156938   0.480   4.210   1.028  0.3661 -0.8777  0.1146
11841TIP3    H256939   0.506   4.358   1.047 -0.4415 -0.7703  0.4386
11842TIP3   OH256940   6.311   0.516  13.569  0.1772 -0.5932  0.2555
11842TIP3    H156941   6.335   0.608  13.560 -1.1131 -0.3268 -0.8657
11842TIP3    H256942   6.231   0.507  13.517 -0.8878 -1.8903  1.9885
11843TIP3   OH256943   1.306   2.838   0.924  0.0808 -0.2610 -0.3712
11843TIP3    H156944   1.349   2.816   0.842  0.4569 -0.7169 -0.0537
11843TIP3    H256945   1.212   2.828   0.905  0.0193  1.6935 -1.3449
11844TIP3   OH256946   5.153   5.773   0.272  0.0167  0.2354  0.1016
11844TIP3    H156947   5.059   5.786   0.286 -0.5105 -0.5439 -2.2128
11844TIP3    H256948   5.176   5.838   0.206  0.9699  0.0021  0.1965
11845TIP3   OH256949   6.127   4.005  17.234 -0.2170  0.0945 -0.1756
11845TIP3    H156950   6.139   4.088  17.279 -0.4646  0.1516 -0.2117
11845TIP3    H256951   6.065   4.024  17.164 -1.1117 -0.3352  0.4617
11846TIP3   OH256952   1.945   2.878   1.023 -0.3937  0.4555 -0.1437
11846TIP3    H156953   2.040   2.870   1.034 -0.6179 -0.6270  1.4243
11846TIP3    H256954   1.915   2.917   1.105 -1.8120 -4.2258  1.8742
11847TIP3   OH256955   6.450   0.034   5.126  0.6416  0.2514 -0.3686
11847TIP3    H156956   6.517   0.023   5.059  0.3822 -1.2401 -0.4259
11847TIP3    H256957   6.498   0.070   5.201  2.0661 -2.7407  0.3384
11848TIP3   OH256958   6.340   2.218  13.841 -0.2490  0.4424 -0.3585
11848TIP3    H156959   6.300   2.285  13.785 -1.9142 -0.7598 -0.6887
11848TIP3    H256960   6.271   2.152  13.852  0.9443 -0.6422  0.9285
11849TIP3   OH256961   1.169   0.033   3.215  0.3376  0.7508 -0.1341
11849TIP3    H156962   1.134   0.120   3.197 -0.2324  0.3379 -1.1699
11849TIP3    H256963   1.184  -0.005   3.128  0.1071 -0.3539  0.2827
11850TIP3   OH256964   3.596   3.207   5.676  0.1553  0.1872 -0.1605
11850TIP3    H156965   3.589   3.151   5.754 -0.9376  0.6244  0.0691
11850TIP3    H256966   3.690   3.224   5.667  0.2075  1.1237  1.7701
11851TIP3   OH256967   3.448   0.756  13.154  1.1332  0.2032 -0.1704
11851TIP3    H156968   3.402   0.748  13.237  1.0370  1.6267 -0.0705
11851TIP3    H256969   3.395   0.817  13.102  1.7898  0.2123 -0.8539
11852TIP3   OH256970   4.146   6.366   0.229  0.2872 -0.1033 -0.2869
11852TIP3    H156971   4.083   6.398   0.294  0.3100 -0.8653  0.1183
11852TIP3    H256972   4.140   6.271   0.234  0.5870 -0.1766 -1.1176
11853TIP3   OH256973   0.074   2.664  11.744  0.2903 -0.6630  0.4774
11853TIP3    H156974  -0.020   2.679  11.748  0.3991  0.4021 -0.3200
11853TIP3    H256975   0.083   2.573  11.716 -0.5446 -0.2050 -1.4189
11854TIP3   OH256976   1.774   5.073  15.209  0.2000 -0.6675  0.6964
11854TIP3    H156977   1.774   5.099  15.117  0.8391  1.7546  1.2805
11854TIP3    H256978   1.688   5.098  15.241  0.4004 -0.3521  1.0022
11855TIP3   OH256979   3.246   0.945  14.138  0.1278  0.0277 -0.0827
11855TIP3    H156980   3.341   0.954  14.145  0.2719 -0.0708 -1.5519
11855TIP3    H256981   3.233   0.859  14.098 -0.6969 -0.8969  2.0241
11856TIP3   OH256982   6.261   3.402  12.652  0.6639  0.0890  0.5503
11856TIP3    H156983   6.228   3.368  12.735 -0.5186  3.3525  1.5471
11856TIP3    H256984   6.184   3.439  12.609  1.8356  1.4943 -0.4244
11857TIP3   OH256985   0.418   3.718   3.801 -0.1451 -0.2201 -0.5389
11857TIP3    H156986   0.448   3.629   3.822 -0.2697  0.2782  2.1223
11857TIP3    H256987   0.369   3.745   3.879 -2.1364  1.3491 -2.2232
11858TIP3   OH256988   2.875   0.582  12.113 -0.3345 -0.2286  0.0480
11858TIP3    H156989   2.874   0.675  12.092 -0.4509 -0.5253 -1.4117
11858TIP3    H256990   2.950   0.548  12.064 -0.5013 -0.9567  0.2882
11859TIP3   OH256991   2.754   4.194   1.980  0.1319  0.6876 -0.7219
11859TIP3    H156992   2.711   4.109   1.988 -2.0282  1.8218  0.5487
11859TIP3    H256993   2.848   4.174   1.988 -0.3187 -1.5312 -0.2354
11860TIP3   OH256994   3.549   0.905  14.168 -0.0169  0.0927 -0.2813
11860TIP3    H156995   3.591   0.878  14.087  2.0899  0.9762  0.4500
11860TIP3    H256996   3.521   0.824  14.209  1.8296 -0.6513 -0.3878
11861TIP3   OH256997   0.261   2.805  14.286 -0.4079  0.1534 -0.1358
11861TIP3    H156998   0.179   2.854  14.290 -1.2576 -1.2212  0.0806
11861TIP3    H256999   0.289   2.797  14.377 -0.3113  0.1763 -0.1636
11862TIP3   OH257000   6.486   1.659   5.769 -0.1452  0.2914  0.1259
11862TIP3    H157001   6.574   1.622   5.772  0.0382  0.5056 -1.6509
11862TIP3    H257002   6.451   1.645   5.857  1.3000 -0.6627  0.5784
11863TIP3   OH257003   2.641   2.220   4.500 -0.3140 -0.4086  0.4671
11863TIP3    H157004   2.598   2.135   4.489  1.4547 -1.2615 -0.1870
11863TIP3    H257005   2.720   2.215   4.446  1.7422  0.2746  3.1458
11864TIP3   OH257006   0.007   6.581  12.066 -0.1399 -0.0564  0.3510
11864TIP3    H157007  -0.043   6.661  12.079  0.9468  0.6396  0.3738
11864TIP3    H257008   0.012   6.571  11.971 -1.5572 -0.9568  0.3308
11865TIP3   OH257009   6.700   5.621  16.757 -0.0481 -0.1245  0.1056
11865TIP3    H157010   6.672   5.532  16.737 -1.4604  0.4437 -0.6950
11865TIP3    H257011   6.620   5.665  16.787  0.8077  0.6468  1.3633
11866TIP3   OH257012   1.525   1.613   2.147  0.2284 -0.4346 -0.0730
11866TIP3    H157013   1.458   1.570   2.200  0.3478 -1.3793 -0.6791
11866TIP3    H257014   1.475   1.660   2.079 -0.0245  1.9987  1.6642
11867TIP3   OH257015   4.927   6.118  16.827  0.3420  0.2510  0.1115
11867TIP3    H157016   4.903   6.198  16.780 -0.4421  0.3727  0.7017
11867TIP3    H257017   4.860   6.109  16.895  0.1936 -1.1049 -0.1745
11868TIP3   OH257018   5.113   4.929  12.938  0.3279  0.6998 -0.2607
11868TIP3    H157019   5.102   4.961  12.849  0.0236  2.4054  0.3456
11868TIP3    H257020   5.079   4.840  12.936 -0.5050  1.0227 -1.6505
11869TIP3   OH257021   6.547   1.705   0.245 -0.2584 -0.0173  0.1626
11869TIP3    H157022   6.558   1.759   0.324 -1.5566 -2.6641  2.3209
11869TIP3    H257023   6.452   1.700   0.233 -0.1245 -1.0219 -0.5474
11870TIP3   OH257024   3.773   4.298   2.919  0.1505  0.0465 -0.0726
11870TIP3    H157025   3.785   4.211   2.956 -1.2849 -0.3613 -0.5144
11870TIP3    H257026   3.786   4.287   2.825 -0.6263  0.1716 -0.2026
11871TIP3   OH257027   3.545   0.112  11.771 -0.2659  0.4761 -0.1758
11871TIP3    H157028   3.526   0.189  11.718 -0.1974  1.2753  0.9256
11871TIP3    H257029   3.518   0.137  11.860 -1.3523 -1.1738  0.0163
11872TIP3   OH257030   5.499   4.776   1.082  0.3396  0.0297 -0.6866
11872TIP3    H157031   5.555   4.850   1.058  0.3445  0.2316 -0.0579
11872TIP3    H257032   5.518   4.759   1.174 -0.7147  0.1876 -0.4199
11873TIP3   OH257033   4.958   3.783  17.041  0.3711 -0.0964 -0.4530
11873TIP3    H157034   5.009   3.862  17.057 -0.5159  0.1939  1.2161
11873TIP3    H257035   4.873   3.816  17.009 -0.8558 -0.1190  2.4525
11874TIP3   OH257036   1.520   4.599  11.443  0.0837 -0.5179  0.4707
11874TIP3    H157037   1.555   4.668  11.387 -0.7992 -0.1043  0.4226
11874TIP3    H257038   1.515   4.639  11.530 -1.9297  0.0231  0.1447
11875TIP3   OH257039   5.827   5.810   4.768 -0.3740  0.4141  0.2652
11875TIP3    H157040   5.913   5.797   4.808  0.1797 -0.7820 -1.2362
11875TIP3    H257041   5.846   5.833   4.677 -1.6353  1.4080  0.2222
11876TIP3   OH257042   2.719   1.457  14.349  0.6428 -0.0861 -0.5249
11876TIP3    H157043   2.806   1.496  14.348  0.0941  1.2023  0.0286
11876TIP3    H257044   2.695   1.448  14.257  0.9490  0.5137 -0.6655
11877TIP3   OH257045   6.413   1.871  15.782  0.5215  0.4329  0.0146
11877TIP3    H157046   6.381   1.783  15.766  0.6667  0.7195 -2.0541
11877TIP3    H257047   6.487   1.882  15.723  0.9802  1.6933  0.7699
11878TIP3   OH257048   4.518   3.112   4.945 -0.2805 -0.0801 -0.1098
11878TIP3    H157049   4.496   3.019   4.939 -0.8592  0.0141  0.5174
11878TIP3    H257050   4.609   3.116   4.916  0.0783 -0.9850  0.8090
11879TIP3   OH257051   4.183   6.725   5.200 -0.0609  0.3062 -0.3446
11879TIP3    H157052   4.099   6.768   5.189 -0.0576  0.6618  0.9711
11879TIP3    H257053   4.184   6.695   5.291  1.0310 -0.1215 -0.4774
11880TIP3   OH257054   0.975   4.577   1.336 -0.0137 -0.0659 -0.3387
11880TIP3    H157055   1.037   4.649   1.330  1.7337 -0.9987  3.4711
11880TIP3    H257056   1.000   4.518   1.265  0.1828  1.8294 -1.9181
11881TIP3   OH257057   6.138   0.385  12.787 -0.3924 -0.5406 -0.2200
11881TIP3    H157058   6.067   0.401  12.850  0.6295 -0.8506  1.0420
11881TIP3    H257059   6.188   0.466  12.787  0.0214 -0.7925 -0.0761
11882TIP3   OH257060   0.547   0.072  11.490  0.1988 -0.4553  0.5624
11882TIP3    H157061   0.566   0.109  11.404 -3.9809  1.8837  0.4044
11882TIP3    H257062   0.529  -0.021  11.473 -0.6013 -0.0178 -1.1081
11883TIP3   OH257063   4.249   3.398   4.194  0.4207 -0.2541  0.2134
11883TIP3    H157064   4.172   3.346   4.171  1.1602 -2.1692  1.7517
11883TIP3    H257065   4.215   3.469   4.248 -0.5683  0.7199 -1.5979
11884TIP3   OH257066   2.207   4.528   5.232 -0.3061  0.2467 -0.1450
11884TIP3    H157067   2.248   4.494   5.311 -1.9079  1.4595  1.2923
11884TIP3    H257068   2.183   4.618   5.255 -1.9038  0.2269 -1.5818
11885TIP3   OH257069   3.537   3.731   0.175 -0.0873  0.1190 -0.6404
11885TIP3    H157070   3.554   3.713   0.082 -1.2352 -2.8419 -0.4004
11885TIP3    H257071   3.450   3.771   0.176  0.1034  0.5448 -0.8501
11886TIP3   OH257072   2.741   5.246   4.109  0.1528  0.1325  0.2821
11886TIP3    H157073   2.692   5.202   4.179 -0.8289  1.8076  0.7030
11886TIP3    H257074   2.674   5.291   4.058  0.8003 -1.3660 -2.0318
11887TIP3   OH257075   6.537   0.222  16.562  0.6148 -0.8058 -0.4399
11887TIP3    H157076   6.514   0.155  16.497  0.4985 -1.7061  0.4979
11887TIP3    H257077   6.565   0.172  16.638 -0.3462  0.2011  0.6114
11888TIP3   OH257078   5.420   5.111  14.091 -0.0603 -0.5542 -0.1879
11888TIP3    H157079   5.366   5.038  14.062  0.6527 -0.2625 -2.4043
11888TIP3    H257080   5.374   5.189  14.060  0.5998 -0.2125 -0.3277
11889TIP3   OH257081   6.434   1.428  17.152  0.2259 -0.6187 -0.7795
11889TIP3    H157082   6.347   1.414  17.190  0.9981  0.7637  1.7780
11889TIP3    H257083   6.481   1.478  17.219  1.8908  1.7922 -3.5338
11890TIP3   OH257084   6.084   1.883  12.694 -0.1488  0.1127  0.7447
11890TIP3    H157085   6.011   1.839  12.738 -0.5657  0.5800  0.5191
11890TIP3    H257086   6.105   1.957  12.750 -1.0984  1.0860 -0.1419
11891TIP3   OH257087   0.850   1.734  11.439  0.2412 -0.1616  0.2169
11891TIP3    H157088   0.822   1.786  11.364 -1.3157  0.1719  0.9919
11891TIP3    H257089   0.863   1.797  11.510 -1.7510 -0.7503  1.1907
11892TIP3   OH257090   5.126   4.256   2.697 -0.0369  0.4271 -0.2921
11892TIP3    H157091   5.146   4.339   2.740 -1.2899  0.9631 -0.6899
11892TIP3    H257092   5.087   4.202   2.766  0.2780  0.3666 -0.1614
11893TIP3   OH257093   5.252   6.215   4.565  0.2820  0.3274 -0.5739
11893TIP3    H157094   5.310   6.140   4.551  0.3174  0.1532  0.4814
11893TIP3    H257095   5.164   6.177   4.568  0.2041  0.4592 -1.0444
11894TIP3   OH257096   6.370   3.751   6.472  0.2030 -0.9538 -0.3156
11894TIP3    H157097   6.337   3.811   6.405 -0.8348 -3.3727 -2.0910
11894TIP3    H257098   6.326   3.779   6.553 -1.7090 -0.4537 -1.4699
11895TIP3   OH257099   4.341   3.462  14.289 -0.0183 -0.3646  0.0458
11895TIP3    H157100   4.382   3.379  14.264 -1.9666 -0.5838 -3.0284
11895TIP3    H257101   4.331   3.456  14.384  1.6426 -2.7876  0.1690
11896TIP3   OH257102   1.111   0.088  12.537 -0.2968 -0.7768  0.2017
11896TIP3    H157103   1.072   0.174  12.552  0.6344 -0.5981  1.9860
11896TIP3    H257104   1.042   0.036  12.498 -1.4215  0.3196  0.6720
11897TIP3   OH257105   0.222   1.872   0.531  0.7892  0.1272 -0.6970
11897TIP3    H157106   0.136   1.912   0.518 -0.3953 -1.1991  2.2271
11897TIP3    H257107   0.280   1.945   0.554  0.3999  0.9793 -2.3010
11898TIP3   OH257108   4.896   3.356   0.211  0.6425 -0.4775 -0.1507
11898TIP3    H157109   4.874   3.355   0.118  0.0690  2.4740 -0.1417
11898TIP3    H257110   4.981   3.398   0.215 -0.0722  0.9402  0.7353
11899TIP3   OH257111   3.816   2.415  16.767  0.2936 -0.1443  0.2728
11899TIP3    H157112   3.899   2.412  16.815 -0.8073  0.3489  2.3430
11899TIP3    H257113   3.753   2.447  16.831 -1.4150 -0.0207 -1.3914
11900TIP3   OH257114   3.753   0.221   4.641  0.6982  0.0174 -0.2364
11900TIP3    H157115   3.780   0.257   4.725  0.1009 -0.6513  0.2526
11900TIP3    H257116   3.763   0.126   4.652 -1.5566 -0.2472 -0.1336
11901TIP3   OH257117   1.728   1.745  16.512  0.1509 -0.1626 -0.2870
11901TIP3    H157118   1.645   1.790  16.528 -0.7295 -1.2783 -1.5032
11901TIP3    H257119   1.708   1.653  16.528  1.1244 -0.4455 -0.6668
11902TIP3   OH257120   1.578   0.225   5.139 -0.2004 -0.3748 -0.3210
11902TIP3    H157121   1.549   0.176   5.216 -0.9490 -1.7511 -1.4236
11902TIP3    H257122   1.648   0.172   5.101  0.2211  0.3315 -0.5527
11903TIP3   OH257123   4.594   2.903  11.570 -0.1903 -0.3753 -0.3919
11903TIP3    H157124   4.583   2.817  11.609 -0.2664 -0.0977  0.2168
11903TIP3    H257125   4.616   2.960  11.643  0.0722  0.0832 -0.8183
11904TIP3   OH257126   6.022   2.931  11.181  0.4038  0.3318 -0.2769
11904TIP3    H157127   5.932   2.954  11.203  0.1965 -1.4429  0.9458
11904TIP3    H257128   6.070   3.014  11.189 -1.1140  1.3514 -1.1477
11905TIP3   OH257129   6.424   2.715  15.939 -0.4841  0.4629  0.0412
11905TIP3    H157130   6.380   2.651  15.996 -0.1338  0.1636 -0.0246
11905TIP3    H257131   6.514   2.718  15.971  0.3509 -1.3836 -1.8836
11906TIP3   OH257132   3.269   5.473  15.534 -0.2391 -0.2123 -0.0018
11906TIP3    H157133   3.294   5.382  15.520 -0.5479 -0.3762  0.4690
11906TIP3    H257134   3.180   5.467  15.572 -0.1430  0.2660  0.3054
11907TIP3   OH257135   3.987   2.411   1.887 -0.1785 -0.2203 -0.1071
11907TIP3    H157136   3.908   2.359   1.903 -0.1584 -0.0662  0.5084
11907TIP3    H257137   4.049   2.349   1.848 -0.6588 -0.3009 -0.7599
11908TIP3   OH257138   4.964   5.207  11.974  0.5222 -0.2474 -0.8110
11908TIP3    H157139   4.995   5.298  11.979 -0.0216 -0.0775 -0.2816
11908TIP3    H257140   5.041   5.156  11.950  1.0384  0.2512 -0.2558
11909TIP3   OH257141   5.997   4.913  16.766 -0.2614 -0.4946 -0.0858
11909TIP3    H157142   5.927   4.921  16.832 -0.0890  0.5824 -0.0118
11909TIP3    H257143   6.021   5.004  16.747  0.3549 -0.8319 -0.9321
11910TIP3   OH257144   6.528   1.599  15.966  0.1682  0.3040 -0.5967
11910TIP3    H157145   6.443   1.641  15.975 -0.2875 -0.5805 -0.6262
11910TIP3    H257146   6.548   1.603  15.873 -1.2769 -2.1246 -1.1001
11911TIP3   OH257147   3.493   0.748  11.462 -0.2534  0.3468  0.0056
11911TIP3    H157148   3.532   0.683  11.520  0.3960  1.4330  0.8261
11911TIP3    H257149   3.553   0.753  11.388  0.4588  1.0040  0.6069
11912TIP3   OH257150   5.120   6.033   1.874 -0.1137  0.5594  0.4825
11912TIP3    H157151   5.192   5.980   1.839 -0.9420  0.0083 -0.4600
11912TIP3    H257152   5.159   6.118   1.894  0.9874 -0.0313  0.8803
11913TIP3   OH257153   5.573   0.446   5.897 -0.3820 -0.3783  0.2959
11913TIP3    H157154   5.557   0.380   5.830 -0.3724 -0.6674  0.5741
11913TIP3    H257155   5.533   0.409   5.976 -0.4890  0.0075  0.4236
11914TIP3   OH257156   0.505   3.406   1.991 -0.6062  0.2816  0.8472
11914TIP3    H157157   0.495   3.436   2.081  1.6672 -2.1799  2.0844
11914TIP3    H257158   0.597   3.378   1.986 -1.1688 -1.4128 -1.6314
11915TIP3   OH257159   5.345   4.424  15.033  0.4976  0.2639 -0.0239
11915TIP3    H157160   5.401   4.493  14.999  1.3455  0.1712  1.1279
11915TIP3    H257161   5.395   4.343  15.020  0.5473  0.1540  0.8067
11916TIP3   OH257162   5.777   6.653  13.753  0.0925  0.0881 -0.3805
11916TIP3    H157163   5.727   6.685  13.677  0.4717 -0.5982 -0.9237
11916TIP3    H257164   5.732   6.572  13.778 -1.5085  1.4743  1.6380
11917TIP3   OH257165   2.954   5.465   5.473 -0.1751 -0.3924  0.1732
11917TIP3    H157166   2.923   5.556   5.466  1.2132  0.0524 -0.6109
11917TIP3    H257167   2.973   5.440   5.383  1.5323 -0.6982  0.5991
11918TIP3   OH257168   4.770   3.902   0.779  0.1467 -0.2969 -0.1912
11918TIP3    H157169   4.842   3.865   0.727 -0.8024 -0.9679 -1.0693
11918TIP3    H257170   4.761   3.842   0.853  0.7836  0.0547  0.1847
11919TIP3   OH257171   3.150   5.355  17.133 -0.8414  0.2457  0.2782
11919TIP3    H157172   3.195   5.390  17.056  0.2161 -2.3731 -0.3834
11919TIP3    H257173   3.199   5.276  17.156 -2.4762 -0.2685  2.3115
11920TIP3   OH257174   1.119   4.849   2.542 -0.1185 -0.1189  0.0553
11920TIP3    H157175   1.090   4.909   2.611 -2.1476 -0.2252 -0.6385
11920TIP3    H257176   1.173   4.785   2.588 -0.4128  0.5169  1.3390
11921TIP3   OH257177   1.082   0.065  15.937  0.2603  0.1856  0.0540
11921TIP3    H157178   0.995   0.073  15.975 -0.1212 -0.2963 -0.6870
11921TIP3    H257179   1.075  -0.008  15.876  1.3718 -0.3015  0.4804
11922TIP3   OH257180   5.131   4.354   1.298 -0.3558  0.0211 -0.9568
11922TIP3    H157181   5.042   4.319   1.298 -1.5598  2.7709 -0.4361
11922TIP3    H257182   5.123   4.438   1.252  1.5517  1.2518  0.8126
11923TIP3   OH257183   2.947   6.531   1.635 -0.5655 -0.2072  0.2231
11923TIP3    H157184   2.945   6.454   1.579 -0.0011 -1.8030  2.2715
11923TIP3    H257185   2.868   6.525   1.688 -0.6709  0.8028  0.2069
11924TIP3   OH257186   6.093   6.330   0.897  0.3647 -0.9633  0.6958
11924TIP3    H157187   6.139   6.257   0.857  0.2511 -0.6583 -0.0002
11924TIP3    H257188   6.060   6.382   0.824 -1.0002 -1.1145  1.1629
11925TIP3   OH257189   4.136   0.793  14.813 -0.2058 -0.5710  0.5414
11925TIP3    H157190   4.138   0.702  14.844 -1.9367 -1.5114 -1.8418
11925TIP3    H257191   4.054   0.829  14.847 -1.1730 -1.0133 -1.2096
11926TIP3   OH257192   4.385   0.914  14.804 -0.9262  0.1431 -0.6352
11926TIP3    H157193   4.303   0.866  14.807 -0.4027 -0.8882 -1.8792
11926TIP3    H257194   4.408   0.917  14.711  0.2019  0.8392 -0.3566
11927TIP3   OH257195   1.774   3.034  13.274  0.1759 -0.1461  0.6046
11927TIP3    H157196   1.726   2.954  13.250 -0.9227  0.8756 -0.7089
11927TIP3    H257197   1.850   3.034  13.217  0.8096 -0.8261  1.4191
11928TIP3   OH257198   6.118   0.326   5.027  0.2003  0.3212 -0.1360
11928TIP3    H157199   6.151   0.250   5.076  0.3932  0.1410 -0.5402
11928TIP3    H257200   6.023   0.314   5.026  0.3539 -1.4583 -2.6131
11929TIP3   OH257201   0.301   1.105   2.236 -0.2105 -0.4277  0.1454
11929TIP3    H157202   0.339   1.163   2.171 -0.0837 -0.0055  0.5923
11929TIP3    H257203   0.336   1.018   2.215 -0.2749 -0.3207 -0.4229
11930TIP3   OH257204   2.970   2.870  16.410  0.2838 -0.9852 -0.0480
11930TIP3    H157205   2.889   2.904  16.448 -0.0705 -1.2160 -0.5868
11930TIP3    H257206   2.953   2.866  16.316  0.5382 -2.0777 -0.0613
11931TIP3   OH257207   4.171   0.413   2.063 -0.1385 -0.0357  0.1991
11931TIP3    H157208   4.137   0.381   1.980  1.0435 -0.4886 -0.1235
11931TIP3    H257209   4.155   0.508   2.060 -0.9649 -0.1770 -0.1179
11932TIP3   OH257210   3.687   5.256   4.685  0.1895 -0.1583  0.6386
11932TIP3    H157211   3.602   5.237   4.647 -0.2162 -1.5010  2.1075
11932TIP3    H257212   3.747   5.195   4.643  0.6655  1.4326 -1.0991
11933TIP3   OH257213   1.176   2.034   5.049  0.0137  0.3515  0.5675
11933TIP3    H157214   1.138   2.082   5.123 -0.7232  0.4395  0.1381
11933TIP3    H257215   1.125   2.062   4.974 -0.3314 -0.9955  0.2799
11934TIP3   OH257216   4.413   3.587   4.423  0.2701 -0.0082  0.4149
11934TIP3    H157217   4.430   3.494   4.438 -0.0972 -0.6171 -2.4342
11934TIP3    H257218   4.492   3.631   4.454  1.2613 -1.4623  0.0910
11935TIP3   OH257219   0.190   1.893   3.259  0.2044  0.0830 -0.0720
11935TIP3    H157220   0.221   1.802   3.262 -0.5006 -0.1539  2.1686
11935TIP3    H257221   0.174   1.909   3.166  0.0236 -2.2161 -0.5183
11936TIP3   OH257222   1.766   4.696  17.275 -0.3597  0.0349  0.4129
11936TIP3    H157223   1.744   4.617  17.226  0.2250 -0.0806  0.3187
11936TIP3    H257224   1.723   4.767  17.228 -0.7824 -0.2151  0.4233
11937TIP3   OH257225   0.867   4.210  17.333 -0.1891 -1.0646  0.6286
11937TIP3    H157226   0.922   4.172  17.264 -1.9569 -0.0973 -1.4368
11937TIP3    H257227   0.916   4.286  17.364  0.4060 -1.2037  0.0437
11938TIP3   OH257228   3.121   0.457  12.633 -1.0179 -0.9488  0.2172
11938TIP3    H157229   3.073   0.528  12.589 -0.2996 -0.5379  0.0874
11938TIP3    H257230   3.094   0.378  12.587  3.2996 -0.1938 -4.4039
11939TIP3   OH257231   2.203   1.702   1.695  0.3199 -0.6642 -0.3085
11939TIP3    H157232   2.135   1.669   1.636  0.9655 -1.1372 -0.8022
11939TIP3    H257233   2.273   1.733   1.637  1.0180 -1.2519  0.1977
11940TIP3   OH257234   3.379   3.584   6.164 -0.2906  0.2696 -0.0559
11940TIP3    H157235   3.284   3.591   6.171 -1.1559 -4.1448 -3.1523
11940TIP3    H257236   3.400   3.500   6.204  1.8607 -0.0481 -1.6957
11941TIP3   OH257237   5.841   2.479   5.586 -0.1481 -0.0013  0.0576
11941TIP3    H157238   5.881   2.565   5.586  0.8638 -0.4635  0.2463
11941TIP3    H257239   5.758   2.491   5.539  0.8159  0.7030 -1.5641
11942TIP3   OH257240   5.110   3.750  11.329 -0.5507 -0.2545 -0.2290
11942TIP3    H157241   5.054   3.770  11.404  0.1084 -0.5335  0.3536
11942TIP3    H257242   5.189   3.803  11.344 -0.7721  0.3870 -1.2039
11943TIP3   OH257243   5.309   0.883   6.211 -0.7474  0.1525 -1.1608
11943TIP3    H157244   5.270   0.970   6.201 -2.0575 -0.1369  0.8296
11943TIP3    H257245   5.240   0.830   6.253  0.7856 -1.2198 -0.2443
11944TIP3   OH257246   4.590   2.990   2.981 -0.0769  0.4559 -0.5056
11944TIP3    H157247   4.567   3.011   3.071  0.5860 -0.7307 -0.0518
11944TIP3    H257248   4.648   3.061   2.954  0.6098  0.2385  0.3758
11945TIP3   OH257249   5.371   0.346   2.830 -1.0369 -0.1236  0.0335
11945TIP3    H157250   5.319   0.271   2.857 -1.2854  0.3244  0.8273
11945TIP3    H257251   5.411   0.379   2.911 -0.1182 -0.0057 -0.4495
11946TIP3   OH257252   0.205   3.938   1.705 -0.3798 -0.3965 -0.4564
11946TIP3    H157253   0.223   3.865   1.645  0.2263 -0.6518  0.0176
11946TIP3    H257254   0.204   3.897   1.792  0.6494  0.2549 -0.1195
11947TIP3   OH257255   1.596   4.497  14.672  0.1958  0.2871  0.1241
11947TIP3    H157256   1.660   4.497  14.601  0.2383 -1.5349  0.1188
11947TIP3    H257257   1.514   4.468  14.630  0.6865 -2.9519  1.0913
11948TIP3   OH257258   4.169   5.777  12.427  0.3004  0.1332 -0.1989
11948TIP3    H157259   4.164   5.777  12.522  0.5659  1.0715 -0.1708
11948TIP3    H257260   4.078   5.786  12.398  0.0550 -1.7036 -0.0812
11949TIP3   OH257261   6.150   2.414  13.778 -0.3666 -0.1496 -0.1773
11949TIP3    H157262   6.124   2.372  13.860  1.3259  1.6422  1.3900
11949TIP3    H257263   6.108   2.500  13.782 -1.3452 -0.4958 -1.8937
11950TIP3   OH257264   3.616   3.318   4.795 -0.0029 -0.6743  0.6236
11950TIP3    H157265   3.590   3.407   4.771 -0.6231 -0.7022  1.1868
11950TIP3    H257266   3.700   3.305   4.750 -1.0964 -0.7230 -1.5335
11951TIP3   OH257267   2.124   0.532  12.538 -0.2525 -0.3177  0.1798
11951TIP3    H157268   2.136   0.548  12.632  0.7034 -0.2651  0.0563
11951TIP3    H257269   2.211   0.545  12.500 -0.0508 -2.8270 -0.3791
11952TIP3   OH257270   3.081   0.248   5.129 -0.3112 -0.1537  0.2842
11952TIP3    H157271   3.146   0.308   5.092  0.3362 -1.2998 -0.4936
11952TIP3    H257272   3.025   0.304   5.183  0.0750  1.1960 -0.6593
11953TIP3   OH257273   3.639   1.902  12.726 -0.1086 -0.2232  0.2228
11953TIP3    H157274   3.674   1.987  12.703  1.5286 -1.0798 -0.6246
11953TIP3    H257275   3.582   1.878  12.653  0.3502 -0.3547 -0.0917
11954TIP3   OH257276   5.907   5.541   2.072  0.0822 -0.1764 -0.3346
11954TIP3    H157277   5.997   5.538   2.041  0.3645 -0.0751  0.4548
11954TIP3    H257278   5.897   5.462   2.124 -0.3205 -0.2435 -0.5141
11955TIP3   OH257279   2.407   1.399   4.302 -0.4762  0.5170 -0.2210
11955TIP3    H157280   2.317   1.433   4.305 -0.8171 -0.4291  0.4412
11955TIP3    H257281   2.412   1.355   4.217 -1.5121 -1.7343  0.8281
11956TIP3   OH257282   0.841   0.751  16.469 -0.0404  0.7808 -0.2519
11956TIP3    H157283   0.782   0.695  16.520  1.1336  0.6668  1.0382
11956TIP3    H257284   0.827   0.724  16.378 -0.8135 -0.3370  0.1784
11957TIP3   OH257285   5.286   4.145   3.973 -0.2180 -0.5280  0.4133
11957TIP3    H157286   5.291   4.212   3.904  1.7670  0.3546  1.3272
11957TIP3    H257287   5.223   4.180   4.036 -0.4631 -0.3414  0.0702
11958TIP3   OH257288   6.235   4.245  12.954 -0.0297 -0.0379  0.3515
11958TIP3    H157289   6.148   4.246  12.914  0.0560  0.1797  0.1706
11958TIP3    H257290   6.293   4.277  12.886  0.4562 -1.8080 -0.1201
11959TIP3   OH257291   1.100   5.136   3.478  0.0889  0.7928  0.6682
11959TIP3    H157292   1.060   5.198   3.538  1.2401  1.3775  0.8626
11959TIP3    H257293   1.161   5.188   3.426 -0.1487  0.1180 -0.3245
11960TIP3   OH257294   4.571   3.384  14.050 -0.1960  0.2461  0.0077
11960TIP3    H157295   4.632   3.357  13.981  0.5474 -0.0122  0.7584
11960TIP3    H257296   4.544   3.302  14.091 -0.6543  0.3979  0.0169
11961TIP3   OH257297   0.701   3.499  16.950  0.1515  0.0967  1.4230
11961TIP3    H157298   0.680   3.570  16.889  0.0452 -0.8008  0.3798
11961TIP3    H257299   0.619   3.480  16.995 -0.8471 -1.8833 -1.0290
11962TIP3   OH257300   4.037   6.233   3.461 -0.1916 -0.0894  0.0810
11962TIP3    H157301   4.016   6.291   3.534  1.1206  0.5330 -0.0180
11962TIP3    H257302   4.133   6.231   3.458 -0.2205 -0.8949 -1.0025
11963TIP3   OH257303   4.914   4.502  15.875  0.0159  0.0898  0.0250
11963TIP3    H157304   4.955   4.525  15.792 -0.6530  0.8558 -0.1036
11963TIP3    H257305   4.869   4.419  15.857 -3.4844  2.1272 -1.6055
11964TIP3   OH257306   3.313   4.698   3.618 -0.0453 -0.2233  0.5969
11964TIP3    H157307   3.316   4.602   3.616  1.6428 -0.2619 -3.2004
11964TIP3    H257308   3.227   4.720   3.585  0.8942 -0.5993 -2.3785
11965TIP3   OH257309   3.790   5.251  16.655 -0.2385 -0.0137  0.2496
11965TIP3    H157310   3.699   5.260  16.627 -0.6351 -0.3532  1.3676
11965TIP3    H257311   3.807   5.157  16.649  0.0247  0.0434  0.0939
11966TIP3   OH257312   5.260   4.616   3.491  0.3142  0.6476 -1.2422
11966TIP3    H157313   5.183   4.661   3.455  0.5621  1.3220 -0.9486
11966TIP3    H257314   5.265   4.646   3.582  0.7397  0.3550 -1.1655
11967TIP3   OH257315   6.466   5.747   0.269  0.4869  0.4581  0.3770
11967TIP3    H157316   6.476   5.841   0.285  0.7670  0.7714 -1.4165
11967TIP3    H257317   6.417   5.715   0.344 -2.8031  2.6848 -0.6154
11968TIP3   OH257318   1.432   0.543  15.602 -0.2578 -0.5726  0.0522
11968TIP3    H157319   1.393   0.483  15.539 -0.0081 -0.4763 -0.1938
11968TIP3    H257320   1.404   0.630  15.573 -1.8037 -0.6367  1.2126
11969TIP3   OH257321   0.233   1.149   4.270 -0.5156  0.0304 -0.0288
11969TIP3    H157322   0.162   1.145   4.334  0.4069 -0.2819  1.0094
11969TIP3    H257323   0.239   1.241   4.246  0.1010  0.4280  1.5047
11970TIP3   OH257324   6.555   2.885   0.123 -0.4244  0.2842 -0.2825
11970TIP3    H157325   6.536   2.842   0.040 -0.3652 -0.2786 -0.0133
11970TIP3    H257326   6.509   2.832   0.188 -1.6338  1.5304 -0.0869
11971TIP3   OH257327   2.852   2.260  16.034  0.7110  0.7541 -0.5558
11971TIP3    H157328   2.821   2.172  16.056  1.2269  0.7432  0.1647
11971TIP3    H257329   2.821   2.315  16.106 -0.7618  1.4374 -1.6614
11972TIP3   OH257330   5.855   3.427   3.214 -0.0623  0.1162 -0.6490
11972TIP3    H157331   5.895   3.340   3.216 -0.0105  0.1571  0.9615
11972TIP3    H257332   5.922   3.485   3.250 -0.5771  0.6118 -0.4728
11973TIP3   OH257333   3.300   5.256   0.179  0.0975 -0.5203  0.1136
11973TIP3    H157334   3.256   5.211   0.251  0.0824  1.9055  1.7705
11973TIP3    H257335   3.270   5.211   0.100 -1.4863 -2.0322  1.4881
11974TIP3   OH257336   3.505   2.526  17.236 -0.1146  0.3922  0.2873
11974TIP3    H157337   3.506   2.594  17.304  0.7216 -0.3292  1.0032
11974TIP3    H257338   3.429   2.472  17.257  0.4226 -0.1174  0.9480
11975TIP3   OH257339   1.846   4.689   0.209  1.2216 -0.0294  0.1851
11975TIP3    H157340   1.839   4.689   0.114  3.5358 -3.4610 -0.1605
11975TIP3    H257341   1.756   4.697   0.240  0.3051  0.0853 -2.2896
11976TIP3   OH257342   4.646   1.190  13.998  0.2863 -0.6506 -0.0975
11976TIP3    H157343   4.550   1.197  13.994  0.4028  1.0323 -1.7197
11976TIP3    H257344   4.670   1.149  13.915  0.9933 -0.9396  0.2438
11977TIP3   OH257345   6.106   6.498  14.405  0.1166  0.0259  0.3520
11977TIP3    H157346   6.159   6.539  14.473 -0.5958  0.5122  0.6330
11977TIP3    H257347   6.164   6.494  14.329  0.4237  0.9507  0.5240
11978TIP3   OH257348   6.184   6.669   3.415  0.7331 -0.0987  0.2899
11978TIP3    H157349   6.104   6.623   3.442  0.6057  0.3165  0.6383
11978TIP3    H257350   6.238   6.670   3.494  0.0065  1.8823  0.8353
11979TIP3   OH257351   0.866   2.662  15.271 -0.4028  0.0763 -0.3386
11979TIP3    H157352   0.833   2.581  15.310 -0.2929  0.2309  0.0797
11979TIP3    H257353   0.787   2.707  15.240 -0.7660  1.0862  1.8756
11980TIP3   OH257354   6.439   5.603   5.558 -0.1277  0.3015 -0.2651
11980TIP3    H157355   6.442   5.543   5.632  1.3852  1.9419  1.1023
11980TIP3    H257356   6.350   5.639   5.560  0.2810  1.3210  1.6499
11981TIP3   OH257357   3.011   4.906   1.719  0.0935 -0.0595  0.3155
11981TIP3    H157358   3.057   4.982   1.683 -1.6214  1.0774  0.4151
11981TIP3    H257359   3.033   4.907   1.812  1.2520 -0.5989  0.0758
11982TIP3   OH257360   6.231   4.086   3.057 -0.2324 -0.0295  0.3898
11982TIP3    H157361   6.202   4.001   3.026  0.5048  0.6987 -2.5584
11982TIP3    H257362   6.296   4.066   3.124  0.1683 -1.7915 -0.4681
11983TIP3   OH257363   4.072   1.909  15.458 -0.1203 -0.4918  0.7506
11983TIP3    H157364   4.011   1.953  15.399  0.6474 -0.0886  0.2375
11983TIP3    H257365   4.074   1.963  15.537  1.2963  0.8007 -0.1107
11984TIP3   OH257366   1.903   5.154  13.303 -0.0143 -0.5984 -0.5063
11984TIP3    H157367   1.986   5.111  13.327  0.5426  0.8827  0.3453
11984TIP3    H257368   1.906   5.160  13.208 -0.0566 -2.2991 -0.6494
11985TIP3   OH257369   2.858   5.530  15.728  0.2806  0.1459  0.1853
11985TIP3    H157370   2.873   5.599  15.792  1.0168  0.9099 -0.7851
11985TIP3    H257371   2.866   5.573  15.643  0.6820 -1.1070 -0.4454
11986TIP3   OH257372   0.441   4.282   4.195 -0.1028 -0.6390 -0.1249
11986TIP3    H157373   0.354   4.280   4.156 -0.2047 -0.0860  0.0632
11986TIP3    H257374   0.490   4.345   4.142 -0.4188  0.5800  0.9716
11987TIP3   OH257375   2.772   4.796   2.066 -0.3638  0.3937  0.5283
11987TIP3    H157376   2.737   4.884   2.050 -1.3291 -0.2609 -1.2305
11987TIP3    H257377   2.856   4.795   2.020 -0.6566  0.2193 -0.0218
11988TIP3   OH257378   5.779   5.024  16.234  0.2328 -0.5024 -0.1523
11988TIP3    H157379   5.760   5.066  16.150 -0.8311  2.1532  1.2966
11988TIP3    H257380   5.703   4.969  16.251 -0.9482  1.1641  0.2890
11989TIP3   OH257381   6.158   2.153   0.387 -0.2663 -0.9272 -0.1804
11989TIP3    H157382   6.085   2.164   0.448  0.1472 -0.5571  0.2572
11989TIP3    H257383   6.120   2.107   0.312 -1.7294  2.1215 -1.4675
11990TIP3   OH257384   0.603   1.068  17.136  0.2513 -0.3878  0.3680
11990TIP3    H157385   0.657   1.076  17.214  1.6864 -0.5418 -0.5759
11990TIP3    H257386   0.549   0.991  17.151  0.5180 -0.4150  1.1975
11991TIP3   OH257387   0.823   3.092  14.061  0.4889  0.2967  0.2494
11991TIP3    H157388   0.843   3.151  13.988  1.1692 -1.6841 -1.2596
11991TIP3    H257389   0.743   3.128  14.101 -0.3327  1.0467 -1.9449
11992TIP3   OH257390   3.444   1.983   4.094  0.4910  0.1864  0.2066
11992TIP3    H157391   3.437   2.054   4.158 -0.3805  0.1428  0.1815
11992TIP3    H257392   3.522   2.005   4.043 -0.0909  1.4602 -0.1858
11993TIP3   OH257393   1.697   1.700  11.349  0.2783 -0.7793 -0.5983
11993TIP3    H157394   1.677   1.617  11.306 -0.2039 -0.5523 -0.8193
11993TIP3    H257395   1.792   1.707  11.345  0.2293 -0.5600 -2.0226
11994TIP3   OH257396   1.796   0.147  12.377  0.4883  0.5022 -0.0434
11994TIP3    H157397   1.707   0.113  12.373  0.7425 -0.6570  2.3664
11994TIP3    H257398   1.788   0.241  12.360 -0.8214  0.0556 -2.3143
11995TIP3   OH257399   4.413   4.669  12.400  0.1344 -0.1401 -0.2518
11995TIP3    H157400   4.461   4.709  12.327 -0.7914 -1.1488 -1.4774
11995TIP3    H257401   4.399   4.578  12.372 -0.4817 -0.4819  1.0785
11996TIP3   OH257402   5.555   5.890   2.599  0.2842 -0.2239  0.0062
11996TIP3    H157403   5.509   5.807   2.583  0.4866 -0.3701  0.1826
11996TIP3    H257404   5.646   5.864   2.614  0.6782  0.1557 -1.5514
11997TIP3   OH257405   4.522   3.353  16.832 -0.3988 -0.0948 -0.2320
11997TIP3    H157406   4.541   3.265  16.797 -1.6602 -0.8151  0.8294
11997TIP3    H257407   4.441   3.342  16.882 -0.5974  1.6994 -0.1172
11998TIP3   OH257408   1.798   2.718   3.443  0.2685  0.9615 -0.9363
11998TIP3    H157409   1.746   2.790   3.408 -1.9656  0.4357  0.9996
11998TIP3    H257410   1.797   2.732   3.538  0.7722 -0.9546 -0.6091
11999TIP3   OH257411   5.292   0.889  12.073  0.0838 -0.0738 -0.4125
11999TIP3    H157412   5.259   0.807  12.111 -0.5465  0.1384 -0.4770
11999TIP3    H257413   5.332   0.863  11.991  0.7970 -0.4450  0.0445
12000TIP3   OH257414   0.909   4.781   0.473 -0.5545 -0.8969 -0.1874
12000TIP3    H157415   0.828   4.830   0.485 -0.0507  0.4431 -1.8363
12000TIP3    H257416   0.976   4.848   0.458  0.7093 -2.0049  0.2625
12001TIP3   OH257417   2.953   3.754  17.151 -0.2781  0.1546  0.0491
12001TIP3    H157418   3.030   3.719  17.107 -0.4426  1.1819 -1.1084
12001TIP3    H257419   2.935   3.837  17.106 -2.5826 -0.4713 -0.3080
12002TIP3   OH257420   2.341   0.279  12.655  0.0821 -0.4768 -0.0295
12002TIP3    H157421   2.248   0.265  12.638  0.1901 -1.9188  0.4655
12002TIP3    H257422   2.345   0.364  12.700 -0.7614  0.6045 -1.8730
12003TIP3   OH257423   5.606   4.113  14.467  0.5339 -0.2521 -0.4976
12003TIP3    H157424   5.606   4.018  14.457 -0.2926 -0.2790 -0.3295
12003TIP3    H257425   5.517   4.134  14.497  0.8859  0.5107  0.0464
12004TIP3   OH257426   0.749   3.999  14.905  0.2049  0.3727  0.4689
12004TIP3    H157427   0.808   3.991  14.980 -1.1423 -0.8768  1.4355
12004TIP3    H257428   0.806   3.985  14.829  1.3937  0.5652  1.2960
12005TIP3   OH257429   3.565   5.150   0.478 -0.1571  0.0199 -0.5333
12005TIP3    H157430   3.569   5.116   0.568  0.2380  0.1678 -0.4934
12005TIP3    H257431   3.654   5.179   0.460  0.0712 -1.1429 -1.4187
12006TIP3   OH257432   0.040   1.190   1.906 -0.1927 -0.0342 -0.3795
12006TIP3    H157433   0.013   1.185   1.997 -0.2867  1.6425 -0.2810
12006TIP3    H257434   0.136   1.185   1.909  0.0970  3.2182  0.2152
12007TIP3   OH257435   2.558   1.274  16.056 -0.3875 -0.1455  0.3874
12007TIP3    H157436   2.550   1.352  16.111  0.5056 -0.0615  0.4137
12007TIP3    H257437   2.471   1.235  16.058 -1.6095  2.1675 -1.6234
12008TIP3   OH257438   1.764   3.810   0.460 -0.7936 -0.7314  0.5159
12008TIP3    H157439   1.815   3.842   0.535  0.1696 -1.6647  0.2741
12008TIP3    H257440   1.705   3.883   0.439  0.0947  0.1881  1.1141
12009TIP3   OH257441   6.650   5.466   2.806 -0.8233 -0.2626  0.1134
12009TIP3    H157442   6.664   5.377   2.838  1.0890  0.2020  0.7318
12009TIP3    H257443   6.731   5.512   2.829 -0.8589  1.0640 -2.1818
12010TIP3   OH257444   2.580   5.454   0.009 -0.8389  0.5360 -0.0255
12010TIP3    H157445   2.533   5.501  -0.059  1.2988  1.7660 -0.7410
12010TIP3    H257446   2.606   5.372  -0.032 -2.6950 -0.3890  0.5385
12011TIP3   OH257447   4.824   3.814   2.454 -0.1086  0.1745  0.2594
12011TIP3    H157448   4.820   3.773   2.540  0.9266  1.2873  0.8595
12011TIP3    H257449   4.829   3.740   2.393 -0.8033 -0.6238  1.1341
12012TIP3   OH257450   1.201   3.316   5.106 -0.0343  0.1471 -0.3117
12012TIP3    H157451   1.223   3.311   5.013  0.0720  1.9626 -0.4338
12012TIP3    H257452   1.270   3.268   5.151  1.2634  1.2867 -1.0323
12013TIP3   OH257453   1.701   4.224  13.083 -0.2444 -0.2337  0.8302
12013TIP3    H157454   1.704   4.189  13.172 -2.3134  0.0159  1.0431
12013TIP3    H257455   1.726   4.316  13.093 -1.8155  0.1727  1.4293
12014TIP3   OH257456   3.274   4.828  12.298 -0.5154  0.2595 -0.1355
12014TIP3    H157457   3.221   4.749  12.309  0.8299 -0.7458 -0.5849
12014TIP3    H257458   3.214   4.893  12.262 -2.0003 -0.0979  1.5243
12015TIP3   OH257459   1.856   2.401  15.944 -0.0906 -0.6052 -0.1854
12015TIP3    H157460   1.912   2.442  16.011  0.1936 -1.6263  0.2097
12015TIP3    H257461   1.832   2.474  15.887  0.7748  0.0481  0.2470
12016TIP3   OH257462   4.486   0.822  15.600 -0.0677  0.0838  0.3566
12016TIP3    H157463   4.581   0.828  15.594 -0.1936  3.2696  0.1107
12016TIP3    H257464   4.470   0.767  15.676  1.9290 -1.0905 -0.0039
12017TIP3   OH257465   6.516   5.790   0.682 -0.0066  0.5726  0.0003
12017TIP3    H157466   6.587   5.847   0.712  0.4225 -0.4741  1.0238
12017TIP3    H257467   6.541   5.703   0.712 -1.6561  0.1546  0.2459
12018TIP3   OH257468   5.626   2.261  12.230  0.2941 -0.2099  0.2377
12018TIP3    H157469   5.664   2.186  12.277 -1.9790 -1.4079  0.2931
12018TIP3    H257470   5.564   2.221  12.169  2.0310  1.3875 -2.8216
12019TIP3   OH257471   6.045   1.462   4.772 -0.8019  0.3443  0.6882
12019TIP3    H157472   6.073   1.393   4.832  0.7603  1.6014  1.4775
12019TIP3    H257473   6.097   1.538   4.797 -0.9557  1.2499 -1.5244
12020TIP3   OH257474   1.102   5.288  14.040  0.0990  0.0584 -0.2152
12020TIP3    H157475   1.086   5.282  13.946 -1.7187  0.1304  0.0412
12020TIP3    H257476   1.034   5.347  14.072 -1.7878 -2.8105  1.6322
12021TIP3   OH257477   2.090   5.348  13.440 -0.0515 -0.0016  0.4489
12021TIP3    H157478   2.002   5.314  13.426  0.8542 -2.1171 -0.6995
12021TIP3    H257479   2.145   5.299  13.378  2.0717  0.5559  1.7600
12022TIP3   OH257480   0.944   1.767   2.654 -0.0276 -0.0584 -0.2452
12022TIP3    H157481   0.924   1.814   2.573  0.4406  0.1595 -0.2373
12022TIP3    H257482   1.039   1.759   2.655 -0.1098 -1.3041 -0.4101
12023TIP3   OH257483   1.719   2.619  16.844  0.5773 -0.0843 -0.0388
12023TIP3    H157484   1.801   2.645  16.802  0.3611 -0.1225 -0.4909
12023TIP3    H257485   1.660   2.598  16.771 -0.0179  0.5038  0.2549
12024TIP3   OH257486   2.800   2.928  17.327  0.4582  0.0286  0.1823
12024TIP3    H157487   2.886   2.956  17.297 -0.2623  0.4306 -1.6654
12024TIP3    H257488   2.762   3.006  17.368 -0.1909  0.8115 -1.8058
12025TIP3   OH257489   5.550   4.762   1.370  0.4499 -0.2774 -0.8550
12025TIP3    H157490   5.600   4.716   1.437  1.4341 -0.5204 -1.7118
12025TIP3    H257491   5.544   4.852   1.402 -0.7095 -0.7649  0.4068
12026TIP3   OH257492   2.023   3.842   3.516  0.0988 -0.0223  0.3550
12026TIP3    H157493   1.967   3.877   3.585 -1.8669 -0.7263 -0.7907
12026TIP3    H257494   2.042   3.752   3.544 -0.4357 -0.2030  0.1576
12027TIP3   OH257495   6.006   2.702   1.588 -0.2322 -0.2210  0.1188
12027TIP3    H157496   6.051   2.763   1.530 -0.8349 -0.4019 -0.5554
12027TIP3    H257497   6.076   2.651   1.630  0.2530  0.6099  0.3387
12028TIP3   OH257498   4.234   1.118  10.987  0.4376 -0.3550  0.6338
12028TIP3    H157499   4.183   1.193  11.016 -1.2137 -0.8286 -0.9211
12028TIP3    H257500   4.171   1.061  10.943  1.9348 -1.9471  0.4374
12029TIP3   OH257501   5.429   2.400  14.686  0.1736  0.2160  0.1256
12029TIP3    H157502   5.358   2.336  14.679  1.4039 -1.1701 -0.1965
12029TIP3    H257503   5.412   2.447  14.767 -1.3856  0.2848 -0.2080
12030TIP3   OH257504   2.608   5.533  10.433 -0.6736 -0.3169 -0.6026
12030TIP3    H157505   2.515   5.520  10.415 -1.3814 -1.9326  3.1995
12030TIP3    H257506   2.644   5.444  10.438  0.6581  0.2193 -0.1849
12031TIP3   OH257507   4.460   0.736  14.545  0.1522 -0.1249  0.5623
12031TIP3    H157508   4.488   0.718  14.456  0.6550  0.2242  0.6485
12031TIP3    H257509   4.379   0.685  14.555 -0.1107  0.1181 -0.2110
12032TIP3   OH257510   4.234   5.132   0.260  0.0802  0.4686  0.5910
12032TIP3    H157511   4.248   5.158   0.169  1.2279  1.9466  1.1393
12032TIP3    H257512   4.319   5.148   0.302 -0.1631 -1.0527  1.7349
12033TIP3   OH257513   3.431   3.980  11.868  0.0657  0.1005  0.0742
12033TIP3    H157514   3.380   3.956  11.791  0.6157  0.3546 -0.3751
12033TIP3    H257515   3.367   3.985  11.939 -0.2899 -1.2486 -0.1245
12034TIP3   OH257516   1.408   5.440  16.413  0.5334 -0.1134  0.8006
12034TIP3    H157517   1.415   5.371  16.346  3.0397  0.6919  0.1441
12034TIP3    H257518   1.454   5.404  16.489  1.7346  0.7309  0.5005
12035TIP3   OH257519   3.741   1.374  10.962 -0.0633 -0.1659 -0.2450
12035TIP3    H157520   3.721   1.290  11.004 -1.8714  1.1989  1.8455
12035TIP3    H257521   3.786   1.425  11.029 -1.2183  1.3729 -0.5720
12036TIP3   OH257522   3.412   0.356   0.190 -0.1752  0.5420 -0.6021
12036TIP3    H157523   3.339   0.299   0.219 -0.4385  0.4697 -1.3930
12036TIP3    H257524   3.478   0.295   0.157  0.1812  0.6188 -0.0425
12037TIP3   OH257525   5.154   4.873   1.432  0.3628  0.3631 -0.4778
12037TIP3    H157526   5.243   4.880   1.468  0.4218 -0.3867 -0.4629
12037TIP3    H257527   5.163   4.897   1.340  0.5974  0.1912 -0.5002
12038TIP3   OH257528   2.619   2.169   3.281  0.3489 -0.3225  0.2789
12038TIP3    H157529   2.668   2.198   3.358  1.2237  0.2622 -0.4861
12038TIP3    H257530   2.543   2.227   3.279  1.0265  0.5711 -0.0627
12039TIP3   OH257531   5.441   5.190  14.384  0.1771  0.2002 -0.1745
12039TIP3    H157532   5.418   5.131  14.312 -0.3828 -1.4937  1.3290
12039TIP3    H257533   5.537   5.192  14.383  0.2586 -1.6399  0.4006
12040TIP3   OH257534   0.696   2.337  15.047  0.0231 -0.4687 -0.0983
12040TIP3    H157535   0.790   2.323  15.043  0.1205 -0.2653  1.1141
12040TIP3    H257536   0.661   2.286  14.973  1.1969  0.7384 -1.5450
12041TIP3   OH257537   6.477   0.343   1.554  0.6468  0.4569 -0.3956
12041TIP3    H157538   6.511   0.255   1.538 -0.1992 -0.0079  0.3086
12041TIP3    H257539   6.456   0.344   1.647  0.6036  1.3958 -0.4057
12042TIP3   OH257540   2.219   4.225   1.632 -0.0289  0.6862 -0.2988
12042TIP3    H157541   2.137   4.203   1.676 -0.2707  0.4600 -0.8493
12042TIP3    H257542   2.192   4.271   1.553  0.3708  0.5409 -0.5225
12043TIP3   OH257543   1.390   4.742   3.494  1.0344 -0.0397 -0.9331
12043TIP3    H157544   1.413   4.688   3.419  1.9567 -0.6857 -0.2013
12043TIP3    H257545   1.463   4.733   3.555 -0.7258 -1.5416  1.1477
12044TIP3   OH257546   2.459   5.673  13.748  0.2096  0.1420 -0.6439
12044TIP3    H157547   2.481   5.672  13.654  1.0898  0.0495 -0.4479
12044TIP3    H257548   2.392   5.741  13.756 -0.7737 -0.6894 -1.5258
12045TIP3   OH257549   1.414   2.873   3.842  0.1404  0.0387 -0.3640
12045TIP3    H157550   1.467   2.911   3.772  0.3241  0.8795  0.2110
12045TIP3    H257551   1.338   2.835   3.797  1.3559 -1.4809 -1.2363
12046TIP3   OH257552   0.660   3.148  12.451  0.0132  0.2673  0.2482
12046TIP3    H157553   0.710   3.221  12.415 -1.2681  0.9997 -0.0598
12046TIP3    H257554   0.625   3.181  12.533 -1.0476  0.1943 -0.1705
12047TIP3   OH257555   6.066   5.747   2.291  0.1981 -0.0598 -0.2428
12047TIP3    H157556   6.114   5.664   2.285  0.1163 -0.0560 -1.0233
12047TIP3    H257557   5.982   5.723   2.330 -0.1181 -0.4853 -1.1431
12048TIP3   OH257558   5.840   1.879  11.139 -0.1144  0.2896  0.0524
12048TIP3    H157559   5.783   1.831  11.199 -0.0805 -0.2542 -0.3449
12048TIP3    H257560   5.862   1.816  11.070 -0.6689  1.0818 -0.8802
12049TIP3   OH257561   6.201   0.891   1.608  0.1463  0.4661 -0.2394
12049TIP3    H157562   6.270   0.862   1.548  0.1716 -0.1620  0.0920
12049TIP3    H257563   6.240   0.966   1.654  0.3395  0.5740 -0.5747
12050TIP3   OH257564   3.215   6.610   6.028  0.0012 -0.2071  0.4909
12050TIP3    H157565   3.224   6.703   6.005 -1.1742 -0.5817 -1.8466
12050TIP3    H257566   3.221   6.608   6.124 -0.3717  2.3313  0.6364
12051TIP3   OH257567   6.373   0.626   2.956 -0.1654  0.3462 -0.8124
12051TIP3    H157568   6.301   0.562   2.958  1.8723 -2.1390 -1.2087
12051TIP3    H257569   6.340   0.697   2.901 -2.3763 -0.5678 -0.7819
12052TIP3   OH257570   0.998   3.157  15.682  0.4741  0.1073 -0.0264
12052TIP3    H157571   1.070   3.220  15.678  0.4914  0.1125  0.3401
12052TIP3    H257572   0.931   3.193  15.623  0.9504 -0.1309 -0.7180
12053TIP3   OH257573   0.358   6.681  12.814  0.0074 -0.2199 -0.0889
12053TIP3    H157574   0.386   6.770  12.790  0.0103 -0.2043 -0.0284
12053TIP3    H257575   0.439   6.637  12.841  0.1719 -0.5611 -1.1024
12054TIP3   OH257576   1.308   0.784  15.522 -0.8016 -0.0363  0.2622
12054TIP3    H157577   1.371   0.831  15.468 -0.5202  0.4236  0.9634
12054TIP3    H257578   1.223   0.807  15.486 -0.5560 -1.1942 -1.1109
12055TIP3   OH257579   2.840   2.335  11.141  0.2735  0.8493 -0.1713
12055TIP3    H157580   2.871   2.351  11.230 -0.1454  0.4435  0.0477
12055TIP3    H257581   2.917   2.350  11.086  0.3185  1.9558  0.1746
12056TIP3   OH257582   3.201   3.464   1.444  0.6002  0.4678 -0.0131
12056TIP3    H157583   3.174   3.555   1.444  0.9603  0.5969  1.7011
12056TIP3    H257584   3.296   3.467   1.433  0.8557  0.4263  1.8919
12057TIP3   OH257585   3.403   4.937  10.446  0.3585  0.0003 -1.3943
12057TIP3    H157586   3.338   4.870  10.469  1.6326 -0.5803  0.7544
12057TIP3    H257587   3.350   5.015  10.427 -1.0101 -0.2045  1.1106
12058TIP3   OH257588   6.636   3.701   6.420 -0.0226 -0.1532  0.3710
12058TIP3    H157589   6.656   3.622   6.470  0.4820 -0.5732 -0.4844
12058TIP3    H257590   6.542   3.714   6.433 -0.3402 -1.5534 -0.3981
12059TIP3   OH257591   3.676   6.704   2.216  0.1714  0.4458  0.1595
12059TIP3    H157592   3.657   6.624   2.265 -0.0240 -0.6300 -1.5899
12059TIP3    H257593   3.591   6.749   2.210 -0.4922 -0.9100 -1.6717
12060TIP3   OH257594   2.289   3.138   5.907  0.6619 -0.0673  0.2611
12060TIP3    H157595   2.382   3.126   5.886  0.4226  1.4147 -1.9244
12060TIP3    H257596   2.288   3.209   5.971  0.9748  1.2177 -1.1132
12061TIP3   OH257597   1.410   6.423   2.739 -0.4935 -0.0433  0.6909
12061TIP3    H157598   1.501   6.396   2.727  0.2163  2.2366  0.4498
12061TIP3    H257599   1.363   6.342   2.761  1.3880 -1.4408 -0.1664
12062TIP3   OH257600   2.456   0.706  13.981 -0.2713 -0.5616  0.5001
12062TIP3    H157601   2.517   0.750  13.922 -1.1784  0.6562  0.4078
12062TIP3    H257602   2.419   0.635  13.930  0.4738 -0.8183  0.3027
12063TIP3   OH257603   1.321   5.538   1.808  0.1227 -0.0050  0.1122
12063TIP3    H157604   1.262   5.534   1.733 -1.1224 -1.1896  1.0980
12063TIP3    H257605   1.338   5.446   1.830  2.6567  0.2832 -0.3395
12064TIP3   OH257606   4.289   6.161  11.912 -0.1408  0.8298 -0.2262
12064TIP3    H157607   4.358   6.121  11.965  2.6700  1.6002 -2.9546
12064TIP3    H257608   4.293   6.114  11.829 -2.4616  1.4390 -0.7680
12065TIP3   OH257609   1.801   3.219   0.571 -0.2006 -0.2177  0.5739
12065TIP3    H157610   1.769   3.131   0.589 -0.8469  0.2119  1.6108
12065TIP3    H257611   1.893   3.206   0.546 -0.9326 -1.3974 -1.7535
12066TIP3   OH257612   6.738   0.514   5.404 -0.6210 -0.5708 -0.4661
12066TIP3    H157613   6.766   0.464   5.481  1.6386 -1.2844 -1.6431
12066TIP3    H257614   6.650   0.545   5.426  0.4711  0.5038  2.9745
12067TIP3   OH257615   2.558   2.214   5.638 -0.4673 -0.0906 -0.1773
12067TIP3    H157616   2.469   2.183   5.656 -0.4984  0.4138  0.5912
12067TIP3    H257617   2.589   2.158   5.568 -2.3170  1.3289 -2.2665
12068TIP3   OH257618   1.291   0.923  14.061 -0.5074 -0.1438  0.0246
12068TIP3    H157619   1.336   1.005  14.044  0.3230 -0.8634 -1.3854
12068TIP3    H257620   1.262   0.930  14.152  3.0527  0.0736  1.2920
12069TIP3   OH257621   3.549   2.661  13.141  0.6068  0.2430 -0.7112
12069TIP3    H157622   3.575   2.607  13.215  1.4174  1.6769  0.0790
12069TIP3    H257623   3.474   2.614  13.103 -0.3532 -0.1240  1.4822
12070TIP3   OH257624   4.552   3.090   4.361  0.0138 -0.6481 -0.7678
12070TIP3    H157625   4.644   3.108   4.342  0.0926 -0.7609 -0.4867
12070TIP3    H257626   4.546   2.995   4.361  0.2627 -0.6938  0.9703
12071TIP3   OH257627   0.755   1.803   6.185 -0.3582 -0.4684 -0.1066
12071TIP3    H157628   0.684   1.864   6.166  0.1254 -0.2719 -1.4396
12071TIP3    H257629   0.711   1.721   6.207 -1.0092 -0.1846 -0.3089
12072TIP3   OH257630   0.645   4.939   2.817  0.0945  0.0326 -0.5832
12072TIP3    H157631   0.686   4.857   2.788 -0.5886 -0.9754  1.1795
12072TIP3    H257632   0.554   4.930   2.790  0.1765  0.5630 -1.0524
12073TIP3   OH257633   3.983   5.106   3.827 -0.3044 -0.1249  0.3733
12073TIP3    H157634   3.949   5.021   3.854  1.8541 -0.8925  0.8722
12073TIP3    H257635   3.907   5.164   3.828 -1.8876 -2.0867 -0.2406
12074TIP3   OH257636   6.462   2.568   5.774  0.0288 -0.8523 -0.3914
12074TIP3    H157637   6.394   2.619   5.729 -0.9422 -0.1630  1.7131
12074TIP3    H257638   6.414   2.520   5.842  1.4984 -1.2295  0.4208
12075TIP3   OH257639   4.337   4.795   5.752  0.2306 -0.2763  0.2374
12075TIP3    H157640   4.398   4.838   5.692 -0.1160  0.9508  0.7392
12075TIP3    H257641   4.364   4.825   5.839 -0.9648  0.1511  0.4793
12076TIP3   OH257642   0.362   6.548  14.664  0.1719 -0.2348 -0.0402
12076TIP3    H157643   0.319   6.480  14.611 -1.1114  0.7719 -0.3306
12076TIP3    H257644   0.375   6.507  14.749 -0.9335 -0.7290 -0.0933
12077TIP3   OH257645   3.210   6.741   3.253 -0.7466 -0.0376 -0.1985
12077TIP3    H157646   3.202   6.748   3.158 -1.2792  1.1744 -0.0936
12077TIP3    H257647   3.186   6.828   3.285 -2.1254 -0.8573  1.1391
12078TIP3   OH257648   1.583   5.445  12.246  0.6069  0.4439 -0.0463
12078TIP3    H157649   1.490   5.458  12.227  0.4958 -1.3128 -0.9120
12078TIP3    H257650   1.609   5.523  12.296 -1.2932  1.0141  0.1195
12079TIP3   OH257651   5.191   3.184   2.193  0.2836  0.2363  0.1391
12079TIP3    H157652   5.258   3.214   2.131 -1.1382  0.1853 -1.4970
12079TIP3    H257653   5.220   3.097   2.220 -0.0121 -0.5846 -2.0036
12080TIP3   OH257654   1.115   0.159   5.718 -0.2165 -0.2960 -1.0299
12080TIP3    H157655   1.183   0.224   5.704 -1.0554  0.7201 -0.6107
12080TIP3    H257656   1.092   0.128   5.631  1.0199 -0.9233 -1.1468
12081TIP3   OH257657   2.138   0.091  12.227  0.3384  0.4198 -0.3565
12081TIP3    H157658   2.139   0.171  12.279  1.2477  1.2085 -1.5415
12081TIP3    H257659   2.171   0.023  12.286  2.6348  1.5485 -0.2473
12082TIP3   OH257660   2.772   1.036   0.611 -0.2421  0.0850  0.4411
12082TIP3    H157661   2.842   0.978   0.581 -0.8146 -0.6467  0.4979
12082TIP3    H257662   2.754   1.006   0.700 -1.0645 -0.1423  0.1996
12083TIP3   OH257663   1.285   0.860  13.797 -0.0521 -0.4639  0.4347
12083TIP3    H157664   1.313   0.875  13.887  2.1403 -0.3803 -0.2228
12083TIP3    H257665   1.342   0.915  13.744  0.8370 -2.8548 -1.2396
12084TIP3   OH257666   0.052   5.789  11.307  0.8593 -0.3638 -0.1522
12084TIP3    H157667   0.109   5.760  11.237 -0.1008  1.5256 -1.8368
12084TIP3    H257668  -0.022   5.728  11.305  0.7908 -0.2682 -0.8821
12085TIP3   OH257669   0.432   1.338  12.673  0.5210  0.4883  0.8772
12085TIP3    H157670   0.440   1.245  12.692 -0.0939  0.5441  1.4397
12085TIP3    H257671   0.519   1.363  12.640  0.7131 -0.2606  0.7960
12086TIP3   OH257672   3.835   3.830   3.246  0.2341 -0.6648  0.0369
12086TIP3    H157673   3.805   3.773   3.175 -0.1294  1.6877 -1.8217
12086TIP3    H257674   3.926   3.850   3.224 -0.2799  1.1669 -0.5943
12087TIP3   OH257675   0.657   1.043   5.415  0.0319  0.0414 -0.3196
12087TIP3    H157676   0.660   0.970   5.353 -0.4696 -1.2880  1.1411
12087TIP3    H257677   0.564   1.054   5.434  0.2514 -0.4789  1.1807
12088TIP3   OH257678   3.623   1.142  11.798  0.1376  0.2393 -0.5261
12088TIP3    H157679   3.555   1.180  11.742 -0.7877 -1.5845 -0.7422
12088TIP3    H257680   3.632   1.204  11.870 -1.0103  1.0471 -1.0340
12089TIP3   OH257681   1.043   1.819   0.427  0.3106  0.5043  0.3962
12089TIP3    H157682   0.966   1.763   0.420  0.2250  0.4780  1.3265
12089TIP3    H257683   1.025   1.892   0.369  0.8555 -0.8837 -1.6256
12090TIP3   OH257684   4.483   1.136   0.888 -0.3218 -0.0401 -0.0387
12090TIP3    H157685   4.566   1.093   0.867 -0.2698  0.1920 -0.3181
12090TIP3    H257686   4.507   1.224   0.916 -0.2856 -0.7239  2.2720
12091TIP3   OH257687   5.503   4.838  11.477 -0.3044 -0.3243  0.2939
12091TIP3    H157688   5.470   4.817  11.390 -1.9477  0.5026  0.6733
12091TIP3    H257689   5.427   4.874  11.524  0.3137 -1.5240  2.3502
12092TIP3   OH257690   6.449   5.200   0.171 -0.1747 -0.2409 -0.4955
12092TIP3    H157691   6.447   5.284   0.218  2.4927 -1.3528  1.8583
12092TIP3    H257692   6.359   5.170   0.174 -0.6489  1.1264  1.4119
12093TIP3   OH257693   0.860   3.705   3.430  0.0826 -0.0358 -0.5513
12093TIP3    H157694   0.835   3.663   3.512 -1.2040  0.2390 -0.7697
12093TIP3    H257695   0.896   3.789   3.456  0.8269 -0.4539 -0.2127
12094TIP3   OH257696   5.372   5.037   6.080  0.0870 -0.1488  0.1617
12094TIP3    H157697   5.371   5.129   6.054 -1.8973  0.0305  0.6861
12094TIP3    H257698   5.384   4.989   5.999 -0.7947  0.5309 -0.3840
12095TIP3   OH257699   2.668   3.731   3.589 -0.5315 -0.2392 -0.1332
12095TIP3    H157700   2.714   3.760   3.511  1.8139 -1.7086  0.6040
12095TIP3    H257701   2.629   3.647   3.564 -1.3000  0.1248 -0.2036
12096TIP3   OH257702   4.902   2.183   1.073  0.0136  0.6641  0.1834
12096TIP3    H157703   4.841   2.110   1.087 -1.3795  1.0175 -3.1908
12096TIP3    H257704   4.986   2.150   1.104 -0.7238 -2.1166 -0.4866
12097TIP3   OH257705   1.761   6.201  13.360 -0.4890 -0.1837 -0.1905
12097TIP3    H157706   1.728   6.127  13.309 -0.3554 -0.5679  0.2774
12097TIP3    H257707   1.792   6.263  13.294  0.0822 -0.8622 -0.5745
12098TIP3   OH257708   3.724   2.609  14.649 -0.0414 -0.1055  0.4742
12098TIP3    H157709   3.761   2.521  14.661 -2.8129 -1.8784 -2.4343
12098TIP3    H257710   3.773   2.645  14.576 -1.0388 -0.6519 -0.4926
12099TIP3   OH257711   3.113   1.734   6.333 -0.3831  0.5843 -0.1955
12099TIP3    H157712   3.025   1.731   6.297 -1.7578 -2.1838  2.8290
12099TIP3    H257713   3.170   1.709   6.260 -2.0772  1.9625 -2.1067
12100TIP3   OH257714   0.071   2.607   3.390  0.2252 -0.1434 -0.1271
12100TIP3    H157715  -0.008   2.558   3.416  1.4274 -1.6847  0.8454
12100TIP3    H257716   0.088   2.579   3.300 -1.1885  1.4388 -0.9485
12101TIP3   OH257717   3.640   3.770  16.451  0.2442  0.1849 -0.1894
12101TIP3    H157718   3.569   3.714  16.418  0.0030 -0.7198  1.7386
12101TIP3    H257719   3.658   3.830  16.378 -0.4689 -1.4516 -1.8129
12102TIP3   OH257720   5.297   1.208  14.494  0.0385 -0.5642 -0.1233
12102TIP3    H157721   5.293   1.122  14.451  0.2102 -1.0878  0.8885
12102TIP3    H257722   5.243   1.264  14.438 -0.6734 -1.5000 -0.4097
12103TIP3   OH257723   5.172   3.369   5.807  0.4314 -0.4490  0.0638
12103TIP3    H157724   5.200   3.394   5.719 -3.5023  3.3538 -0.4414
12103TIP3    H257725   5.111   3.296   5.794 -1.4709  1.2112 -0.6913
12104TIP3   OH257726   5.179   5.168  11.784  0.5414  0.6755  0.3814
12104TIP3    H157727   5.188   5.095  11.723 -2.9005 -0.6438  1.1518
12104TIP3    H257728   5.137   5.237  11.733  0.3916  0.6973  0.5325
12105TIP3   OH257729   3.873   4.926   3.041 -0.0190 -0.1198 -0.1429
12105TIP3    H157730   3.924   4.916   3.122 -0.7960  3.2009  0.9230
12105TIP3    H257731   3.790   4.884   3.059  0.5415 -1.2243 -0.0430
12106TIP3   OH257732   1.803   0.670  16.802  0.1140 -0.2960  0.4547
12106TIP3    H157733   1.863   0.691  16.730 -0.1507  1.1373  0.6269
12106TIP3    H257734   1.795   0.575  16.799  2.1652 -0.5243  0.2265
12107TIP3   OH257735   5.924   4.533   3.896 -0.0082 -0.6446 -0.2046
12107TIP3    H157736   5.833   4.560   3.900  0.8665  2.6298  0.6435
12107TIP3    H257737   5.934   4.491   3.810 -1.7939  1.0455 -1.2970
12108TIP3   OH257738   1.814   4.699  11.530  0.0471  0.2222  0.3346
12108TIP3    H157739   1.806   4.626  11.469  0.2936  0.4010  0.0832
12108TIP3    H257740   1.759   4.768  11.493 -0.4243  0.0629  0.7299
12109TIP3   OH257741   2.002   6.411   0.909  0.3475  0.1059 -0.5428
12109TIP3    H157742   2.020   6.346   0.841 -0.7354 -1.4043  0.5453
12109TIP3    H257743   2.088   6.435   0.943  0.7476 -2.0967  0.1756
12110TIP3   OH257744   0.029   3.913  17.238 -0.1647 -0.5309 -0.6473
12110TIP3    H157745   0.089   3.894  17.166 -0.9798 -1.4420 -1.1168
12110TIP3    H257746   0.003   3.827  17.271 -0.3409 -0.1340  0.2868
12111TIP3   OH257747   4.294   1.384  15.685 -0.3260  0.0147 -0.0222
12111TIP3    H157748   4.311   1.334  15.605 -0.1432  0.5506 -0.3266
12111TIP3    H257749   4.217   1.437  15.663 -0.9370 -0.6171  0.5273
12112TIP3   OH257750   1.210   5.470  11.931  0.2596 -0.1124 -0.3993
12112TIP3    H157751   1.256   5.548  11.962 -1.3054  1.2619 -1.3700
12112TIP3    H257752   1.142   5.454  11.996  0.9343 -1.0703  0.1033
12113TIP3   OH257753   4.450   5.237   0.926  0.3886  0.3239  0.4873
12113TIP3    H157754   4.383   5.262   0.990 -0.3048 -0.6739  0.1615
12113TIP3    H257755   4.492   5.320   0.902 -0.8632  0.9959  0.5388
12114TIP3   OH257756   1.238   2.949   2.544 -0.0999  0.0800  0.7233
12114TIP3    H157757   1.154   2.970   2.503  0.4102  0.9977  0.1188
12114TIP3    H257758   1.273   2.877   2.492  0.1920  0.7275  0.0098
12115TIP3   OH257759   2.133   5.727   4.795 -0.2434  0.3740  0.2660
12115TIP3    H157760   2.206   5.789   4.806 -1.0418  1.1241  1.5332
12115TIP3    H257761   2.142   5.667   4.869 -0.9373  0.5096  0.4665
12116TIP3   OH257762   6.523   6.709   2.133 -0.6514 -0.1063 -0.1179
12116TIP3    H157763   6.604   6.716   2.082  0.2049  0.0561  1.2327
12116TIP3    H257764   6.468   6.781   2.101 -0.4593 -0.4879 -1.3549
12117TIP3   OH257765   6.722   6.525   0.620  0.7498 -0.8489  0.0219
12117TIP3    H157766   6.702   6.460   0.687  1.0363 -0.3868  0.5619
12117TIP3    H257767   6.813   6.509   0.596  1.0786 -0.1268  0.7533
12118TIP3   OH257768   1.669   1.256   6.370  0.0127  0.2175  0.1044
12118TIP3    H157769   1.736   1.244   6.303  1.1162  3.4129  0.4593
12118TIP3    H257770   1.587   1.257   6.322  0.5179 -0.4771 -0.7954
12119TIP3   OH257771   6.675   1.310  14.498  0.4520 -0.5106 -0.3474
12119TIP3    H157772   6.622   1.232  14.484 -1.4046  0.9258 -1.9034
12119TIP3    H257773   6.618   1.369  14.548  1.8247 -0.1298  0.8219
12120TIP3   OH257774   6.201   4.672   0.027 -0.8735  0.2890 -0.1289
12120TIP3    H157775   6.230   4.609  -0.039 -0.3317  0.3113  0.0869
12120TIP3    H257776   6.111   4.694   0.001 -1.4447 -1.3267  0.3403
12121TIP3   OH257777   2.472   0.100   5.425  0.5169  0.0650 -0.4083
12121TIP3    H157778   2.537   0.045   5.469  1.1259  1.6789  0.8013
12121TIP3    H257779   2.390   0.080   5.470  0.7231  0.0940 -0.0149
12122TIP3   OH257780   2.732   5.986  10.865  0.2720 -0.1631 -0.1248
12122TIP3    H157781   2.722   5.905  10.816  2.0631 -0.9831  0.7869
12122TIP3    H257782   2.811   6.026  10.830 -0.5170  1.1576 -0.4716
12123TIP3   OH257783   5.166   1.114   5.457 -0.6689  0.0484 -0.3116
12123TIP3    H157784   5.202   1.144   5.540  0.5331  0.2211 -0.8760
12123TIP3    H257785   5.198   1.024   5.448 -2.6267 -0.8003  0.4324
12124TIP3   OH257786   1.031   4.157  16.108  0.2150  0.2827  0.1630
12124TIP3    H157787   0.961   4.187  16.052  0.4589 -0.5796 -0.6313
12124TIP3    H257788   1.090   4.110  16.050  0.0625 -1.3373  1.2510
12125TIP3   OH257789   0.218   2.761   5.262  0.1903 -0.3005  0.4243
12125TIP3    H157790   0.254   2.822   5.197  1.8471 -2.8297 -1.2126
12125TIP3    H257791   0.130   2.741   5.230 -0.1879  0.8023  0.7221
12126TIP3   OH257792   6.033   4.039  13.611  0.1369  0.3363  0.2712
12126TIP3    H157793   6.092   4.035  13.686  0.4231 -0.8579 -0.0047
12126TIP3    H257794   5.955   3.993  13.639 -0.5815  1.6598  0.5320
12127TIP3   OH257795   6.378   2.751  15.147  0.1274 -0.4427  0.4605
12127TIP3    H157796   6.346   2.703  15.071  0.0019  1.5942 -0.8734
12127TIP3    H257797   6.305   2.809  15.171  0.2509 -0.8862  2.0226
12128TIP3   OH257798   3.014   0.035   0.610  0.5459 -0.1240 -0.3213
12128TIP3    H157799   3.011   0.085   0.529 -2.5840  0.4880  0.0454
12128TIP3    H257800   3.045  -0.051   0.584 -0.3820  0.0597 -2.2014
12129TIP3   OH257801   5.278   5.587  12.993 -0.1044  0.2894 -0.2339
12129TIP3    H157802   5.213   5.541  12.939  1.9488 -2.8919 -0.2902
12129TIP3    H257803   5.329   5.516  13.032  1.0937  2.5781  2.6568
12130TIP3   OH257804   1.908   2.405  14.170  0.2778 -0.1026  0.0650
12130TIP3    H157805   1.902   2.498  14.195 -3.1915 -0.0654 -0.4215
12130TIP3    H257806   1.881   2.358  14.248 -1.7736 -0.4389 -0.7934
12131TIP3   OH257807   1.775   1.164   1.056  0.3836  0.7112  0.3817
12131TIP3    H157808   1.827   1.190   1.132  0.2975 -0.8397  1.0079
12131TIP3    H257809   1.833   1.181   0.981  1.3795  0.0591  0.9780
12132TIP3   OH257810   0.358   6.739  13.965 -1.0657  0.0249  0.0531
12132TIP3    H157811   0.269   6.763  13.990 -0.8136  1.0310  0.0289
12132TIP3    H257812   0.389   6.812  13.912 -0.7856 -1.0334 -1.3302
12133TIP3   OH257813   0.956   5.948  17.023 -0.1528 -0.1390  0.0271
12133TIP3    H157814   0.995   5.909  17.102  0.9398 -1.2434 -1.0059
12133TIP3    H257815   0.901   5.878  16.988 -1.1463  0.5757  0.1446
12134TIP3   OH257816   0.068   6.476  13.329  0.0517 -0.1238  0.4143
12134TIP3    H157817   0.142   6.538  13.323  1.5877 -1.9311 -0.3258
12134TIP3    H257818  -0.009   6.532  13.339  1.1093  2.0031 -2.1533
12135TIP3   OH257819   2.619   5.384  11.274  0.0049  0.1244  0.3116
12135TIP3    H157820   2.689   5.329  11.310  1.4561  0.9729 -1.0726
12135TIP3    H257821   2.662   5.435  11.205 -1.6716  1.7692  0.4099
12136TIP3   OH257822   4.717   2.801   2.708  0.3663 -0.1801  0.0851
12136TIP3    H157823   4.706   2.724   2.652 -0.4559  1.4912 -2.2113
12136TIP3    H257824   4.644   2.796   2.770  1.2700 -2.0583  1.0475
12137TIP3   OH257825   1.792   2.170  12.080  0.3034 -0.3960  0.0610
12137TIP3    H157826   1.867   2.220  12.113  0.1001 -0.0349 -0.0207
12137TIP3    H257827   1.780   2.201  11.990 -0.6458  0.3728  0.4385
12138TIP3   OH257828   0.451   0.304   2.724 -0.3258 -0.1710  0.1811
12138TIP3    H157829   0.405   0.269   2.800 -0.5837  2.4221  1.3436
12138TIP3    H257830   0.403   0.383   2.700  2.9630  2.3361  1.0474
12139TIP3   OH257831   3.142   3.874  13.871  0.1045 -0.7801  0.4106
12139TIP3    H157832   3.083   3.947  13.855 -1.3416 -2.0147 -0.1640
12139TIP3    H257833   3.207   3.908  13.932 -0.7205  0.8678  0.4193
12140TIP3   OH257834   1.902   5.335   4.411  0.2925  0.2752  0.3119
12140TIP3    H157835   1.885   5.381   4.329  0.8171 -0.8421 -0.4508
12140TIP3    H257836   1.963   5.265   4.387 -1.0750 -1.3221  1.2463
12141TIP3   OH257837   5.475   2.705  11.893  0.2649  0.3307 -0.4124
12141TIP3    H157838   5.569   2.717  11.901  0.4314 -0.4154 -1.1671
12141TIP3    H257839   5.464   2.613  11.871 -0.5680  0.6857 -1.5637
12142TIP3   OH257840   6.319   4.818   1.598 -0.3591  0.5446 -0.0254
12142TIP3    H157841   6.336   4.768   1.678  2.1611  0.3894 -0.5708
12142TIP3    H257842   6.289   4.903   1.629 -1.4134 -0.1524  0.9902
12143TIP3   OH257843   0.233   5.723   2.076  0.0513 -0.6863 -0.0024
12143TIP3    H157844   0.233   5.723   2.172 -0.1869 -2.0426  0.0132
12143TIP3    H257845   0.198   5.809   2.052 -0.3564 -0.5185  1.1295
12144TIP3   OH257846   1.487   4.646   1.172 -0.1255 -0.2166  0.5087
12144TIP3    H157847   1.460   4.589   1.243  0.1450  0.4622  1.1674
12144TIP3    H257848   1.555   4.701   1.210 -0.6329  0.7898 -0.0085
12145TIP3   OH257849   2.647   0.844  11.095 -0.1745 -0.1121 -0.1036
12145TIP3    H157850   2.680   0.798  11.018 -1.1608 -0.1715 -0.5129
12145TIP3    H257851   2.695   0.927  11.096 -1.1036  0.4862 -1.5901
12146TIP3   OH257852   3.860   2.203   4.631  0.0173  0.1656 -0.1180
12146TIP3    H157853   3.777   2.231   4.593 -1.0627 -1.3070  1.0904
12146TIP3    H257854   3.874   2.115   4.598  1.7705  0.8050 -1.2885
12147TIP3   OH257855   5.264   0.663   1.786  0.2490 -0.1564 -0.3734
12147TIP3    H157856   5.211   0.599   1.739 -0.2205 -0.5057  0.6041
12147TIP3    H257857   5.207   0.740   1.794 -0.2904 -0.6854  1.0575
12148TIP3   OH257858   1.833   5.373   4.667 -0.8599  0.1534 -0.0773
12148TIP3    H157859   1.842   5.343   4.577 -0.7456 -0.1996  0.0508
12148TIP3    H257860   1.817   5.467   4.660 -1.2575  0.0557 -0.4840
12149TIP3   OH257861   1.668   4.610  13.393  0.0342 -0.4510  0.1633
12149TIP3    H157862   1.660   4.697  13.432  1.2020  0.4415 -1.4638
12149TIP3    H257863   1.632   4.620  13.304  1.5070 -1.2355 -0.5530
12150TIP3   OH257864   0.890   3.540  15.092  0.0200 -0.1045 -0.2399
12150TIP3    H157865   0.834   3.489  15.150 -0.5157  0.0079 -0.6579
12150TIP3    H257866   0.830   3.586  15.034  0.4345  1.6706  0.6672
12151TIP3   OH257867   1.364   0.525   0.558 -0.6554  0.2480 -0.0129
12151TIP3    H157868   1.276   0.556   0.537 -0.9401 -0.3548  0.2434
12151TIP3    H257869   1.400   0.495   0.474 -0.4626  1.0428 -0.2211
12152TIP3   OH257870   1.029   0.941  11.396 -0.5181  0.5301 -0.1511
12152TIP3    H157871   1.075   0.934  11.480  0.5283 -1.0922 -0.8061
12152TIP3    H257872   1.022   1.035  11.381  0.6308  0.8499  1.0371
12153TIP3   OH257873   6.030   1.715  14.077 -0.1472 -0.0729 -0.1870
12153TIP3    H157874   5.982   1.797  14.093 -0.8219 -0.5419  0.2499
12153TIP3    H257875   6.120   1.743  14.060 -0.1738  0.7147  0.8609
12154TIP3   OH257876   2.035   4.921   4.776  0.3909 -0.2682 -0.2864
12154TIP3    H157877   1.980   4.923   4.697 -0.4965 -2.5192  0.1834
12154TIP3    H257878   1.973   4.930   4.848  0.7506 -1.5273  0.2093
12155TIP3   OH257879   4.728   3.951  10.498  0.1015  0.0144 -0.1334
12155TIP3    H157880   4.757   3.861  10.509  2.0156  0.4797 -0.9348
12155TIP3    H257881   4.801   4.004  10.529 -0.7137  1.2972 -0.2934
12156TIP3   OH257882   0.329   5.622   1.842 -0.0466  0.2653  0.3855
12156TIP3    H157883   0.410   5.671   1.828  1.3118 -2.2697 -1.3341
12156TIP3    H257884   0.281   5.674   1.907  2.7504  2.0750  1.1911
12157TIP3   OH257885   4.682   4.233  16.087  0.6587  0.1633  0.1078
12157TIP3    H157886   4.608   4.203  16.141 -0.4974 -0.6495 -1.8158
12157TIP3    H257887   4.757   4.183  16.120 -0.6735 -2.8795 -1.1262
12158TIP3   OH257888   2.873   6.581  14.053  0.1002 -0.2132  0.2772
12158TIP3    H157889   2.891   6.492  14.021  1.1625  0.3013 -0.6406
12158TIP3    H257890   2.783   6.599  14.024  0.1049 -0.7539 -0.0951
12159TIP3   OH257891   1.734   0.712   1.373  0.5340 -0.0616 -0.2654
12159TIP3    H157892   1.726   0.731   1.279 -0.4947  0.0287 -0.1661
12159TIP3    H257893   1.771   0.791   1.410  1.7266 -0.3895 -0.7035
12160TIP3   OH257894   4.583   2.305  10.695 -0.6357 -0.6492  0.1923
12160TIP3    H157895   4.597   2.348  10.610 -0.9467 -0.4322  0.2478
12160TIP3    H257896   4.490   2.281  10.693 -0.3255 -1.9073 -0.1127
12161TIP3   OH257897   0.727   6.408  14.260  0.5986  0.5294  0.4360
12161TIP3    H157898   0.647   6.447  14.223 -0.4844 -0.1131  2.0094
12161TIP3    H257899   0.795   6.428  14.195 -1.4226 -1.8782 -2.7620
12162TIP3   OH257900   1.421   1.459   4.030 -0.2745 -0.2840  0.6446
12162TIP3    H157901   1.477   1.415   4.095  0.1792  0.2064  0.5878
12162TIP3    H257902   1.462   1.544   4.017 -1.2767  0.2549  0.9234
12163TIP3   OH257903   4.879   0.459  12.649 -0.0305 -0.5413 -0.2888
12163TIP3    H157904   4.889   0.545  12.608 -0.0439 -1.1237 -1.5705
12163TIP3    H257905   4.896   0.397  12.578  0.1481 -1.6025  0.6554
12164TIP3   OH257906   6.307   2.894  14.430  0.2853  0.2077  0.4209
12164TIP3    H157907   6.286   2.802  14.444 -1.1114  0.5184  0.4864
12164TIP3    H257908   6.372   2.914  14.498 -0.6813 -0.2920  1.5273
12165TIP3   OH257909   6.243   3.341   0.290 -0.2291 -0.1817 -0.2828
12165TIP3    H157910   6.183   3.309   0.357 -0.1955  0.5220  0.0888
12165TIP3    H257911   6.193   3.335   0.208 -0.6974  0.1071 -0.0223
12166TIP3   OH257912   4.290   4.768   3.710 -0.4284  0.1442 -0.0784
12166TIP3    H157913   4.227   4.719   3.761 -0.9669  1.2952  0.4070
12166TIP3    H257914   4.247   4.852   3.693  0.5236  0.5267 -0.7211
12167TIP3   OH257915   2.181   3.526  15.921 -0.4323 -0.4351  0.5075
12167TIP3    H157916   2.146   3.595  15.865 -1.6183 -1.9117 -0.6414
12167TIP3    H257917   2.250   3.569  15.972 -0.1548  1.2378 -1.1863
12168TIP3   OH257918   0.456   4.660  12.537  0.0998  0.1819 -0.2919
12168TIP3    H157919   0.490   4.575  12.565  1.9191  0.2451 -2.1508
12168TIP3    H257920   0.427   4.646  12.447 -1.0171  1.1769 -0.1128
12169TIP3   OH257921   1.892   6.050  10.828  0.2278  0.0963 -0.0834
12169TIP3    H157922   1.965   6.088  10.778  0.7310  0.5957  0.9936
12169TIP3    H257923   1.817   6.106  10.808  0.3331  0.0719 -0.5608
12170TIP3   OH257924   2.346   0.286   5.925 -0.4167  0.0131  0.4992
12170TIP3    H157925   2.269   0.278   5.982 -0.3529  1.7646  0.8965
12170TIP3    H257926   2.359   0.198   5.890 -2.1237 -0.5006  1.0364
12171TIP3   OH257927   4.388   4.717   4.210 -0.9210 -0.5584 -0.5886
12171TIP3    H157928   4.469   4.677   4.241 -1.0017 -0.2566  0.0217
12171TIP3    H257929   4.374   4.791   4.268 -1.8812 -0.8754 -0.3958
12172TIP3   OH257930   6.284   1.620  15.574  0.0661  0.1754  0.1259
12172TIP3    H157931   6.219   1.652  15.512  0.3149  1.1580  0.3639
12172TIP3    H257932   6.365   1.664  15.549 -0.2955  2.5000  2.5780
12173TIP3   OH257933   3.796   4.904   3.671  0.3551 -0.5951 -0.1830
12173TIP3    H157934   3.787   4.838   3.740 -0.0404 -0.6232 -0.2584
12173TIP3    H257935   3.709   4.944   3.665  0.3553 -0.6735 -0.7439
12174TIP3   OH257936   4.581   1.394  11.984 -0.1195 -0.3159 -0.2853
12174TIP3    H157937   4.595   1.300  11.977  1.5863  0.0124 -2.3596
12174TIP3    H257938   4.512   1.413  11.921 -1.5422 -0.3153  1.2049
12175TIP3   OH257939   5.297   6.599  16.284 -0.2701 -0.2443  0.0476
12175TIP3    H157940   5.278   6.505  16.290 -0.1944 -0.2509  0.2123
12175TIP3    H257941   5.393   6.603  16.288 -0.3075 -0.0906  1.1681
12176TIP3   OH257942   2.543   2.225   5.347  0.2211  0.2042  0.1965
12176TIP3    H157943   2.534   2.296   5.284 -0.1596  1.1258  1.2614
12176TIP3    H257944   2.458   2.220   5.390  0.8805  0.5564  1.6151
12177TIP3   OH257945   2.973   5.943   2.649  0.0277  0.0019 -0.0879
12177TIP3    H157946   2.955   5.903   2.564 -0.1831  0.6447 -0.3529
12177TIP3    H257947   3.009   6.029   2.628 -0.5856  0.4022  0.4763
12178TIP3   OH257948   0.840   3.085   5.016  0.5689  0.1938 -0.2064
12178TIP3    H157949   0.858   2.999   4.979 -3.4409 -1.2793  0.6714
12178TIP3    H257950   0.818   3.140   4.940 -0.3466 -0.6392 -0.5642
12179TIP3   OH257951   5.905   5.510  17.265  0.0806  0.1507 -0.3745
12179TIP3    H157952   5.815   5.505  17.233 -0.6588  0.9102  1.3950
12179TIP3    H257953   5.942   5.586  17.220 -0.9239  1.1972  0.4916
12180TIP3   OH257954   3.930   1.117  11.503 -0.1441 -0.0958  0.1528
12180TIP3    H157955   3.971   1.097  11.419 -0.3283 -1.4617  0.3505
12180TIP3    H257956   3.838   1.094  11.490 -0.7115  2.1046 -0.0209
12181TIP3   OH257957   5.373   3.044   1.811  0.5244 -0.0985 -0.0563
12181TIP3    H157958   5.436   2.972   1.815 -0.6549 -1.1125  1.5731
12181TIP3    H257959   5.419   3.119   1.846  0.1722 -1.4394  3.7776
12182TIP3   OH257960   5.700   5.414  16.405 -0.0772  0.9875  0.1009
12182TIP3    H157961   5.731   5.494  16.448  2.1990  0.0156  0.3445
12182TIP3    H257962   5.747   5.412  16.321 -1.6626  0.9165 -0.8315
12183TIP3   OH257963   1.116   6.307  11.740 -0.2041  0.7467 -0.3444
12183TIP3    H157964   1.060   6.237  11.707  0.7325 -0.1063 -0.1601
12183TIP3    H257965   1.116   6.372  11.670 -0.0261 -0.0367 -1.0905
12184TIP3   OH257966   0.219   1.066  11.631 -0.0636 -0.2326 -0.1458
12184TIP3    H157967   0.148   1.088  11.571  1.1588  0.3831 -1.4458
12184TIP3    H257968   0.198   1.112  11.712 -1.3410 -0.3914 -0.3754
12185TIP3   OH257969   4.073   4.828   2.850  0.2463 -0.0723 -0.2338
12185TIP3    H157970   4.019   4.879   2.910  1.2566 -0.6260  1.2120
12185TIP3    H257971   4.025   4.746   2.838  0.1821 -0.0820  0.0785
12186TIP3   OH257972   2.206   5.716  15.399 -0.0067  0.5843 -0.0883
12186TIP3    H157973   2.211   5.621  15.413 -0.1507  0.7891  1.5270
12186TIP3    H257974   2.118   5.740  15.429  0.8078  1.5286  1.6409
12187TIP3   OH257975   4.067   1.454   3.635  0.1155  0.3761  0.2190
12187TIP3    H157976   4.045   1.396   3.563  1.6888 -0.6813  0.5379
12187TIP3    H257977   4.101   1.533   3.592  2.9087 -0.9682 -0.3328
12188TIP3   OH257978   4.536   6.553  15.660  0.1017 -0.3091  0.3963
12188TIP3    H157979   4.615   6.548  15.607  0.6672 -2.6277  1.3607
12188TIP3    H257980   4.567   6.574  15.748 -0.6322  1.3062  0.3080
12189TIP3   OH257981   2.701   4.302   4.928  0.6507  0.2949 -0.0376
12189TIP3    H157982   2.686   4.281   4.835 -1.7836 -0.1278  0.3631
12189TIP3    H257983   2.663   4.227   4.975  0.8272  1.0247  1.3094
12190TIP3   OH257984   5.389   6.658  15.050  0.0438  0.9162  0.1222
12190TIP3    H157985   5.401   6.566  15.076  0.3557  1.1587  0.8787
12190TIP3    H257986   5.409   6.707  15.130 -1.5720  1.5747  0.1415
12191TIP3   OH257987   3.839   1.905  11.473 -0.2079  0.3331 -0.2893
12191TIP3    H157988   3.787   1.982  11.498  0.0583  0.8337 -1.2389
12191TIP3    H257989   3.918   1.941  11.432 -1.7078 -0.3867 -4.1972
12192TIP3   OH257990   6.407   3.586  14.056 -0.5679 -0.0906  0.3999
12192TIP3    H157991   6.320   3.593  14.095 -0.9726  0.8313 -0.6263
12192TIP3    H257992   6.391   3.559  13.966  0.2992 -1.2731  0.5708
12193TIP3   OH257993   4.791   0.223  14.233  0.1872 -0.5441  0.2095
12193TIP3    H157994   4.886   0.223  14.239  0.2452 -1.3357 -0.5428
12193TIP3    H257995   4.767   0.316  14.231  0.9148 -0.3395  0.7299
12194TIP3   OH257996   3.030   0.596   6.311 -0.8300  0.1260 -0.1594
12194TIP3    H157997   2.982   0.658   6.256 -0.5583  0.8791  0.4342
12194TIP3    H257998   3.054   0.646   6.389 -1.2638 -0.9334  0.6839
12195TIP3   OH257999   2.985   2.026  11.655 -0.2278  0.0210  0.3466
12195TIP3    H158000   2.906   2.051  11.607 -1.4782 -1.1782  1.6943
12195TIP3    H258001   3.005   1.937  11.625  0.2134  0.0654  0.5006
12196TIP3   OH258002   3.760   0.325   6.776  0.4457  0.6524 -0.0256
12196TIP3    H158003   3.721   0.271   6.844  0.8575  0.2439 -0.1089
12196TIP3    H258004   3.815   0.265   6.726 -0.7693  0.6897 -1.4534
12197TIP3   OH258005   4.707   3.500  11.460 -0.1920 -0.0070 -0.2273
12197TIP3    H158006   4.697   3.406  11.475  0.2274  0.0464  0.4227
12197TIP3    H258007   4.674   3.540  11.541  1.5551  0.3238  0.3490
12198TIP3   OH258008   3.200   6.362   4.563  0.6427 -0.6212  0.2208
12198TIP3    H158009   3.277   6.346   4.509  0.4135 -1.2766  0.0816
12198TIP3    H258010   3.231   6.420   4.632  0.8333  0.6113 -0.8568
12199TIP3   OH258011   4.734   6.244   5.373 -0.3916 -0.7525 -0.4985
12199TIP3    H158012   4.644   6.262   5.399 -0.9029  1.8599 -3.5292
12199TIP3    H258013   4.785   6.315   5.411 -0.2663 -0.0807 -1.8703
12200TIP3   OH258014   6.696   2.160   6.240 -0.2077 -0.0672 -0.6333
12200TIP3    H158015   6.621   2.216   6.256 -0.2617 -0.4105  0.3495
12200TIP3    H258016   6.662   2.071   6.248  0.8665 -0.3016  3.0147
12201TIP3   OH258017   1.921   6.185  16.555 -0.1870  0.0430  0.1764
12201TIP3    H158018   1.952   6.258  16.608 -1.2771  0.1508  0.7018
12201TIP3    H258019   1.985   6.177  16.485 -1.9716  4.0373 -2.2450
12202TIP3   OH258020   5.534   6.550   1.760 -0.4075  0.0406 -0.4247
12202TIP3    H158021   5.461   6.490   1.747 -0.5482 -1.2040  4.2199
12202TIP3    H258022   5.612   6.497   1.744 -0.5625 -0.6799  1.0363
12203TIP3   OH258023   6.159   5.495   1.321  0.2455 -0.2087 -0.8034
12203TIP3    H158024   6.112   5.524   1.243 -0.4945 -0.0752 -0.3167
12203TIP3    H258025   6.206   5.572   1.351 -1.7182  0.5782  0.4909
12204TIP3   OH258026   0.020   0.766   1.087  0.1044  0.3052  0.6028
12204TIP3    H158027   0.077   0.693   1.063 -0.6035 -0.7093  1.8488
12204TIP3    H258028   0.060   0.803   1.166 -0.2836  0.3618  0.7778
12205TIP3   OH258029   3.980   1.063   5.737 -0.0707  0.2225  0.4140
12205TIP3    H158030   4.067   1.103   5.747  0.4462 -0.2865 -1.5804
12205TIP3    H258031   3.937   1.117   5.670 -1.1324  0.1959  1.0599
12206TIP3   OH258032   3.122   1.552  16.629 -0.3615  0.1815  0.1482
12206TIP3    H158033   3.206   1.509  16.618 -1.2249 -1.1954 -1.5567
12206TIP3    H258034   3.119   1.576  16.722  1.4794 -0.5923  0.4480
12207TIP3   OH258035   3.277   2.793   3.222  0.3584  0.0920  0.1641
12207TIP3    H158036   3.352   2.836   3.182 -0.4639 -0.8368 -2.6030
12207TIP3    H258037   3.299   2.700   3.220 -1.3037 -0.3424 -1.9744
12208TIP3   OH258038   3.116   5.744  10.200  0.2873 -0.3308  0.8592
12208TIP3    H158039   3.159   5.827  10.219  0.7918 -0.7317  1.5514
12208TIP3    H258040   3.188   5.683  10.181 -0.1260 -0.4007 -0.5308
12209TIP3   OH258041   4.185   2.918   4.403  0.6931  0.0951  0.2186
12209TIP3    H158042   4.162   3.009   4.422  2.5057  0.5105  0.5650
12209TIP3    H258043   4.187   2.914   4.307 -0.0038  0.2433  0.1912
12210TIP3   OH258044   6.001   6.258  14.385  0.1602  0.2586 -0.1264
12210TIP3    H158045   6.057   6.224  14.315  0.3267 -1.9960  1.0211
12210TIP3    H258046   6.015   6.352  14.383  0.2206  0.2825 -3.0595
12211TIP3   OH258047   3.501   1.304  14.850 -0.6379  0.1484 -0.6447
12211TIP3    H158048   3.428   1.269  14.902  0.3875  1.4106  1.7772
12211TIP3    H258049   3.506   1.396  14.874  0.5887  0.5324 -2.2254
12212TIP3   OH258050   1.685   5.551  14.092  0.1688  0.4143  0.1880
12212TIP3    H158051   1.769   5.517  14.123  0.2029  0.3852  0.0657
12212TIP3    H258052   1.658   5.614  14.159 -0.2718 -0.4244  0.8097
12213TIP3   OH258053   6.152   1.970  14.582 -0.0842 -0.0701  0.2261
12213TIP3    H158054   6.077   2.029  14.576 -0.5194 -0.5812  0.5539
12213TIP3    H258055   6.136   1.919  14.661  1.7679  1.3860  1.6258
12214TIP3   OH258056   0.553   5.555  11.752 -0.3015 -0.1819  0.4932
12214TIP3    H158057   0.498   5.483  11.721 -0.8259  0.4644 -0.1195
12214TIP3    H258058   0.523   5.631  11.702  0.4007  0.4151  0.9592
12215TIP3   OH258059   2.310   3.755   6.756 -0.2106 -0.2635  0.0585
12215TIP3    H158060   2.229   3.806   6.759 -1.0662 -1.4236 -1.4819
12215TIP3    H258061   2.281   3.667   6.732  1.4086 -0.9947  0.6706
12216TIP3   OH258062   5.752   3.570  11.559 -0.5857 -0.5974 -0.0711
12216TIP3    H158063   5.773   3.484  11.596  0.0607  0.0009  0.9865
12216TIP3    H258064   5.801   3.572  11.476 -0.6801 -1.2718 -0.1547
12217TIP3   OH258065   2.890   2.911  12.775 -0.1369  0.4318  0.2828
12217TIP3    H158066   2.943   2.985  12.746  0.3452 -0.1252 -0.2645
12217TIP3    H258067   2.802   2.930  12.740  0.3295 -0.0026 -1.1797
12218TIP3   OH258068   3.657   4.874  14.240  0.2572 -0.4674  0.1478
12218TIP3    H158069   3.730   4.856  14.299 -1.5168  0.8633  2.9563
12218TIP3    H258070   3.676   4.960  14.204  1.2867 -1.2347 -1.2591
12219TIP3   OH258071   1.106   0.187  13.687 -0.4401 -1.0217  0.3228
12219TIP3    H158072   1.084   0.278  13.708 -1.5455 -1.0984 -0.3876
12219TIP3    H258073   1.042   0.136  13.736  0.6887 -1.4722  1.3596
12220TIP3   OH258074   6.598   1.852  11.178 -0.3303  0.8009  0.2551
12220TIP3    H158075   6.688   1.874  11.202 -0.5519  1.9621  0.0488
12220TIP3    H258076   6.591   1.876  11.086 -1.0280  1.2826  0.4283
12221TIP3   OH258077   4.089   4.386   5.152  0.5110 -0.0714 -0.1397
12221TIP3    H158078   4.013   4.327   5.159  1.6378 -1.5131  0.3098
12221TIP3    H258079   4.121   4.373   5.063  0.8987 -0.3204  0.0344
12222TIP3   OH258080   0.717   2.943  12.992  0.0971  0.2977  0.4211
12222TIP3    H158081   0.762   3.020  12.956 -0.1969 -0.0280 -0.7050
12222TIP3    H258082   0.674   2.975  13.071  0.4718  1.1466  0.2928
12223TIP3   OH258083   6.072   4.509   5.107 -0.4076 -0.6777  0.0602
12223TIP3    H158084   6.041   4.583   5.054  0.1710 -1.3523 -1.2821
12223TIP3    H258085   6.137   4.466   5.051 -0.2077 -1.7734  1.1094
12224TIP3   OH258086   5.726   4.991  14.165  0.2905  0.2125  0.3437
12224TIP3    H158087   5.634   5.017  14.170 -0.0327  0.0403 -2.5993
12224TIP3    H258088   5.731   4.909  14.215 -1.3163 -0.0854  0.0714
12225TIP3   OH258089   1.658   1.470  13.252 -0.0363  0.2203 -0.7160
12225TIP3    H158090   1.580   1.487  13.306 -1.5942 -0.3501 -2.6488
12225TIP3    H258091   1.657   1.375  13.239  0.7793  0.2569 -1.0761
12226TIP3   OH258092   0.722   1.533  13.276  0.2661  0.1964  0.4729
12226TIP3    H158093   0.712   1.544  13.181  0.0822 -0.1572  0.4519
12226TIP3    H258094   0.635   1.509  13.307  0.3818  0.0616  0.6975
12227TIP3   OH258095   5.131   2.460  11.857  0.2001 -0.8384 -0.4080
12227TIP3    H158096   5.048   2.421  11.830 -0.5150 -1.2296  2.1066
12227TIP3    H258097   5.110   2.509  11.936  2.2493 -0.3588 -0.1058
12228TIP3   OH258098   1.354   5.531  16.936 -0.3705 -0.4576 -0.2564
12228TIP3    H158099   1.325   5.619  16.958  0.1885 -0.4729  0.6108
12228TIP3    H258100   1.429   5.544  16.877  0.9809 -0.2700  1.4319
12229TIP3   OH258101   2.342   3.096  17.070 -0.2873 -0.2565 -0.3450
12229TIP3    H158102   2.339   3.187  17.042 -0.3552  0.6995  2.4207
12229TIP3    H258103   2.278   3.091  17.142 -1.6603 -2.9816 -1.6131
12230TIP3   OH258104   0.417   0.159   0.648 -0.3656 -0.3862 -0.1315
12230TIP3    H158105   0.425   0.107   0.568 -0.9342 -0.5773 -0.0655
12230TIP3    H258106   0.344   0.120   0.695 -2.6903  2.1229 -1.3553
12231TIP3   OH258107   0.806   2.574  11.660 -0.4835 -0.0895  0.0745
12231TIP3    H158108   0.728   2.544  11.706  0.5158 -1.6351  0.8641
12231TIP3    H258109   0.879   2.540  11.712  0.8015  3.0864  0.5339
12232TIP3   OH258110   1.157   2.157   4.603  0.4782  0.0042 -0.6469
12232TIP3    H158111   1.103   2.232   4.581 -1.1084 -0.8339  0.2504
12232TIP3    H258112   1.128   2.088   4.542  1.2717 -0.1612 -0.8495
12233TIP3   OH258113   1.835   4.146   5.105 -0.1344 -0.0334  0.2963
12233TIP3    H158114   1.744   4.155   5.134 -0.7532  0.2785 -1.6354
12233TIP3    H258115   1.873   4.233   5.116  0.8942 -0.7607  3.8803
12234TIP3   OH258116   5.629   3.414   6.509 -0.1980 -0.4838 -0.0017
12234TIP3    H158117   5.651   3.409   6.602  0.2189  1.9612  0.1025
12234TIP3    H258118   5.555   3.355   6.498 -0.6426 -0.3577  2.0037
12235TIP3   OH258119   5.496   4.652   5.296  0.2168 -0.1606 -0.0066
12235TIP3    H158120   5.552   4.725   5.269  0.5530 -1.1274 -2.0618
12235TIP3    H258121   5.468   4.676   5.385  1.3156  1.8526 -0.1353
12236TIP3   OH258122   4.176   2.303   3.072  0.0594  0.5352 -0.4178
12236TIP3    H158123   4.146   2.265   3.155 -2.3484 -0.3570 -1.5880
12236TIP3    H258124   4.239   2.239   3.038  2.1755  1.5873  1.2927
12237TIP3   OH258125   1.943   1.702  14.490  0.5778 -0.6353  0.1720
12237TIP3    H158126   1.965   1.741  14.574  0.9040 -2.2792  0.8988
12237TIP3    H258127   1.893   1.623  14.513  1.7443 -1.7941 -1.1035
12238TIP3   OH258128   3.494   1.186   0.072 -0.2444 -0.1188 -0.3059
12238TIP3    H158129   3.550   1.126   0.121 -0.0940  0.4317  0.1924
12238TIP3    H258130   3.450   1.239   0.138 -0.1699  0.5123 -0.7526
12239TIP3   OH258131   2.613   3.612   2.308 -0.5061 -0.0403  0.1617
12239TIP3    H158132   2.551   3.624   2.380 -0.6010  1.2598 -0.1240
12239TIP3    H258133   2.562   3.628   2.229 -0.5689 -2.1211 -0.2776
12240TIP3   OH258134   3.490   2.766  16.084  0.4087  0.6147 -0.2418
12240TIP3    H158135   3.504   2.687  16.032  1.6185  1.6245 -1.5528
12240TIP3    H258136   3.401   2.793  16.063 -0.7880 -1.4579  1.8034
12241TIP3   OH258137   2.867   2.685  13.423  0.4305 -0.7178  0.0173
12241TIP3    H158138   2.798   2.737  13.382  0.3591 -1.2676 -0.5667
12241TIP3    H258139   2.877   2.609  13.366  0.8220 -1.1398  0.6426
12242TIP3   OH258140   0.481   4.346  13.623  0.2079  0.6324  0.2489
12242TIP3    H158141   0.449   4.433  13.646  0.5675  0.5688  1.0105
12242TIP3    H258142   0.520   4.313  13.703 -1.7772 -1.1029  0.5889
12243TIP3   OH258143   4.268   2.021   4.508 -0.4627  0.4012 -0.0797
12243TIP3    H158144   4.284   1.980   4.593 -3.2643  2.3468  1.5383
12243TIP3    H258145   4.228   1.952   4.455  1.8254 -0.9955 -0.1287
12244TIP3   OH258146   0.633   4.025   6.768  0.3110  0.6446 -0.3180
12244TIP3    H158147   0.704   3.972   6.731 -0.6095  0.4566 -1.8887
12244TIP3    H258148   0.634   4.004   6.862  1.3565 -0.4811 -0.5540
12245TIP3   OH258149   0.661   4.722   0.803  0.4873  0.1459  0.3924
12245TIP3    H158150   0.756   4.715   0.811  0.5274 -0.0283 -0.1758
12245TIP3    H258151   0.643   4.816   0.813  0.8365  0.3285 -0.5926
12246TIP3   OH258152   1.535   4.393  14.311  0.8783 -0.2616 -0.4736
12246TIP3    H158153   1.545   4.451  14.387 -0.4137  0.6616 -0.9795
12246TIP3    H258154   1.574   4.310  14.339  0.1124 -0.0537  1.3199
12247TIP3   OH258155   5.879   1.933  16.892 -0.0728  0.1108  0.4684
12247TIP3    H158156   5.824   1.980  16.954 -1.2804  1.9277 -1.8638
12247TIP3    H258157   5.847   1.959  16.806  2.8631 -0.6897 -0.9888
12248TIP3   OH258158   1.436   2.767   2.110 -0.2089  0.1065  0.6817
12248TIP3    H158159   1.499   2.735   2.046  0.4201  0.8387  0.9334
12248TIP3    H258160   1.354   2.722   2.087 -0.2307  1.0091 -1.1822
12249TIP3   OH258161   4.757   4.697   2.304  0.1251  0.3088  0.4862
12249TIP3    H158162   4.845   4.727   2.325 -0.3016  0.5213  2.1328
12249TIP3    H258163   4.761   4.602   2.315  0.2466  0.2817  0.1968
12250TIP3   OH258164   6.492   3.571   3.552  0.2309 -0.7225  0.0056
12250TIP3    H158165   6.530   3.484   3.569  2.3732  0.3737  1.2469
12250TIP3    H258166   6.557   3.615   3.497 -1.1645 -0.0918 -1.2069
12251TIP3   OH258167   6.285   1.248  13.512 -0.3095  0.0026  0.0316
12251TIP3    H158168   6.346   1.207  13.449 -1.8380  1.0774 -2.2832
12251TIP3    H258169   6.260   1.330  13.470 -1.4152  0.7770  2.1073
12252TIP3   OH258170   3.877   6.756   0.063  0.0898 -0.1132 -0.1216
12252TIP3    H158171   3.842   6.711   0.141  0.7492 -1.3246 -0.5122
12252TIP3    H258172   3.897   6.686   0.001 -0.2679  0.8269 -1.3405
12253TIP3   OH258173   1.671   3.499  15.913  0.1919 -0.2356 -0.2963
12253TIP3    H158174   1.672   3.546  15.830  0.0780  1.8503  0.8258
12253TIP3    H258175   1.667   3.567  15.980  0.4737 -1.8379  1.4510
12254TIP3   OH258176   3.392   3.319  13.421  0.1661  0.2419 -0.0031
12254TIP3    H158177   3.402   3.272  13.504  1.3146 -0.8167 -0.6970
12254TIP3    H258178   3.353   3.255  13.362 -2.2589  1.5019  0.1164
12255TIP3   OH258179   4.695   3.189   6.259 -0.3817 -0.1944  0.2741
12255TIP3    H158180   4.742   3.238   6.192 -0.8689 -0.8884 -0.6066
12255TIP3    H258181   4.667   3.255   6.323  2.0272  0.1913  1.0046
12256TIP3   OH258182   3.237   4.351  14.251 -0.3198  0.0824  0.1009
12256TIP3    H158183   3.179   4.408  14.202 -0.4802  2.5245  2.8678
12256TIP3    H258184   3.324   4.370  14.218 -0.6933 -0.8221 -1.4811
12257TIP3   OH258185   2.368   6.383   4.734  0.0522  0.0662  0.0527
12257TIP3    H158186   2.343   6.466   4.773 -1.8455 -0.3752 -0.1474
12257TIP3    H258187   2.416   6.407   4.655  1.3091  0.9422  1.0227
12258TIP3   OH258188   1.400   2.221   1.635  0.0589 -0.2830  0.7872
12258TIP3    H158189   1.369   2.309   1.655  0.7584 -0.0579  0.9096
12258TIP3    H258190   1.344   2.191   1.564  0.9804  0.9696 -0.5210
12259TIP3   OH258191   6.520   1.246  16.159 -0.9220  0.3557  0.3412
12259TIP3    H158192   6.533   1.242  16.064  0.5379  1.1216  0.4731
12259TIP3    H258193   6.429   1.273  16.170 -1.7616 -1.7664 -0.7872
12260TIP3   OH258194   0.016   2.049   0.521 -0.3211  0.1055 -0.1943
12260TIP3    H158195   0.047   2.101   0.595  0.9688 -1.1594  0.1912
12260TIP3    H258196   0.010   2.112   0.448  1.0698  0.8205  0.2858
12261TIP3   OH258197   6.103   1.025   4.504 -0.0561  0.3349 -0.4436
12261TIP3    H158198   6.063   0.970   4.572 -0.0199  0.5649 -0.2383
12261TIP3    H258199   6.038   1.094   4.488  0.0639  0.4511 -0.4304
12262TIP3   OH258200   5.150   0.849  13.136  0.1056 -0.3210 -0.2445
12262TIP3    H158201   5.168   0.756  13.153  0.0592 -0.6603 -1.8887
12262TIP3    H258202   5.111   0.881  13.217  1.7651 -1.2780  0.9846
12263TIP3   OH258203   1.171   3.318  13.255  0.5469  0.4990 -0.0225
12263TIP3    H158204   1.128   3.340  13.173  1.2739  0.4180 -0.4390
12263TIP3    H258205   1.101   3.288  13.312  0.0707  0.2758 -0.7142
12264TIP3   OH258206   5.453   5.602  11.279 -0.0331  0.0928 -0.0583
12264TIP3    H158207   5.387   5.626  11.214 -0.5422 -1.8467 -0.3125
12264TIP3    H258208   5.479   5.513  11.256 -0.3262 -0.7176  2.4435
12265TIP3   OH258209   2.740   0.631   6.448  0.3838 -0.2883  0.4949
12265TIP3    H158210   2.660   0.675   6.477 -0.6522 -0.7401 -1.4682
12265TIP3    H258211   2.722   0.537   6.460  1.1947 -0.3545  1.3386
12266TIP3   OH258212   1.103   6.728  14.837 -0.1103  0.0715  0.0967
12266TIP3    H158213   1.113   6.821  14.853 -0.3891  0.3491 -1.2185
12266TIP3    H258214   1.106   6.719  14.741 -0.1212 -1.2585  0.1910
12267TIP3   OH258215   3.073   6.536   3.382 -0.3898  0.0121  0.6787
12267TIP3    H158216   2.984   6.512   3.357  0.4556  0.8754 -4.0145
12267TIP3    H258217   3.085   6.625   3.347  2.3928 -0.2016  0.8410
12268TIP3   OH258218   3.688   6.485   5.423 -0.7220  0.2399  0.6311
12268TIP3    H158219   3.707   6.553   5.358 -2.1661 -0.5749 -0.6967
12268TIP3    H258220   3.698   6.529   5.507 -0.0311  1.6541 -0.1504
12269TIP3   OH258221   5.033   1.740  10.848 -0.3284 -0.4579 -0.0950
12269TIP3    H158222   4.978   1.817  10.842  1.8677  1.3705  1.4156
12269TIP3    H258223   5.076   1.734  10.762 -1.2107 -0.6263 -0.5403
12270TIP3   OH258224   5.397   2.092   0.646 -0.1546 -0.3063 -0.1087
12270TIP3    H158225   5.344   2.150   0.591 -0.8072 -0.4320  0.3815
12270TIP3    H258226   5.343   2.075   0.723  1.2589  0.8927  1.1948
12271TIP3   OH258227   4.547   1.518   5.361  0.5821  0.1901  0.1578
12271TIP3    H158228   4.605   1.577   5.312  0.3858  0.1037 -0.1814
12271TIP3    H258229   4.604   1.447   5.390  0.4834 -0.3512 -0.9259
12272TIP3   OH258230   6.050   2.918   1.371 -0.0254  0.0928  0.3001
12272TIP3    H158231   6.090   2.905   1.285 -0.4088  0.8627 -0.0022
12272TIP3    H258232   6.025   3.010   1.372  0.2434  0.1632  1.3580
12273TIP3   OH258233   2.431   2.876  14.149 -0.0755 -0.7069 -0.1572
12273TIP3    H158234   2.431   2.862  14.054 -0.3054  0.7405 -0.3820
12273TIP3    H258235   2.523   2.886  14.171 -0.0214 -1.0433 -0.2118
12274TIP3   OH258236   4.827   5.347   3.615 -0.1281  0.4919  0.1319
12274TIP3    H158237   4.823   5.278   3.682  0.9909 -0.4625 -0.7464
12274TIP3    H258238   4.860   5.424   3.662  0.1896 -0.0312  0.7826
12275TIP3   OH258239   0.985   0.941   4.366  0.2610  0.1830  1.1457
12275TIP3    H158240   0.962   0.904   4.281 -0.9206  1.7356  0.7278
12275TIP3    H258241   1.077   0.919   4.379  0.4077 -0.2298 -0.4563
12276TIP3   OH258242   3.935   0.656  12.119  0.2169 -0.2635  0.3890
12276TIP3    H158243   3.978   0.716  12.181 -0.4084  0.1333  0.4462
12276TIP3    H258244   3.985   0.575  12.126  1.1247  0.2770  0.2467
12277TIP3   OH258245   2.884   0.629  17.333  0.3499  0.7074 -0.2013
12277TIP3    H158246   2.935   0.570  17.389 -0.0621 -0.5449 -1.1277
12277TIP3    H258247   2.949   0.665  17.272  0.5815  1.1658  0.2998
12278TIP3   OH258248   0.818   5.987   4.456 -0.1995 -0.6185  0.1337
12278TIP3    H158249   0.752   5.919   4.471 -1.5895  1.0811  2.5054
12278TIP3    H258250   0.789   6.033   4.377  0.8323 -2.7377 -1.5764
12279TIP3   OH258251   0.662   6.635   5.314 -0.2404  0.0239  0.3556
12279TIP3    H158252   0.689   6.601   5.228 -0.9655  0.0536  0.1079
12279TIP3    H258253   0.685   6.565   5.375  0.8284  0.2449  0.2296
12280TIP3   OH258254   4.685   1.589  13.718 -0.1430 -0.3003 -0.1348
12280TIP3    H158255   4.769   1.544  13.720  0.7588  1.2209 -1.7866
12280TIP3    H258256   4.624   1.525  13.680  0.7477 -0.6655 -0.9678
12281TIP3   OH258257   1.334   4.634  16.709  0.2882  0.2573 -0.1324
12281TIP3    H158258   1.249   4.674  16.726 -0.7343 -1.4772 -0.9135
12281TIP3    H258259   1.349   4.647  16.616  0.6002  0.0351 -0.1150
12282TIP3   OH258260   3.432   2.541   3.229 -0.0825 -0.3848 -0.6570
12282TIP3    H158261   3.467   2.459   3.263  0.0078  0.1571  0.6109
12282TIP3    H258262   3.442   2.534   3.134  5.5643  0.5832 -0.4641
12283TIP3   OH258263   0.930   5.875   0.600 -0.2274  0.2901 -0.1195
12283TIP3    H158264   0.961   5.801   0.653 -0.3418  0.1736 -0.2171
12283TIP3    H258265   1.010   5.922   0.577 -0.0808 -0.2477 -0.7289
12284TIP3   OH258266   0.829   3.280   1.151  0.2811  0.3976  0.5230
12284TIP3    H158267   0.905   3.227   1.175  0.3375  0.2582  0.0310
12284TIP3    H258268   0.796   3.312   1.235  0.5213 -0.0354  0.7877
12285TIP3   OH258269   2.762   5.892  14.986 -0.6193  0.2593 -0.5958
12285TIP3    H158270   2.846   5.932  14.964 -1.1584  1.0007 -1.3901
12285TIP3    H258271   2.697   5.961  14.968 -1.6149 -1.0670 -2.4221
12286TIP3   OH258272   5.120   0.074  16.049  0.0701 -0.1067  0.0134
12286TIP3    H158273   5.103   0.159  16.009  0.6232  0.2170  0.4439
12286TIP3    H258274   5.084   0.081  16.137 -1.0530 -0.7790 -0.3779
12287TIP3   OH258275   5.947   1.105  17.260  0.7169  0.4094 -0.3010
12287TIP3    H158276   5.994   1.071  17.336  0.3457  2.1323  0.7550
12287TIP3    H258277   5.855   1.087  17.279  0.5088  1.8940  0.2889
12288TIP3   OH258278   0.107   4.545  16.160  0.3508  0.2778 -0.2953
12288TIP3    H158279   0.103   4.459  16.202  0.7475 -1.1003 -2.8702
12288TIP3    H258280   0.107   4.526  16.066  0.8888  3.0959 -0.9616
12289TIP3   OH258281   4.051   1.069   2.734 -0.6321  0.2330 -0.1215
12289TIP3    H158282   4.084   1.111   2.813 -0.7765 -0.5546  0.3714
12289TIP3    H258283   3.977   1.015   2.763  0.9506 -2.1894 -0.2842
12290TIP3   OH258284   1.203   3.107   5.474  0.1734 -0.6692 -0.3694
12290TIP3    H158285   1.126   3.111   5.531  0.0637  0.6948 -0.5681
12290TIP3    H258286   1.247   3.191   5.487  1.5187 -1.3287 -0.4396
12291TIP3   OH258287   6.715   4.308   2.550  0.9243  0.6843  0.2856
12291TIP3    H158288   6.632   4.345   2.580 -0.1387 -0.4681 -1.0865
12291TIP3    H258289   6.727   4.229   2.603  0.1071 -0.2170 -0.8254
12292TIP3   OH258290   3.152   0.163   4.075  0.1429 -0.2979  0.0980
12292TIP3    H158291   3.066   0.147   4.035  0.4908  2.0105 -1.8146
12292TIP3    H258292   3.215   0.145   4.004  0.9245  1.9194  0.1428
12293TIP3   OH258293   4.305   4.983   1.037  0.0215 -0.0591 -0.9707
12293TIP3    H158294   4.341   4.908   0.989  0.8159 -0.2083 -0.1798
12293TIP3    H258295   4.234   5.015   0.982  0.6702 -0.4421 -2.0737
12294TIP3   OH258296   0.062   4.481   2.779  0.5196 -0.1734  0.2055
12294TIP3    H158297  -0.015   4.449   2.826 -0.9163  1.1972 -1.1159
12294TIP3    H258298   0.065   4.429   2.699  1.4089 -0.6989  0.5648
12295TIP3   OH258299   6.109   4.523  13.085  0.5803 -0.3418  0.0649
12295TIP3    H158300   6.174   4.594  13.088 -0.8145  0.9399  1.9733
12295TIP3    H258301   6.129   4.476  13.004  2.5723  1.2528 -0.4486
12296TIP3   OH258302   6.194   3.270   0.736 -0.4507 -0.0965  0.3010
12296TIP3    H158303   6.235   3.245   0.819 -0.1304 -0.4943  0.0271
12296TIP3    H258304   6.242   3.348   0.708 -0.6287  0.1026  0.5350
12297TIP3   OH258305   6.326   4.604   0.645 -0.1979  0.2679  0.0913
12297TIP3    H158306   6.264   4.652   0.589 -2.1827 -0.9150  1.1741
12297TIP3    H258307   6.304   4.512   0.631 -0.6183 -0.0756  2.5817
12298TIP3   OH258308   0.139   2.110  14.901  0.1341  0.0243 -0.0162
12298TIP3    H158309   0.172   2.069  14.821  1.4927  1.0286 -0.0201
12298TIP3    H258310   0.165   2.050  14.971  1.1242  0.3011 -0.1241
12299TIP3   OH258311   3.433   2.897   5.780  0.3419 -0.4471  0.3454
12299TIP3    H158312   3.442   2.893   5.685 -0.6769 -0.6298  0.2456
12299TIP3    H258313   3.522   2.887   5.813  0.6796 -0.5846 -0.5818
12300TIP3   OH258314   0.051   5.746  13.673  0.0021 -0.0733 -0.8031
12300TIP3    H158315   0.125   5.752  13.733  0.0828  0.5187 -0.9533
12300TIP3    H258316  -0.024   5.730  13.730 -0.0507  1.3062 -0.4390
12301TIP3   OH258317   3.189   4.073  16.744  0.5499  0.5481  0.5264
12301TIP3    H158318   3.142   4.037  16.819  1.4059 -0.5226  0.5800
12301TIP3    H258319   3.156   4.024  16.669  0.1799  1.1558  0.2814
12302TIP3   OH258320   4.020   2.924   2.656 -0.8560 -0.2400  0.6176
12302TIP3    H158321   3.970   2.844   2.640  1.0542 -1.2190 -0.7848
12302TIP3    H258322   4.084   2.927   2.585  0.3330  1.5611  1.6979
12303TIP3   OH258323   2.317   0.416  15.222  0.4480  0.0153 -0.2305
12303TIP3    H158324   2.354   0.430  15.135 -0.8371  0.7208 -0.6875
12303TIP3    H258325   2.282   0.327  15.219 -0.2595  0.3004 -0.7025
12304TIP3   OH258326   6.373   0.283  14.662  0.4885  0.1035  0.1021
12304TIP3    H158327   6.290   0.239  14.678  1.0508 -1.3838 -0.8818
12304TIP3    H258328   6.348   0.370  14.631 -0.7522 -0.7221 -1.3609
12305TIP3   OH258329   6.335   3.424   3.243 -0.7875  0.2775  0.7484
12305TIP3    H158330   6.287   3.341   3.244 -1.0311  0.4178  1.3887
12305TIP3    H258331   6.425   3.400   3.264 -1.1572  0.3350  2.5221
12306TIP3   OH258332   5.060   2.345   3.522 -0.3847  0.1011  0.0102
12306TIP3    H158333   4.995   2.310   3.461  0.8421 -1.1333 -0.6278
12306TIP3    H258334   5.053   2.290   3.600 -0.8824  0.7072  0.4084
12307TIP3   OH258335   3.534   4.493  11.701 -0.0108 -0.2919  0.1202
12307TIP3    H158336   3.440   4.480  11.712  0.0126 -0.3425  0.2485
12307TIP3    H258337   3.543   4.588  11.690 -0.2189 -0.3988 -1.1817
12308TIP3   OH258338   5.708   1.793   2.450 -0.0749 -0.5812 -0.8246
12308TIP3    H158339   5.727   1.859   2.516  0.1972 -2.9790  1.7092
12308TIP3    H258340   5.773   1.808   2.382  0.1286  1.5577 -0.2356
12309TIP3   OH258341   5.892   2.860  10.649 -0.6015 -0.1856  0.0806
12309TIP3    H158342   5.888   2.795  10.579  0.6565  0.4723 -0.6246
12309TIP3    H258343   5.942   2.817  10.719  0.4077  0.0711 -0.4662
12310TIP3   OH258344   6.366   0.366   4.262 -0.3716  0.0393  0.0392
12310TIP3    H158345   6.346   0.356   4.169  0.0708  0.1080 -0.0625
12310TIP3    H258346   6.347   0.458   4.280 -0.1526  0.1044 -0.0580
12311TIP3   OH258347   3.013   0.080  12.026 -0.7774  0.4675  0.7327
12311TIP3    H158348   2.973   0.160  12.061  0.9040  2.4821 -1.6186
12311TIP3    H258349   2.939   0.024  12.003 -2.1594  2.4712  0.0222
12312TIP3   OH258350   4.026   2.633   2.754 -0.3054  0.3747 -0.0705
12312TIP3    H158351   4.045   2.616   2.846 -1.6746 -0.0365  0.1724
12312TIP3    H258352   3.930   2.637   2.750 -0.2402  1.1629 -1.3480
12313TIP3   OH258353   3.509   2.670  13.541 -0.0519 -0.0006 -0.4909
12313TIP3    H158354   3.593   2.715  13.533  1.3023 -2.3937 -0.7219
12313TIP3    H258355   3.486   2.678  13.634  0.9458 -0.1203 -0.2213
12314TIP3   OH258356   2.423   4.867   4.594 -0.2058  0.2686  0.3439
12314TIP3    H158357   2.397   4.790   4.543 -0.7738  1.6393 -1.5541
12314TIP3    H258358   2.387   4.941   4.545  4.0739  2.1151 -0.4642
12315TIP3   OH258359   4.890   0.205  14.917  0.1233 -0.2249 -0.8715
12315TIP3    H158360   4.938   0.286  14.931  0.3861 -0.2205 -1.7596
12315TIP3    H258361   4.800   0.233  14.899  0.2763 -0.1115 -1.4699
12316TIP3   OH258362   1.935   4.061  14.338  0.6283  0.4021 -0.0782
12316TIP3    H158363   2.005   4.006  14.375  1.5629  0.2526 -1.9803
12316TIP3    H258364   1.923   4.130  14.404  0.9777 -0.8116  1.3226
12317TIP3   OH258365   5.885   1.815   0.235 -0.0563 -0.2103 -0.1973
12317TIP3    H158366   5.892   1.853   0.323 -0.7727 -0.0420 -0.2065
12317TIP3    H258367   5.887   1.720   0.250 -0.9957 -0.1902  0.0820
12318TIP3   OH258368   2.259   6.594   5.714 -0.3811  0.6535  0.1893
12318TIP3    H158369   2.249   6.499   5.717  0.8531  0.4218 -1.5896
12318TIP3    H258370   2.273   6.613   5.621  0.1666  2.4876  0.6211
12319TIP3   OH258371   4.906   0.657   2.073  0.1353  0.1009  0.1264
12319TIP3    H158372   4.813   0.642   2.089  0.5747 -0.0820  3.1000
12319TIP3    H258373   4.947   0.572   2.086  0.7861  0.3191 -0.4506
12320TIP3   OH258374   5.866   0.659  14.743  0.1184 -0.1190  0.0240
12320TIP3    H158375   5.878   0.567  14.764 -0.7692 -0.0460  0.8951
12320TIP3    H258376   5.842   0.700  14.826 -0.2343  0.7634 -0.4992
12321TIP3   OH258377   1.260   4.422   2.459  0.2086 -0.6540 -0.1352
12321TIP3    H158378   1.181   4.370   2.445 -0.1404  0.0408 -0.7990
12321TIP3    H258379   1.328   4.374   2.413 -0.3716  0.1166 -1.8869
12322TIP3   OH258380   1.676   2.771  14.436 -0.2211 -0.0496 -0.1096
12322TIP3    H158381   1.698   2.695  14.382 -1.3257 -1.1617  0.9293
12322TIP3    H258382   1.694   2.847  14.380  1.1238 -1.0477 -1.0999
12323TIP3   OH258383   1.382   3.889  12.060  0.8642  0.4055  0.7926
12323TIP3    H158384   1.443   3.841  12.116 -0.7019 -1.3162  1.1098
12323TIP3    H258385   1.416   3.878  11.972  1.5749  0.3796  1.0619
12324TIP3   OH258386   4.643   1.783   2.657  0.1872  0.9483  0.1077
12324TIP3    H158387   4.714   1.768   2.720 -0.1772  0.3817  0.3895
12324TIP3    H258388   4.564   1.751   2.701  0.2515 -1.8658 -1.5346
12325TIP3   OH258389   3.938   6.192  13.787  0.1237 -0.2341 -0.0854
12325TIP3    H158390   3.850   6.176  13.820 -0.9406 -0.9055 -2.9132
12325TIP3    H258391   3.951   6.125  13.719  1.7852  1.3926 -1.5086
12326TIP3   OH258392   1.446   6.524   1.974 -0.3861 -0.0167  0.2949
12326TIP3    H158393   1.500   6.597   2.007 -0.1518  0.0334 -0.1959
12326TIP3    H258394   1.356   6.555   1.984 -0.3486 -0.2054  1.3786
12327TIP3   OH258395   3.287   2.416   6.658  0.0700  0.3563  0.4552
12327TIP3    H158396   3.246   2.339   6.696 -0.8906  0.7519  0.2504
12327TIP3    H258397   3.226   2.488   6.676 -0.0895  0.6808 -1.1726
12328TIP3   OH258398   0.679   4.047  11.185 -0.4404  0.0749 -0.2780
12328TIP3    H158399   0.667   4.059  11.091  1.0511 -1.7769 -0.7760
12328TIP3    H258400   0.644   3.959  11.202  0.2971 -0.0448  0.6761
12329TIP3   OH258401   6.237   5.576  11.148  0.1572 -0.0270  0.1311
12329TIP3    H158402   6.230   5.482  11.165  0.2829  0.0626  0.7090
12329TIP3    H258403   6.177   5.591  11.076  2.6968 -1.1410 -2.4054
12330TIP3   OH258404   4.504   5.222  14.848 -0.3852  0.1942  0.8911
12330TIP3    H158405   4.580   5.262  14.806 -0.7120  0.8626  0.9202
12330TIP3    H258406   4.455   5.182  14.776 -0.2747  0.2181  0.8026
12331TIP3   OH258407   2.228   5.151  13.273  0.3828  0.0133 -0.0297
12331TIP3    H158408   2.307   5.097  13.273 -0.0602 -0.6491  0.3752
12331TIP3    H258409   2.217   5.178  13.182  0.3563 -0.9692 -0.3256
12332TIP3   OH258410   3.491   4.228  16.418 -0.0363 -0.9221 -0.3167
12332TIP3    H158411   3.491   4.176  16.499 -1.5022 -1.0413 -0.3642
12332TIP3    H258412   3.536   4.309  16.441 -0.3363 -0.9997  0.5953
12333TIP3   OH258413   3.807   0.063  17.005  0.2963  0.0142 -0.0045
12333TIP3    H158414   3.747   0.085  16.934  1.1801 -0.8734 -1.0507
12333TIP3    H258415   3.770   0.107  17.082 -0.5804  1.1310 -1.0333
12334TIP3   OH258416   0.495   1.033  16.843  0.2224  0.0271 -0.0744
12334TIP3    H158417   0.527   0.952  16.881  0.9061  1.2212  2.0725
12334TIP3    H258418   0.534   1.102  16.896 -0.5268  1.7827 -1.6574
12335TIP3   OH258419   4.419   0.619   3.873 -0.0631 -0.7382  0.2816
12335TIP3    H158420   4.416   0.692   3.811 -1.4038 -0.8196  0.2307
12335TIP3    H258421   4.330   0.586   3.876 -0.0350 -0.7657  2.2374
12336TIP3   OH258422   0.856   6.451   1.847  0.0187 -0.0655  0.4500
12336TIP3    H158423   0.928   6.404   1.804 -0.0434  0.1368  0.1162
12336TIP3    H258424   0.785   6.387   1.851 -0.4698  0.3226 -1.0799
12337TIP3   OH258425   2.831   5.522   2.730 -0.1309  0.1401 -0.1635
12337TIP3    H158426   2.894   5.580   2.773  0.1619 -0.4027  0.1436
12337TIP3    H258427   2.884   5.461   2.680 -0.4283 -0.1167 -0.1656
12338TIP3   OH258428   1.042   4.829   1.973  0.3813 -0.0297  0.6579
12338TIP3    H158429   1.005   4.830   2.061  2.8604 -0.7278  1.7977
12338TIP3    H258430   1.061   4.737   1.956 -1.1004 -0.0707 -1.1479
12339TIP3   OH258431   1.915   2.410  13.535  0.0678 -0.0823  0.0171
12339TIP3    H158432   1.896   2.318  13.520 -0.9411  0.1961 -0.4560
12339TIP3    H258433   1.997   2.409  13.585 -1.4424 -1.3543  2.6853
12340TIP3   OH258434   5.863   5.234   5.545 -0.3382 -0.3464  0.3975
12340TIP3    H158435   5.878   5.329   5.538 -0.3899 -0.3854 -0.3484
12340TIP3    H258436   5.838   5.221   5.636  0.5103  0.2421  0.7322
12341TIP3   OH258437   1.716   6.190  15.430  0.2455  0.6989 -0.2391
12341TIP3    H158438   1.738   6.174  15.339 -2.4332  1.4329 -1.0934
12341TIP3    H258439   1.711   6.103  15.470  0.9741  0.3531 -0.8890
12342TIP3   OH258440   3.346   4.127  17.285 -0.4731 -0.0304  0.7287
12342TIP3    H158441   3.408   4.151  17.354 -1.8609 -1.6200  2.6685
12342TIP3    H258442   3.260   4.142  17.324 -1.3356 -2.6209  0.0541
12343TIP3   OH258443   3.759   3.275  10.687  0.9509  0.4596  0.3041
12343TIP3    H158444   3.739   3.365  10.661  1.0160  0.5031  0.4074
12343TIP3    H258445   3.854   3.270  10.687  0.9450  0.3166  0.0411
12344TIP3   OH258446   6.747   5.469  14.048  0.2983 -0.0442  0.2988
12344TIP3    H158447   6.802   5.421  13.985  1.3660 -0.7967  1.7565
12344TIP3    H258448   6.673   5.500  13.995  1.9209  0.7114 -1.6576
12345TIP3   OH258449   0.027   1.726   0.883 -0.6811  0.1054  0.1216
12345TIP3    H158450   0.020   1.718   0.788  0.3079  1.9176 -0.1472
12345TIP3    H258451  -0.005   1.814   0.902 -1.7533 -0.5575  1.6039
12346TIP3   OH258452   5.548   4.617  17.002 -0.0003  0.6584  0.2808
12346TIP3    H158453   5.524   4.578  16.918 -1.5032  0.7173  0.6565
12346TIP3    H258454   5.607   4.689  16.979 -0.4497  0.7178 -0.7365
12347TIP3   OH258455   5.983   0.999   1.283 -0.1253 -0.1677  0.2342
12347TIP3    H158456   6.021   0.912   1.296 -0.4516 -0.3650 -0.1480
12347TIP3    H258457   5.966   1.030   1.372  1.6706  0.2588  0.4718
12348TIP3   OH258458   0.910   4.188  10.577 -0.1966  0.2424 -0.1303
12348TIP3    H158459   0.879   4.120  10.636  1.4546 -0.4569 -0.0336
12348TIP3    H258460   0.941   4.258  10.635  1.8938 -0.6503 -0.0747
12349TIP3   OH258461   0.261   5.890  12.229 -0.8759  0.3079  0.4927
12349TIP3    H158462   0.198   5.858  12.294 -0.6950 -0.4481  0.3059
12349TIP3    H258463   0.343   5.897  12.277 -0.6197 -0.7555  0.2376
12350TIP3   OH258464   6.712   5.221   3.947 -0.3332  0.2027 -0.1735
12350TIP3    H158465   6.641   5.187   3.893 -0.6031 -0.5549  0.6509
12350TIP3    H258466   6.675   5.229   4.034  0.3870  0.4943  0.1174
12351TIP3   OH258467   0.302   0.601   0.614 -0.1546 -0.0810 -0.0786
12351TIP3    H158468   0.283   0.537   0.545  0.5578 -1.1017  0.6287
12351TIP3    H258469   0.302   0.685   0.570 -0.2938 -0.6529 -1.2104
12352TIP3   OH258470   1.416   0.924   4.261  0.0660  0.2555  0.0244
12352TIP3    H158471   1.354   0.884   4.200  0.1148  0.1639  0.0336
12352TIP3    H258472   1.493   0.867   4.257  0.3277  0.6324 -0.3339
12353TIP3   OH258473   3.308   5.275  13.411 -0.1978  0.1501 -0.0862
12353TIP3    H158474   3.394   5.244  13.439 -1.0993 -1.9711  0.5401
12353TIP3    H258475   3.302   5.364  13.447  1.7851  0.4447 -0.3504
12354TIP3   OH258476   6.407   6.317  15.672  0.0402  0.4425  0.2238
12354TIP3    H158477   6.409   6.277  15.758 -0.0338 -0.5155 -0.2106
12354TIP3    H258478   6.322   6.362  15.668  0.9881  2.5089  1.5152
12355TIP3   OH258479   5.480   6.066   3.511  0.5949  0.3325  0.0428
12355TIP3    H158480   5.421   6.000   3.550  0.9863  0.0760  0.2091
12355TIP3    H258481   5.436   6.149   3.527 -0.0531  0.0856 -0.4349
12356TIP3   OH258482   0.402   4.627  15.311 -0.1456  0.4672 -0.5006
12356TIP3    H158483   0.447   4.547  15.337 -0.2504  0.0685 -1.5263
12356TIP3    H258484   0.421   4.637  15.218 -1.7355  0.5794 -0.8313
12357TIP3   OH258485   0.102   4.644   4.808  0.0780  0.0006  0.5150
12357TIP3    H158486   0.177   4.640   4.869 -0.6050  0.2971  1.3989
12357TIP3    H258487   0.130   4.594   4.732  2.1985  2.1998 -0.2878
12358TIP3   OH258488   3.165   4.976   1.255 -0.2493  0.3193 -0.1831
12358TIP3    H158489   3.120   4.906   1.206 -0.1427  1.1746 -1.5591
12358TIP3    H258490   3.202   4.932   1.331 -0.3878 -1.0773 -0.8943
12359TIP3   OH258491   5.089   0.251  11.021 -0.1144 -0.0669 -0.1404
12359TIP3    H158492   5.004   0.215  10.997 -0.6470  1.2492 -0.3399
12359TIP3    H258493   5.138   0.254  10.939 -0.8693  1.6553 -0.5842
12360TIP3   OH258494   0.023   0.072   1.104  0.4928 -0.3518 -0.1176
12360TIP3    H158495  -0.008   0.014   1.035  1.2659 -0.5960 -0.2651
12360TIP3    H258496  -0.056   0.118   1.134 -0.1538 -1.5831  0.1101
12361TIP3   OH258497   0.281   0.160  15.517  0.2010 -0.0811  0.8467
12361TIP3    H158498   0.349   0.094  15.502 -0.1284 -0.1272 -0.6027
12361TIP3    H258499   0.200   0.117  15.489 -0.2312  0.4599  1.2319
12362TIP3   OH258500   3.700   5.960   6.011  0.2304  0.7208  0.0127
12362TIP3    H158501   3.608   5.966   6.038  0.1432  0.2067 -0.1611
12362TIP3    H258502   3.704   6.009   5.929  0.0183  0.3696 -0.2078
12363TIP3   OH258503   3.273   3.806   3.269 -0.0506 -0.2462 -0.0255
12363TIP3    H158504   3.202   3.743   3.265 -0.6379  0.3341  0.9839
12363TIP3    H258505   3.273   3.837   3.359  1.9327 -0.7318  0.2031
12364TIP3   OH258506   4.157   6.357   4.468  0.6585 -0.0891 -0.1704
12364TIP3    H158507   4.153   6.335   4.375  4.4294  0.3986 -0.6288
12364TIP3    H258508   4.153   6.453   4.471  0.3097 -0.1141  0.1786
12365TIP3   OH258509   0.737   4.805  14.715 -0.4014 -0.7945 -0.6186
12365TIP3    H158510   0.820   4.851  14.702 -0.7664 -0.2273 -1.0143
12365TIP3    H258511   0.682   4.833  14.641 -1.4094 -0.0578  0.3681
12366TIP3   OH258512   1.244   3.357   3.289  0.1894  0.1298 -0.3495
12366TIP3    H158513   1.239   3.450   3.268 -1.0394  0.1017 -0.2432
12366TIP3    H258514   1.177   3.343   3.356 -1.0211 -1.1943 -1.7572
12367TIP3   OH258515   5.451   2.952  16.360 -0.4145 -0.1220  0.0006
12367TIP3    H158516   5.547   2.948  16.366 -0.4669 -1.4973  0.2664
12367TIP3    H258517   5.434   3.022  16.297  0.8323 -0.9663 -1.3515
12368TIP3   OH258518   3.404   3.016  11.617 -0.6542 -0.8293  0.0338
12368TIP3    H158519   3.367   2.936  11.582 -0.9297 -1.1865  1.1075
12368TIP3    H258520   3.353   3.034  11.696  2.6201 -2.4763  2.8252
12369TIP3   OH258521   5.193   1.031  15.220  0.0950 -0.5109 -0.7975
12369TIP3    H158522   5.183   1.043  15.125 -0.6669  1.2021 -0.5397
12369TIP3    H258523   5.118   0.976  15.245  0.2093 -0.8372 -1.1573
12370TIP3   OH258524   2.199   0.324   6.189  0.2433  0.1986 -0.7048
12370TIP3    H158525   2.157   0.243   6.160  1.2207 -0.5880 -0.0111
12370TIP3    H258526   2.188   0.384   6.116 -0.5286 -0.5553 -1.2284
12371TIP3   OH258527   0.100   0.850   2.870 -0.2943  0.4109 -0.4349
12371TIP3    H158528   0.018   0.810   2.843 -0.9527  0.8766  0.8232
12371TIP3    H258529   0.148   0.780   2.914 -1.2357  0.8315  1.3268
12372TIP3   OH258530   0.730   0.434   4.694 -0.0881  0.5189  0.1258
12372TIP3    H158531   0.783   0.358   4.673 -0.0141  0.1303  1.5759
12372TIP3    H258532   0.649   0.422   4.645  0.0073 -0.3907  0.1762
12373TIP3   OH258533   4.550   0.373   0.903 -0.4525 -0.0177  0.0700
12373TIP3    H158534   4.627   0.417   0.868 -0.9880  0.3627 -0.6408
12373TIP3    H258535   4.583   0.323   0.977  0.2736  1.0779  0.5056
12374TIP3   OH258536   1.854   4.820  15.228 -0.3966  0.2051 -0.3191
12374TIP3    H158537   1.865   4.800  15.135 -0.2450 -0.5188 -0.1493
12374TIP3    H258538   1.809   4.904  15.229 -0.3501  0.2443 -1.0489
12375TIP3   OH258539   5.634   4.975   2.082 -0.2456  0.3802 -0.3323
12375TIP3    H158540   5.651   4.886   2.113 -0.2642  1.2280  2.4128
12375TIP3    H258541   5.719   5.019   2.086 -0.2144  0.5038 -1.7634
12376TIP3   OH258542   2.522   5.654   1.835  0.0611 -0.2741 -0.2182
12376TIP3    H158543   2.482   5.680   1.918 -0.8658 -1.6802 -0.1854
12376TIP3    H258544   2.448   5.640   1.776  0.7470  1.8414 -1.6865
12377TIP3   OH258545   3.641   0.728   5.782  0.1682  0.1491 -0.3573
12377TIP3    H158546   3.642   0.813   5.738 -1.5004 -0.1480 -1.0584
12377TIP3    H258547   3.571   0.735   5.848  1.7164  0.1305  1.3731
12378TIP3   OH258548   4.547   2.745  13.350  0.0499  0.1223  0.6172
12378TIP3    H158549   4.495   2.711  13.423 -2.1130  1.4175 -0.2589
12378TIP3    H258550   4.485   2.754  13.278  1.2031  2.8460 -0.1414
12379TIP3   OH258551   6.717   6.730   4.924  0.2629  0.1779  0.2746
12379TIP3    H158552   6.690   6.649   4.883  0.0496  0.0930  0.5752
12379TIP3    H258553   6.718   6.794   4.853  1.8780 -0.3982 -0.2611
12380TIP3   OH258554   0.503   4.930   4.882  0.4290 -0.1164  0.2145
12380TIP3    H158555   0.491   4.923   4.787 -0.1638  1.8322  0.0958
12380TIP3    H258556   0.416   4.953   4.916  0.7902 -0.0777  1.1470
12381TIP3   OH258557   0.127   3.214  15.049 -0.1091 -0.1810 -0.1039
12381TIP3    H158558   0.204   3.199  15.104 -0.3480  0.8831  0.5383
12381TIP3    H258559   0.140   3.302  15.014 -2.0126  0.8894  1.6712
12382TIP3   OH258560   5.421   0.050  16.649  0.4300 -0.2506 -0.1707
12382TIP3    H158561   5.508   0.089  16.661  0.1135 -0.0741  2.1667
12382TIP3    H258562   5.438  -0.044  16.643  0.8596 -0.1267 -1.0233
12383TIP3   OH258563   0.858   2.255  11.551 -0.2776 -0.6220 -0.0270
12383TIP3    H158564   0.765   2.230  11.548 -0.0890 -1.2896 -0.5319
12383TIP3    H258565   0.882   2.269  11.459  0.2730 -1.0238  0.0518
12384TIP3   OH258566   1.391   5.368  14.015 -0.2489 -0.1427 -0.3691
12384TIP3    H158567   1.340   5.414  14.082  0.9156  0.9854 -0.2260
12384TIP3    H258568   1.428   5.438  13.961 -1.2088 -1.0271 -2.2538
12385TIP3   OH258569   4.728   4.336   5.822  0.5979 -0.3600  0.2511
12385TIP3    H158570   4.661   4.277   5.857  1.0847 -1.3298 -0.4058
12385TIP3    H258571   4.786   4.353   5.896 -0.2506  0.3406  0.7784
12386TIP3   OH258572   0.995   1.648  10.668 -0.4896  0.0294  0.6640
12386TIP3    H158573   0.967   1.606  10.749  2.5918  0.5476  2.1166
12386TIP3    H258574   1.073   1.600  10.640 -1.1644  0.1878 -1.7703
12387TIP3   OH258575   5.960   6.562   3.517 -0.6428  0.6640 -0.1444
12387TIP3    H158576   5.938   6.510   3.441 -0.3119 -0.3158  0.4098
12387TIP3    H258577   5.899   6.533   3.585 -1.1515  1.7602 -0.1169
12388TIP3   OH258578   1.606   3.974  15.763 -0.3178 -0.1419 -0.1212
12388TIP3    H158579   1.556   3.988  15.682  2.3848 -0.7330 -2.0350
12388TIP3    H258580   1.627   3.880  15.761  0.7468  0.0716  0.6718
12389TIP3   OH258581   2.474   4.344  13.083 -0.4147  0.6248  0.5765
12389TIP3    H158582   2.448   4.334  13.174  3.3646  2.0820  2.0136
12389TIP3    H258583   2.569   4.352  13.086  0.1207 -1.4402 -3.7704
12390TIP3   OH258584   4.042   6.374  13.986  0.7002 -0.0680 -0.3666
12390TIP3    H158585   4.041   6.300  13.925  0.8230 -1.7871  1.6175
12390TIP3    H258586   4.066   6.335  14.070 -1.7856  1.7787  1.3171
12391TIP3   OH258587   3.197   0.739  12.799 -0.2354  0.3211 -0.6249
12391TIP3    H158588   3.289   0.725  12.780 -0.1662  1.9479 -1.7596
12391TIP3    H258589   3.154   0.735  12.713 -1.1205  0.2803 -0.1950
12392TIP3   OH258590   0.144   0.889   5.346 -0.1705  0.3211 -0.4876
12392TIP3    H158591   0.094   0.819   5.305  0.0160 -0.4333  0.5309
12392TIP3    H258592   0.079   0.942   5.392 -0.3209  0.8731 -1.3223
12393TIP3   OH258593   4.036   4.556   2.387  0.0320  0.2602  0.4176
12393TIP3    H158594   3.984   4.520   2.459  1.3889 -0.9935  0.8305
12393TIP3    H258595   3.984   4.629   2.354 -0.8248  0.6128  2.3891
12394TIP3   OH258596   3.098   0.222   1.274 -0.1997 -0.4458 -0.2034
12394TIP3    H158597   3.115   0.175   1.192  0.0977 -1.4285  0.4057
12394TIP3    H258598   3.161   0.185   1.336  0.6530  1.4061  0.0847
12395TIP3   OH258599   3.257   3.698  11.823  0.3194 -0.2540  0.2211
12395TIP3    H158600   3.250   3.621  11.879 -0.5142 -1.5604 -1.5557
12395TIP3    H258601   3.304   3.666  11.745 -2.8315  0.0796 -1.9812
12396TIP3   OH258602   1.215   2.911  10.686 -0.3660  0.4981  0.2327
12396TIP3    H158603   1.198   2.958  10.604  1.7066  0.4302 -0.2921
12396TIP3    H258604   1.198   2.819  10.665  0.8279  0.3884 -0.3800
12397TIP3   OH258605   0.673   2.190  17.178 -0.0995  0.2521  0.4389
12397TIP3    H158606   0.700   2.189  17.270  4.0700  0.5958 -0.5646
12397TIP3    H258607   0.618   2.113  17.168 -1.7240  0.8833  3.4066
12398TIP3   OH258608   6.131   6.352  14.895 -0.2365 -0.0488  0.0093
12398TIP3    H158609   6.106   6.264  14.867  2.8147 -0.8562 -0.5458
12398TIP3    H258610   6.092   6.361  14.982 -0.5601 -1.9755  0.1130
12399TIP3   OH258611   5.977   1.765  13.474  0.2507  0.2082  0.2309
12399TIP3    H158612   5.919   1.841  13.478  0.9615  0.7199  0.9459
12399TIP3    H258613   5.971   1.736  13.383  0.1074  1.2186 -0.0959
12400TIP3   OH258614   5.901   1.923   4.033  0.3497  0.6831  0.6136
12400TIP3    H158615   5.960   1.848   4.023 -0.3528  0.0133  1.3718
12400TIP3    H258616   5.959   1.995   4.057  1.0746  0.4729 -0.4033
12401TIP3   OH258617   0.236   2.675  14.046  0.2472 -0.0389 -0.2380
12401TIP3    H158618   0.260   2.731  14.120  1.2122 -0.3621 -0.2841
12401TIP3    H258619   0.160   2.626  14.076 -0.4854  1.1345 -0.1215
12402TIP3   OH258620   2.843   3.316  12.619 -0.5490 -0.0956  0.3141
12402TIP3    H158621   2.888   3.398  12.600 -0.9049  0.1525  0.5171
12402TIP3    H258622   2.755   3.327  12.583 -0.9712  0.0686  1.3488
12403TIP3   OH258623   2.907   3.499  11.458 -0.3116  0.0349 -0.1640
12403TIP3    H158624   2.858   3.573  11.422 -1.1057 -0.5282 -0.2702
12403TIP3    H258625   2.911   3.516  11.552 -0.4290  0.2533 -0.1979
12404TIP3   OH258626   0.280   4.540  11.380  0.5100  0.0642  0.0523
12404TIP3    H158627   0.253   4.463  11.331 -0.3788  0.0629  0.5326
12404TIP3    H258628   0.250   4.614  11.328  0.4425  0.0743  0.1057
12405TIP3   OH258629   5.241   0.523  14.554 -0.2260  0.7935  0.2740
12405TIP3    H158630   5.147   0.513  14.574 -0.3843  0.2248 -0.7017
12405TIP3    H258631   5.243   0.550  14.463  0.5998 -1.4438 -0.4471
12406TIP3   OH258632   1.061   3.912  15.748 -0.7201  0.0779 -0.6908
12406TIP3    H158633   1.119   3.912  15.672  0.6116  0.2688  0.2778
12406TIP3    H258634   0.982   3.868  15.718  1.4023 -4.0177 -0.9870
12407TIP3   OH258635   3.787   1.295  12.154 -0.2480 -0.0892 -0.3062
12407TIP3    H158636   3.770   1.305  12.060 -1.1368 -0.9615 -0.2621
12407TIP3    H258637   3.700   1.286  12.193  0.1573 -3.1876  0.1619
12408TIP3   OH258638   1.805   1.965  15.619  0.1307  0.5280  0.3224
12408TIP3    H158639   1.733   1.929  15.670  1.5984 -2.1181  0.7104
12408TIP3    H258640   1.779   1.953  15.528 -0.7938  1.6059  0.4214
12409TIP3   OH258641   5.498   0.778  15.198  0.0744  0.1098  0.5763
12409TIP3    H158642   5.433   0.840  15.166  0.4828  0.9061  1.2519
12409TIP3    H258643   5.450   0.695  15.207 -0.4093  0.2490 -0.5727
12410TIP3   OH258644   1.053   3.998  11.879 -0.2777  0.0850  0.4977
12410TIP3    H158645   1.094   3.931  11.825 -1.0459 -0.9831  1.2008
12410TIP3    H258646   0.994   4.045  11.820  0.2818  0.1697 -0.0026
12411TIP3   OH258647   4.164   0.019   3.950  0.0448  0.2153 -0.3878
12411TIP3    H158648   4.192   0.089   4.009 -0.8395 -0.5975  1.0593
12411TIP3    H258649   4.078   0.048   3.918  0.5498  0.6843 -1.3693
12412TIP3   OH258650   5.073   2.761  12.420  0.5049 -0.7540 -0.3892
12412TIP3    H158651   5.107   2.794  12.503  0.4319 -0.5777 -0.4280
12412TIP3    H258652   5.147   2.768  12.360 -0.2774  2.1948 -1.1903
12413TIP3   OH258653   6.415   1.603  11.705  0.3931  0.9637 -0.3649
12413TIP3    H158654   6.461   1.533  11.752 -0.0255  0.8317 -0.1377
12413TIP3    H258655   6.322   1.585  11.722  0.2871  1.6548 -0.1899
12414TIP3   OH258656   0.964   4.292   2.776 -0.7500 -0.0200  0.6663
12414TIP3    H158657   0.956   4.237   2.854 -2.2020  0.6084  0.9918
12414TIP3    H258658   0.878   4.285   2.734 -0.3394  0.5266 -0.2826
12415TIP3   OH258659   4.086   4.624   3.827  0.8765  0.2626 -0.4669
12415TIP3    H158660   4.145   4.641   3.901 -0.3881 -2.1958  1.2357
12415TIP3    H258661   3.998   4.631   3.864  0.0238  2.3983 -2.6245
12416TIP3   OH258662   5.308   1.062  12.488 -0.3851 -0.2544 -0.0535
12416TIP3    H158663   5.380   1.061  12.425 -0.5908 -0.4335 -0.2858
12416TIP3    H258664   5.259   1.142  12.467 -0.8744 -0.6918 -0.5993
12417TIP3   OH258665   5.037   0.303  15.932  0.1577  0.1005  0.2621
12417TIP3    H158666   4.996   0.364  15.871 -0.0933  0.8386  1.1505
12417TIP3    H258667   5.072   0.358  16.002  0.3656 -0.7266  0.8296
12418TIP3   OH258668   1.415   3.766  16.612  0.3279  0.4309 -0.2403
12418TIP3    H158669   1.483   3.819  16.653 -0.8732  0.7690  1.3927
12418TIP3    H258670   1.372   3.721  16.684  0.1924 -1.4674 -1.4388
12419TIP3   OH258671   6.719   6.102   1.021 -0.3809 -0.6963  0.6288
12419TIP3    H158672   6.684   6.033   1.076  1.6053 -0.0015  2.9681
12419TIP3    H258673   6.719   6.180   1.077  0.5793  0.3845 -0.7827
12420TIP3   OH258674   2.237   3.823   3.286 -0.1472  0.5639  0.2608
12420TIP3    H158675   2.269   3.782   3.367  0.2225  0.1770 -0.0806
12420TIP3    H258676   2.183   3.756   3.245  1.2700  0.0409 -0.8059
12421TIP3   OH258677   4.324   0.227  15.287  0.4217 -0.8143 -0.1421
12421TIP3    H158678   4.293   0.271  15.367  0.4863 -2.6147  0.9293
12421TIP3    H258679   4.355   0.298  15.231 -0.8976  0.6225  0.8585
12422TIP3   OH258680   0.640   1.299  14.628 -0.3557  0.0863 -0.1825
12422TIP3    H158681   0.625   1.350  14.549  2.2066  1.1804 -0.0645
12422TIP3    H258682   0.577   1.228  14.623 -1.5592  1.1884 -2.2174
12423TIP3   OH258683   2.173   5.064  12.805  0.1000  0.2578  0.1160
12423TIP3    H158684   2.156   4.973  12.783  1.4159  0.2351 -0.9309
12423TIP3    H258685   2.229   5.061  12.882  0.6893  0.1608 -0.3155
12424TIP3   OH258686   4.181   3.846   2.233 -0.3983  0.0963  0.6075
12424TIP3    H158687   4.162   3.805   2.149  1.0405  1.5563 -0.4791
12424TIP3    H258688   4.142   3.933   2.227  0.3252  0.4708  1.1636
12425TIP3   OH258689   0.855   2.544  14.814  0.8509 -0.6187 -0.1134
12425TIP3    H158690   0.820   2.601  14.745  0.5971  0.8878  1.2051
12425TIP3    H258691   0.950   2.556  14.808  0.8349 -0.5519 -0.2535
12426TIP3   OH258692   2.212   3.605  12.172  0.3611 -0.0486  0.2042
12426TIP3    H158693   2.158   3.553  12.232  0.2308 -1.3947 -1.0371
12426TIP3    H258694   2.191   3.696  12.195 -2.9277 -0.4709 -0.6117
12427TIP3   OH258695   0.145   5.894  15.298  0.5600 -0.0789 -0.2926
12427TIP3    H158696   0.236   5.901  15.271  1.2441 -0.3515  1.7565
12427TIP3    H258697   0.127   5.800  15.300  0.1307 -0.0155 -0.9883
12428TIP3   OH258698   0.358   2.552   4.074 -0.0471 -0.2078 -0.6571
12428TIP3    H158699   0.378   2.637   4.113 -0.6547 -0.8300  1.0922
12428TIP3    H258700   0.436   2.531   4.023  1.0690  0.3734  0.7301
12429TIP3   OH258701   4.280   4.684  14.964  0.9633 -0.1708  1.0435
12429TIP3    H158702   4.366   4.645  14.981  1.9642  2.1404  1.6710
12429TIP3    H258703   4.251   4.716  15.050  0.3055  0.6709  0.5130
12430TIP3   OH258704   2.784   2.915  10.683 -0.0556  0.5280 -0.0406
12430TIP3    H158705   2.765   3.000  10.643  0.4012 -0.4073 -2.4248
12430TIP3    H258706   2.710   2.898  10.741 -1.9067  1.0531 -2.1259
12431TIP3   OH258707   2.076   4.627  15.945  0.3130  0.1468  1.2425
12431TIP3    H158708   2.151   4.645  15.888 -0.7094 -0.0679 -0.2193
12431TIP3    H258709   2.090   4.537  15.975  0.7538  0.1885  1.1684
12432TIP3   OH258710   2.414   6.043   6.386 -0.3173  0.6904 -0.2723
12432TIP3    H158711   2.402   6.137   6.399 -1.3093  0.6258 -0.6055
12432TIP3    H258712   2.492   6.021   6.436 -0.0109  1.7129 -0.2801
12433TIP3   OH258713   1.384   1.827  12.480  0.0882  0.1870  0.1128
12433TIP3    H158714   1.405   1.799  12.569  1.0173 -0.6962 -0.3731
12433TIP3    H258715   1.432   1.908  12.468 -0.7936  0.8220  0.7291
12434TIP3   OH258716   1.004   4.081  15.020  0.2565  0.3588 -0.9496
12434TIP3    H158717   1.033   4.170  15.002  0.9586  0.2358 -0.4706
12434TIP3    H258718   0.946   4.089  15.095  1.5099  0.2481  0.0592
12435TIP3   OH258719   5.987   2.152   1.879 -0.2898  0.3193  0.0548
12435TIP3    H158720   5.923   2.222   1.892 -0.9813 -0.4363  0.7817
12435TIP3    H258721   5.950   2.076   1.922  1.9439  0.3273  2.2106
12436TIP3   OH258722   3.429   6.100   2.201  0.0821 -0.3828  0.2053
12436TIP3    H158723   3.444   6.010   2.230  2.1205  0.2566  1.3192
12436TIP3    H258724   3.444   6.153   2.279 -1.2093  0.9472 -0.4044
12437TIP3   OH258725   1.360   4.603   5.380 -0.9948  0.2813  0.2513
12437TIP3    H158726   1.362   4.681   5.435 -0.9354  0.2220  0.3341
12437TIP3    H258727   1.303   4.542   5.427  1.4681 -0.9481  1.8496
12438TIP3   OH258728   6.287   1.224   4.445  0.2434  0.2877 -0.6107
12438TIP3    H158729   6.252   1.139   4.470 -1.8008  1.5042  0.9759
12438TIP3    H258730   6.216   1.265   4.394  1.0733  1.1637 -1.0966
12439TIP3   OH258731   3.577   1.642  11.895 -0.0957 -0.5949 -0.1274
12439TIP3    H158732   3.499   1.692  11.921 -0.2949 -0.8599 -0.2108
12439TIP3    H258733   3.633   1.706  11.851  0.0039 -0.2649  0.4640
12440TIP3   OH258734   6.213   3.618  15.953 -0.1196  0.0549  0.3112
12440TIP3    H158735   6.259   3.634  15.870 -0.6704  2.7154  0.4269
12440TIP3    H258736   6.258   3.674  16.016 -1.4641  0.2083  1.1694
12441TIP3   OH258737   3.740   0.999   4.361  0.5841  0.3541  0.0561
12441TIP3    H158738   3.805   0.930   4.373 -0.1433 -0.2066  1.0073
12441TIP3    H258739   3.722   1.031   4.450 -1.1371 -0.2049 -0.0431
12442TIP3   OH258740   5.813   2.743  13.287 -0.2103  0.5499  0.1961
12442TIP3    H158741   5.725   2.729  13.252  0.2033 -0.3645 -0.5139
12442TIP3    H258742   5.823   2.676  13.355 -0.1434  0.7994  0.4359
12443TIP3   OH258743   4.833   5.924   0.030  0.1828  0.4067 -0.3540
12443TIP3    H158744   4.799   5.931  -0.060  0.4646  2.8669 -0.3426
12443TIP3    H258745   4.875   6.009   0.046  2.2507 -0.8371  1.2868
12444TIP3   OH258746   1.454   2.938   0.294 -0.2789  0.3566 -0.1006
12444TIP3    H158747   1.379   2.926   0.236 -0.8862  2.2442  0.2475
12444TIP3    H258748   1.480   3.029   0.282  0.6399  0.3193  1.3399
12445TIP3   OH258749   3.102   3.904  16.546  0.5334  0.7002 -0.1630
12445TIP3    H158750   3.069   3.820  16.516 -0.8277  0.8002  0.9131
12445TIP3    H258751   3.162   3.933  16.477 -0.8271 -0.0317 -1.7222
12446TIP3   OH258752   6.699   2.106  11.707  0.1404 -0.3860  1.2677
12446TIP3    H158753   6.620   2.143  11.746  0.1687 -0.1858  1.1343
12446TIP3    H258754   6.669   2.025  11.664 -0.6436  1.2557 -1.5796
12447TIP3   OH258755   1.635   4.594  12.911 -0.2859  0.5688 -0.0155
12447TIP3    H158756   1.660   4.678  12.871  2.5147 -0.6089 -0.9809
12447TIP3    H258757   1.561   4.564  12.858 -0.7983  2.0146 -0.1839
12448TIP3   OH258758   4.718   4.468   2.927  1.0961 -0.5330  0.5849
12448TIP3    H158759   4.694   4.435   3.013  0.0408 -0.1331  0.4537
12448TIP3    H258760   4.814   4.465   2.926  1.0706 -2.5170  0.9813
12449TIP3   OH258761   2.475   1.189  13.732  0.3722  0.0650  0.0895
12449TIP3    H158762   2.541   1.133  13.690 -0.3366 -0.6880 -0.0637
12449TIP3    H258763   2.397   1.134  13.736 -0.6475  1.3710 -0.9416
12450TIP3   OH258764   2.541   6.638  12.156  0.4899 -0.2583  0.4815
12450TIP3    H158765   2.489   6.642  12.237  0.4114  0.2980  0.4105
12450TIP3    H258766   2.537   6.727  12.121 -1.2687 -0.9677 -1.2784
12451TIP3   OH258767   5.226   1.496   1.269  0.1250  0.8022  0.4058
12451TIP3    H158768   5.143   1.451   1.249  1.2904 -1.1552 -0.3390
12451TIP3    H258769   5.234   1.491   1.364  0.0198 -0.2630  0.3758
12452TIP3   OH258770   2.921   2.460   4.062 -0.1781 -0.1010  0.0643
12452TIP3    H158771   2.920   2.481   3.968  2.7460  0.1298 -0.0104
12452TIP3    H258772   2.950   2.369   4.066  0.6198  0.1667  0.7277
12453TIP3   OH258773   2.819   3.549  16.678 -0.5049 -0.1262 -0.2598
12453TIP3    H158774   2.812   3.460  16.642 -1.7128 -0.1566  0.0159
12453TIP3    H258775   2.837   3.536  16.771  0.0451 -0.0741 -0.3576
12454TIP3   OH258776   1.320   0.194  12.409  0.1368 -0.9329  0.5538
12454TIP3    H158777   1.281   0.274  12.374  0.5896 -0.7677  0.4327
12454TIP3    H258778   1.248   0.152  12.458 -0.0596 -0.3848  0.7412
12455TIP3   OH258779   4.898   6.627   4.657 -0.0353 -0.5945  0.0375
12455TIP3    H158780   4.956   6.648   4.584 -0.4718 -0.0047 -0.1565
12455TIP3    H258781   4.947   6.651   4.735 -0.1608  0.3133 -0.1438
12456TIP3   OH258782   6.145   5.349   4.367  0.3674 -0.5187 -0.1516
12456TIP3    H158783   6.125   5.281   4.432  1.2543  0.7999  1.5688
12456TIP3    H258784   6.236   5.333   4.343 -0.2032 -1.5304 -1.7952
12457TIP3   OH258785   5.287   1.180   4.871  0.1983 -0.4640 -0.1256
12457TIP3    H158786   5.354   1.112   4.881 -0.2287 -0.8774  0.0056
12457TIP3    H258787   5.314   1.229   4.794 -1.0013 -2.6360 -2.0854
12458TIP3   OH258788   4.090   4.844  16.902  0.2922  0.1548 -0.2506
12458TIP3    H158789   4.148   4.784  16.949 -0.8594  0.4876  1.7270
12458TIP3    H258790   4.058   4.904  16.969 -2.6579 -0.2959 -1.1121
12459TIP3   OH258791   3.601   6.631   5.915 -0.2923 -0.0753  0.3376
12459TIP3    H158792   3.540   6.589   5.854 -0.8930  0.8704  0.2574
12459TIP3    H258793   3.570   6.604   6.002  1.3144 -2.4443  0.2562
12460TIP3   OH258794   5.816   3.024  15.419 -0.6377 -0.0559  0.2136
12460TIP3    H158795   5.816   2.936  15.455  1.8955 -0.3058 -0.2276
12460TIP3    H258796   5.894   3.028  15.364  0.3470  2.9927  1.5981
12461TIP3   OH258797   5.240   2.009  11.468 -0.5344 -0.0185  0.2426
12461TIP3    H158798   5.196   2.053  11.540  0.5957  0.9345  0.3840
12461TIP3    H258799   5.279   1.931  11.508  2.4503  1.8915  1.4006
12462TIP3   OH258800   0.271   4.728  12.966  0.1299 -0.0308 -0.0635
12462TIP3    H158801   0.332   4.655  12.974  0.2860  0.1541  0.4472
12462TIP3    H258802   0.226   4.731  13.051 -0.1876  0.1873 -0.2380
12463TIP3   OH258803   1.058   5.417  14.969  0.6074 -0.4546 -0.4838
12463TIP3    H158804   1.078   5.350  15.035 -1.1646 -0.0571  0.5032
12463TIP3    H258805   0.968   5.400  14.944  0.5614  0.7657 -1.2072
12464TIP3   OH258806   3.411   5.119  16.015 -0.4087 -0.1438  0.3196
12464TIP3    H158807   3.412   5.188  16.082  1.9710 -0.9826  1.2488
12464TIP3    H258808   3.409   5.167  15.932  0.5853  1.0798  0.9596
12465TIP3   OH258809   0.775   1.118  12.750 -0.4485 -0.1715  0.8968
12465TIP3    H158810   0.809   1.087  12.667 -2.0974 -0.0299  0.1274
12465TIP3    H258811   0.851   1.153  12.796  0.4731 -0.1480 -0.5906
12466TIP3   OH258812   3.718   3.098  11.965 -0.2504 -0.2101  0.3500
12466TIP3    H158813   3.689   3.186  11.938  0.4981  0.6124  2.1107
12466TIP3    H258814   3.643   3.061  12.011 -0.8752 -0.8812 -1.1427
12467TIP3   OH258815   6.544   5.372  11.712  0.2987  0.3925 -0.1648
12467TIP3    H158816   6.554   5.281  11.686 -1.0206  0.3496 -0.6057
12467TIP3    H258817   6.449   5.388  11.707  0.4345  1.5719  0.6130
12468TIP3   OH258818   1.798   3.989   5.537 -0.6307  0.4616  0.3395
12468TIP3    H158819   1.740   3.912   5.530  1.1574 -1.0021  0.8821
12468TIP3    H258820   1.748   4.060   5.497 -1.6638 -1.3617 -1.8344
12469TIP3   OH258821   6.251   4.113  11.076  0.3522  0.5350 -0.3658
12469TIP3    H158822   6.336   4.151  11.095 -0.2183  1.4196  0.5129
12469TIP3    H258823   6.258   4.023  11.108  0.7133  0.8281  0.4085
12470TIP3   OH258824   3.759   6.038   0.136  0.2126 -0.1200  0.2941
12470TIP3    H158825   3.703   6.066   0.209 -0.1389  2.2109 -0.7752
12470TIP3    H258826   3.703   5.979   0.086 -0.1703 -0.3355  0.9569
12471TIP3   OH258827   2.018   2.612  10.437  0.3746  0.1277 -0.3657
12471TIP3    H158828   2.108   2.580  10.435  0.6119  0.7460 -0.0111
12471TIP3    H258829   1.986   2.588  10.524 -0.4118 -1.6538 -1.1013
12472TIP3   OH258830   3.293   3.233  14.892  0.1894 -0.7184  0.4645
12472TIP3    H158831   3.376   3.208  14.850 -0.6481 -1.7377 -0.6576
12472TIP3    H258832   3.296   3.328  14.895  0.3607 -0.5841 -1.8397
12473TIP3   OH258833   1.531   5.545  13.879 -0.2351 -0.0984 -0.4248
12473TIP3    H158834   1.603   5.530  13.940  2.1652  1.4113 -2.7028
12473TIP3    H258835   1.519   5.640  13.878 -1.1446 -0.2012 -1.3090
12474TIP3   OH258836   5.229   0.109  13.492  0.1894  0.0157 -0.1105
12474TIP3    H158837   5.298   0.144  13.548 -0.6504  1.3090  0.1714
12474TIP3    H258838   5.148   0.131  13.538 -0.4277 -1.0845 -0.6401
12475TIP3   OH258839   6.596   3.923   2.161 -0.0089 -0.1616  0.2314
12475TIP3    H158840   6.516   3.974   2.149  0.7556  1.0591  0.2577
12475TIP3    H258841   6.564   3.834   2.178 -1.3914  0.4641  1.1112
12476TIP3   OH258842   0.101   6.532  11.532  0.2729  0.3836  0.0933
12476TIP3    H158843   0.012   6.503  11.510 -0.1903  1.7407  0.0932
12476TIP3    H258844   0.123   6.596  11.465  0.4683  1.5087  1.1898
12477TIP3   OH258845   1.422   0.055  14.737  0.4686  0.0329 -0.1915
12477TIP3    H158846   1.394   0.000  14.810 -0.7873  0.8543 -0.0134
12477TIP3    H258847   1.470   0.127  14.778 -0.0641  0.3873 -0.1730
12478TIP3   OH258848   0.179   6.017  16.929  0.5237  0.5768 -0.2063
12478TIP3    H158849   0.138   5.940  16.890 -2.1614  1.1100  1.3550
12478TIP3    H258850   0.187   6.079  16.856 -0.7294  0.1485 -0.7262
12479TIP3   OH258851   1.930   3.397  15.875  0.1358 -0.0547 -0.4571
12479TIP3    H158852   2.025   3.406  15.883 -0.0996  1.0568  1.8500
12479TIP3    H258853   1.894   3.470  15.925 -1.9436 -1.0238 -0.4088
12480TIP3   OH258854   0.551   0.007   4.662 -0.4365 -0.3475  0.2123
12480TIP3    H158855   0.562   0.061   4.585 -2.0376  0.7077  0.6785
12480TIP3    H258856   0.627   0.027   4.717 -1.4208  2.1575  0.7644
12481TIP3   OH258857   0.887   0.284  16.614 -0.5943  0.0092 -0.4737
12481TIP3    H158858   0.883   0.189  16.613 -0.7824  0.0064  0.0415
12481TIP3    H258859   0.905   0.309  16.523 -0.2061 -0.5313 -0.5522
12482TIP3   OH258860   2.309   2.369  11.544 -0.4786 -0.3210  0.0355
12482TIP3    H158861   2.357   2.342  11.465  0.0416 -1.7198  0.7889
12482TIP3    H258862   2.322   2.463  11.548  0.0280 -0.3084 -1.1977
12483TIP3   OH258863   2.205   5.607   6.039  0.0364  0.3543  0.5093
12483TIP3    H158864   2.153   5.674   6.084 -0.0404 -0.9010  2.4187
12483TIP3    H258865   2.166   5.524   6.067 -0.6292 -0.5532 -2.7287
12484TIP3   OH258866   3.091   1.154  12.945 -0.3913 -0.0020 -0.0321
12484TIP3    H158867   3.048   1.238  12.932 -0.7985  0.3340  2.7950
12484TIP3    H258868   3.181   1.176  12.968 -0.7631 -0.2141  1.7662
12485TIP3   OH258869   4.058   1.547   0.188 -0.3587  0.1986  0.0482
12485TIP3    H158870   3.965   1.523   0.182 -0.2103 -0.6850  0.9724
12485TIP3    H258871   4.101   1.465   0.213  0.6970  0.5716 -0.5008
12486TIP3   OH258872   3.096   1.969   0.126  0.0591  0.5535  0.1260
12486TIP3    H158873   3.132   2.057   0.112 -0.2241  0.9272  1.5654
12486TIP3    H258874   3.097   1.958   0.221 -2.3391  0.0376  0.1519
12487TIP3   OH258875   6.218   5.604  12.795 -0.6718  0.1814 -0.5603
12487TIP3    H158876   6.154   5.666  12.759 -1.1367 -0.1588 -0.3349
12487TIP3    H258877   6.299   5.654  12.802 -0.8320  0.5376 -1.1322
12488TIP3   OH258878   6.446   3.321  13.098  0.1291  0.3948 -0.3179
12488TIP3    H158879   6.454   3.408  13.057 -1.5342  1.4883  1.4879
12488TIP3    H258880   6.353   3.302  13.094  0.3343 -0.8054  0.3403
12489TIP3   OH258881   1.116   4.741   6.533  0.3324 -0.3463  0.4481
12489TIP3    H158882   1.076   4.781   6.610  1.1927 -0.3707  0.9106
12489TIP3    H258883   1.158   4.813   6.487 -0.9391 -0.1645 -0.5146
12490TIP3   OH258884   6.652   3.741  12.293 -0.0097  0.1182  0.0025
12490TIP3    H158885   6.626   3.802  12.225 -0.9272 -0.2046  0.0587
12490TIP3    H258886   6.643   3.790  12.375  0.6131  0.3464 -0.0581
12491TIP3   OH258887   6.430   2.745   1.806  0.1411 -0.3588  0.0545
12491TIP3    H158888   6.350   2.700   1.833 -0.6869  1.5159  0.8822
12491TIP3    H258889   6.419   2.758   1.712 -0.4221 -0.3107  0.1249
12492TIP3   OH258890   5.867   4.698  13.057  0.2045  0.1143  0.1776
12492TIP3    H158891   5.935   4.631  13.060  0.3451  0.2612  0.3495
12492TIP3    H258892   5.902   4.769  13.112  1.6707  1.8238 -2.6863
12493TIP3   OH258893   4.238   5.930   5.846 -0.6401 -0.3438  0.0354
12493TIP3    H158894   4.283   5.874   5.910  0.6887 -1.3510 -1.7062
12493TIP3    H258895   4.152   5.890   5.835 -0.2613 -1.1519 -0.0425
12494TIP3   OH258896   4.036   0.449  17.099  0.2467  0.0858 -0.0129
12494TIP3    H158897   4.082   0.526  17.131  0.0054  1.3552 -2.4334
12494TIP3    H258898   3.953   0.484  17.066 -0.9159 -1.6072  1.0167
12495TIP3   OH258899   0.213   5.093  14.540 -0.5250  0.3263  0.8122
12495TIP3    H158900   0.294   5.112  14.587  0.5879 -0.0855 -0.8333
12495TIP3    H258901   0.202   5.168  14.481 -0.4159 -0.3814 -0.1338
12496TIP3   OH258902   5.941   1.322  14.135 -0.2444  0.2999 -0.2848
12496TIP3    H158903   6.013   1.265  14.108  0.4800  1.7913 -1.6520
12496TIP3    H258904   5.890   1.335  14.055  0.4708  2.7504 -0.4125
12497TIP3   OH258905   4.015   2.482  16.263 -0.8044  0.3511  0.4844
12497TIP3    H158906   3.970   2.400  16.243 -0.1499 -0.0111  0.4498
12497TIP3    H258907   4.031   2.522  16.177  3.2294 -1.8586 -0.0476
12498TIP3   OH258908   1.396   0.679   5.488 -0.3003  0.9395  0.4951
12498TIP3    H158909   1.320   0.727   5.454 -0.2453  0.3735 -0.4690
12498TIP3    H258910   1.385   0.682   5.583 -2.9640 -1.3394  0.3861
12499TIP3   OH258911   5.460   2.830   3.432 -0.1906 -0.0348  0.8434
12499TIP3    H158912   5.403   2.768   3.386 -0.3527  0.1825  0.7479
12499TIP3    H258913   5.546   2.788   3.433 -0.2859 -0.2328  0.7263
12500TIP3   OH258914   5.769   4.134  15.227 -0.8367 -0.1519 -0.0669
12500TIP3    H158915   5.810   4.189  15.160 -1.6386  0.1756 -0.2953
12500TIP3    H258916   5.838   4.120  15.292  0.6874 -2.2531 -1.9560
12501TIP3   OH258917   0.430   2.185  16.946 -0.6395  0.3651  0.0750
12501TIP3    H158918   0.462   2.111  16.998 -0.1790  0.0502 -0.6405
12501TIP3    H258919   0.364   2.146  16.887 -0.0352  0.4248 -0.6499
12502TIP3   OH258920   4.449   6.212   1.588 -0.0478  0.3667 -0.5565
12502TIP3    H158921   4.459   6.253   1.674 -0.3910  0.2234 -0.4439
12502TIP3    H258922   4.520   6.148   1.583 -0.5044 -0.1966 -0.0391
12503TIP3   OH258923   2.195   1.805  10.748  0.1417 -0.7233  0.4378
12503TIP3    H158924   2.281   1.784  10.709 -0.0354 -1.6860  0.5395
12503TIP3    H258925   2.217   1.853  10.828  0.6765 -2.3827  1.3410
12504TIP3   OH258926   5.968   6.366  16.168  0.2041 -0.4037 -0.0806
12504TIP3    H158927   5.893   6.410  16.127  1.2446  1.2676 -0.2469
12504TIP3    H258928   5.989   6.295  16.108  1.7404  2.0227 -2.6256
12505TIP3   OH258929   1.202   6.756  12.021 -0.1941 -0.0939  0.2991
12505TIP3    H158930   1.272   6.811  12.057  0.6352 -0.8303 -0.1398
12505TIP3    H258931   1.122   6.806  12.037  0.4663  0.9535  0.4726
12506TIP3   OH258932   5.052   6.173  15.640 -0.4632  0.2131 -0.2732
12506TIP3    H158933   5.131   6.123  15.665  0.6269  0.7811 -2.3803
12506TIP3    H258934   5.018   6.126  15.564 -2.1639  0.0223  0.5765
12507TIP3   OH258935   5.861   6.677   5.904  1.1188 -0.2419  0.0864
12507TIP3    H158936   5.775   6.641   5.927  0.2005  0.4437 -2.0237
12507TIP3    H258937   5.873   6.750   5.965 -0.5162  0.5838 -0.5069
12508TIP3   OH258938   0.105   1.531  13.696 -0.1886 -0.2064  0.2857
12508TIP3    H158939   0.097   1.440  13.666  0.3144 -0.3986  0.7234
12508TIP3    H258940   0.016   1.554  13.723 -0.7409  0.0931 -1.6347
12509TIP3   OH258941   5.348   4.738  10.860 -0.4582  0.1038 -0.2389
12509TIP3    H158942   5.260   4.706  10.840 -0.4533  0.7509 -1.3780
12509TIP3    H258943   5.400   4.658  10.873 -0.9300 -0.3182 -0.8655
12510TIP3   OH258944   3.537   2.003   6.220 -0.2596  0.2764 -0.0189
12510TIP3    H158945   3.483   2.077   6.247  1.2182  1.0916  0.7916
12510TIP3    H258946   3.479   1.951   6.164 -1.5060  1.7204 -0.1400
12511TIP3   OH258947   4.512   0.010   2.387  0.4741 -0.2948  0.3923
12511TIP3    H158948   4.557   0.068   2.449  2.1719  0.0455 -1.0485
12511TIP3    H258949   4.579  -0.054   2.361 -0.1411 -0.3602 -1.1533
12512TIP3   OH258950   2.348   3.865   5.778 -0.2545  0.3205 -0.3002
12512TIP3    H158951   2.366   3.897   5.866 -0.1203  1.4747 -0.7314
12512TIP3    H258952   2.407   3.914   5.721  0.6777 -1.4175 -0.9083
12513TIP3   OH258953   6.470   2.310   1.209  0.6158 -0.1027  0.5864
12513TIP3    H158954   6.423   2.291   1.128 -0.0991  0.3448  0.8862
12513TIP3    H258955   6.513   2.228   1.232  1.9360  0.1286 -0.9543
12514TIP3   OH258956   1.883   2.466  13.232 -0.0441 -0.8749  0.1940
12514TIP3    H158957   1.883   2.490  13.325  1.5276 -0.0547  0.0251
12514TIP3    H258958   1.927   2.381  13.229  0.9064 -0.4020  0.1310
12515TIP3   OH258959   6.182   2.276   3.833  0.3535 -0.2857  0.0858
12515TIP3    H158960   6.222   2.340   3.774  3.5705 -0.5594  1.7556
12515TIP3    H258961   6.198   2.191   3.793 -0.6679 -0.2881 -0.3475
12516TIP3   OH258962   0.445   5.320  11.604 -0.8460  0.0832  0.0071
12516TIP3    H158963   0.435   5.375  11.527 -1.1176 -0.2615 -0.2046
12516TIP3    H258964   0.427   5.231  11.573 -0.2549 -0.1504  0.3057
12517TIP3   OH258965   0.054   1.996   0.102 -0.1416  0.0092  0.0681
12517TIP3    H158966   0.080   2.081   0.067  0.6060  0.0159  0.6093
12517TIP3    H258967  -0.036   2.008   0.131 -0.2842  0.4025 -0.5351
12518TIP3   OH258968   5.482   5.648   3.510 -0.1568 -0.7729 -0.0897
12518TIP3    H158969   5.560   5.690   3.475 -0.3366 -0.2703  0.0988
12518TIP3    H258970   5.512   5.602   3.589 -0.1665 -0.0435  0.3486
12519TIP3   OH258971   1.476   4.923   0.699 -0.2510  0.4373 -0.1213
12519TIP3    H158972   1.521   4.929   0.615  0.4717  0.3674  0.2502
12519TIP3    H258973   1.510   4.842   0.739 -1.8533 -0.4615 -0.4821
12520TIP3   OH258974   3.184   2.967  13.453 -0.3118 -0.3219  0.0538
12520TIP3    H158975   3.245   3.016  13.398  0.0610 -0.6781  0.1455
12520TIP3    H258976   3.099   3.008  13.437 -0.6326 -1.7855 -2.4736
12521TIP3   OH258977   5.974   3.517  16.986  0.0410 -0.0828 -0.2966
12521TIP3    H158978   5.942   3.430  17.010 -1.4437  0.4155 -0.3259
12521TIP3    H258979   5.914   3.577  17.030  0.4696  0.9065 -1.0294
12522TIP3   OH258980   3.560   1.426   3.982  0.1242 -0.1916 -0.1161
12522TIP3    H158981   3.535   1.462   4.067 -0.3567 -1.6140  0.3731
12522TIP3    H258982   3.653   1.408   3.990  0.0734 -0.3539  0.1279
12523TIP3   OH258983   1.028   1.984  11.435  0.0839  0.0202  0.1167
12523TIP3    H158984   0.988   1.969  11.521  1.1596 -0.4279  0.5459
12523TIP3    H258985   1.099   1.921  11.430 -0.7119 -0.8098 -1.6290
12524TIP3   OH258986   1.328   5.591   5.256  0.3968 -0.3041  0.0164
12524TIP3    H158987   1.254   5.652   5.258  1.1198  0.5703  1.7820
12524TIP3    H258988   1.391   5.632   5.197  0.1097 -0.2988 -0.2936
12525TIP3   OH258989   2.866   1.441  11.737  0.1770  0.4707 -0.4919
12525TIP3    H158990   2.809   1.442  11.660  1.4151  0.9772 -1.4303
12525TIP3    H258991   2.845   1.522  11.784  0.4095  0.8619 -1.0577
12526TIP3   OH258992   5.899   3.232  16.045 -0.5270  0.0536 -0.1216
12526TIP3    H158993   5.907   3.208  16.137 -0.2065  0.0962 -0.1396
12526TIP3    H258994   5.935   3.320  16.039  0.3124 -0.3067 -0.4571
12527TIP3   OH258995   5.176   1.869   2.441  0.2378  0.6748 -0.1939
12527TIP3    H158996   5.187   1.964   2.441  1.8785  0.5463  1.6496
12527TIP3    H258997   5.263   1.833   2.425 -0.1870 -0.5093 -0.0280
12528TIP3   OH258998   2.869   3.525   2.903  0.2960  0.7066  0.0773
12528TIP3    H158999   2.852   3.607   2.949 -1.7409  0.3181  0.0875
12528TIP3    H259000   2.818   3.532   2.822  0.5531 -0.3305 -0.1859
12529TIP3   OH259001   3.336   4.764   4.754  0.0689 -0.1250 -0.6386
12529TIP3    H159002   3.315   4.857   4.759 -1.0964 -0.2644 -2.1923
12529TIP3    H259003   3.420   4.756   4.799 -0.8088  1.3072  1.4165
12530TIP3   OH259004   0.362   2.402   0.871 -0.2561 -0.3005  0.0959
12530TIP3    H159005   0.358   2.449   0.788  0.9183 -0.4844 -0.0832
12530TIP3    H259006   0.281   2.352   0.874 -0.7292  0.4121 -0.5067
12531TIP3   OH259007   2.180   0.411   2.419  0.3761 -0.2715  0.3607
12531TIP3    H159008   2.147   0.490   2.462 -1.4371 -1.0720  0.5344
12531TIP3    H259009   2.226   0.443   2.342 -0.7110  0.9593  0.1888
12532TIP3   OH259010   1.660   0.178   2.566 -0.3302  0.2794 -0.4124
12532TIP3    H159011   1.606   0.100   2.555  0.4008 -0.2860 -0.0859
12532TIP3    H259012   1.734   0.149   2.619 -0.7043  1.5044  0.8435
12533TIP3   OH259013   1.610   6.509  11.264 -0.3075  0.3982 -0.2446
12533TIP3    H159014   1.677   6.552  11.211 -0.5101  1.3455  0.2515
12533TIP3    H259015   1.651   6.498  11.350 -0.4444  0.0591 -0.2198
12534TIP3   OH259016   2.944   0.835  12.063  0.4868 -0.1319  0.0182
12534TIP3    H159017   2.922   0.915  12.111  1.4995  0.7927 -0.9956
12534TIP3    H259018   3.037   0.822  12.079  0.3336 -1.1159  0.1627
12535TIP3   OH259019   5.677   5.636  11.867 -0.4990 -0.5647  0.0981
12535TIP3    H159020   5.669   5.716  11.815  0.8573 -1.5926 -1.8010
12535TIP3    H259021   5.757   5.649  11.918 -0.7943 -0.3522  0.5212
12536TIP3   OH259022   1.137   1.284  10.962  0.1852 -0.1489  0.1752
12536TIP3    H159023   1.156   1.376  10.982  1.2417 -0.0113 -1.3264
12536TIP3    H259024   1.048   1.286  10.926 -0.8291 -0.1059  2.4819
12537TIP3   OH259025   0.816   2.927   0.149  0.2004 -0.2207  0.0588
12537TIP3    H159026   0.905   2.905   0.179 -0.3970  0.1054  2.2545
12537TIP3    H259027   0.802   3.017   0.179 -0.3257  0.3314 -1.7032
12538TIP3   OH259028   5.218   0.834  13.796  0.0889 -0.1250 -0.1690
12538TIP3    H159029   5.138   0.784  13.787 -1.4758  1.8799  1.4341
12538TIP3    H259030   5.251   0.812  13.884  0.1545  0.5601 -0.0107
12539TIP3   OH259031   4.776   5.716  16.945 -0.1206 -0.2737 -0.1223
12539TIP3    H159032   4.774   5.708  16.849 -0.4045 -0.6184 -0.0865
12539TIP3    H259033   4.866   5.696  16.968  0.0689  0.2723 -0.3571
12540TIP3   OH259034   2.698   5.493  11.573 -0.5419 -0.0909 -0.3861
12540TIP3    H159035   2.717   5.457  11.487  1.0312 -1.9270  0.6466
12540TIP3    H259036   2.605   5.473  11.587 -0.3613 -1.4389 -0.9314
12541TIP3   OH259037   0.583   1.486   1.994 -0.1046  0.2842  0.3100
12541TIP3    H159038   0.671   1.509   2.021 -0.2006  2.2619 -0.8476
12541TIP3    H259039   0.526   1.536   2.052 -0.4498 -0.3219  0.4999
12542TIP3   OH259040   0.598   3.037  13.234  0.0057 -0.0503 -0.2442
12542TIP3    H159041   0.618   3.130  13.245 -2.6561  0.5057  0.6205
12542TIP3    H259042   0.628   2.997  13.316  1.3675 -0.0348 -0.7127
12543TIP3   OH259043   5.105   1.224  16.290  0.0850  0.3299  0.5932
12543TIP3    H159044   5.026   1.278  16.293  0.3349  0.6701  1.2914
12543TIP3    H259045   5.087   1.158  16.223 -1.0119  0.0711  1.1195
12544TIP3   OH259046   5.498   0.291   5.650  0.0776 -0.1611 -0.2069
12544TIP3    H159047   5.413   0.247   5.645 -0.1289  0.2589 -0.4962
12544TIP3    H259048   5.562   0.221   5.660 -0.2602 -0.5133 -0.5065
12545TIP3   OH259049   2.969   1.173   0.241 -0.1221  0.1587  0.5152
12545TIP3    H159050   3.019   1.249   0.270  1.6093 -0.8412  0.3314
12545TIP3    H259051   2.997   1.102   0.299 -1.3780 -0.4433  0.4178
12546TIP3   OH259052   4.859   3.530   4.752 -0.1084 -0.2290  0.0129
12546TIP3    H159053   4.900   3.499   4.832 -0.3851 -0.7823 -0.0538
12546TIP3    H259054   4.910   3.490   4.681  0.1137  0.2280 -0.0928
12547TIP3   OH259055   1.980   4.538   4.118 -0.5578 -0.0366 -0.1181
12547TIP3    H159056   2.073   4.555   4.102 -0.7472  1.2152  0.0014
12547TIP3    H259057   1.943   4.625   4.135 -2.2784 -0.1092 -2.8661
12548TIP3   OH259058   2.449   0.447   5.035 -0.4894 -0.0685 -0.1360
12548TIP3    H159059   2.439   0.431   4.942 -0.3008 -0.9218 -0.0138
12548TIP3    H259060   2.407   0.533   5.049 -0.7356 -0.0469 -0.9504
12549TIP3   OH259061   4.123   5.141   5.445  0.3322  0.1109  0.3734
12549TIP3    H159062   4.072   5.218   5.469 -0.1690 -0.9783  3.1076
12549TIP3    H259063   4.157   5.107   5.528  3.0414 -0.9589 -1.0279
12550TIP3   OH259064   3.139   5.649   2.256 -0.0570 -0.1013 -0.0720
12550TIP3    H159065   3.135   5.629   2.162 -1.7752  0.5753 -0.1678
12550TIP3    H259066   3.143   5.744   2.260 -1.7672 -0.0173  0.5402
12551TIP3   OH259067   4.825   4.864  10.683  0.2163 -0.2315  0.1279
12551TIP3    H159068   4.766   4.908  10.744 -0.0037 -1.1249  0.5746
12551TIP3    H259069   4.768   4.808  10.630  0.5071 -0.1031 -0.3254
12552TIP3   OH259070   1.400   0.441  13.702 -0.0942 -0.0770 -0.1601
12552TIP3    H159071   1.369   0.493  13.627 -0.0294 -0.5287 -0.5056
12552TIP3    H259072   1.385   0.497  13.778  1.2954  1.0383 -0.6627
12553TIP3   OH259073   4.184   2.479  11.790 -0.3560 -0.0805 -0.5434
12553TIP3    H159074   4.269   2.523  11.792 -1.5050  2.4374 -1.9305
12553TIP3    H259075   4.175   2.439  11.876  2.5419 -1.1606 -0.6298
12554TIP3   OH259076   1.418   5.050   1.923  0.2660  0.2047  0.4376
12554TIP3    H159077   1.421   5.083   2.012  0.9712  1.7276 -0.1071
12554TIP3    H259078   1.509   5.030   1.901  0.1818  0.3817 -0.1087
12555TIP3   OH259079   5.638   4.470   3.572  0.0253 -0.0893 -0.5042
12555TIP3    H159080   5.619   4.542   3.632 -0.1679  1.2621 -2.0985
12555TIP3    H259081   5.733   4.457   3.580  0.2394  1.0687 -0.9324
12556TIP3   OH259082   3.199   6.108   1.656  0.1583  0.2447  0.1050
12556TIP3    H159083   3.245   6.025   1.647 -0.4417 -0.1313  0.4273
12556TIP3    H259084   3.251   6.170   1.604  1.0467 -0.1506  0.4897
12557TIP3   OH259085   3.130   5.126  16.071  0.1906  0.0790 -0.1045
12557TIP3    H159086   3.208   5.070  16.071  0.0012 -0.2459 -1.5831
12557TIP3    H259087   3.164   5.215  16.068  0.5322 -0.0674 -1.0604
12558TIP3   OH259088   4.609   6.452  12.407 -0.0066  0.0736  0.1397
12558TIP3    H159089   4.677   6.396  12.444  0.4684 -0.2138 -1.1006
12558TIP3    H259090   4.597   6.419  12.318 -0.2444  1.4699 -0.3762
12559TIP3   OH259091   4.835   1.323  11.999 -0.1538 -0.4012 -0.3734
12559TIP3    H159092   4.748   1.361  11.994  0.5745  1.3774 -0.1980
12559TIP3    H259093   4.863   1.314  11.908 -0.2086 -0.2113 -0.4098
12560TIP3   OH259094   5.819   4.365  12.322 -0.3151 -0.2322 -0.2535
12560TIP3    H159095   5.758   4.437  12.301  0.5489  0.6479  0.1924
12560TIP3    H259096   5.879   4.362  12.247  0.6328  0.5972  0.4469
12561TIP3   OH259097   4.810   4.034  13.693  0.0475 -0.1625 -1.1470
12561TIP3    H159098   4.759   3.953  13.700 -0.1154 -0.0129 -0.5376
12561TIP3    H259099   4.889   4.009  13.646  0.7741 -1.0396  0.4758
12562TIP3   OH259100   2.782   3.987   4.980 -0.0042  0.4830 -0.4090
12562TIP3    H159101   2.874   3.972   5.003  0.1796  0.6301 -1.0513
12562TIP3    H259102   2.735   3.917   5.025  0.5912 -0.5513 -1.3529
12563TIP3   OH259103   6.488   6.178  13.794  0.1186 -0.4939 -0.1190
12563TIP3    H159104   6.571   6.166  13.841  0.6272 -2.4925 -1.4026
12563TIP3    H259105   6.427   6.119  13.838 -0.8091  1.3288  1.1298
12564TIP3   OH259106   6.101   6.592   3.165  0.3477 -0.1911  0.1694
12564TIP3    H159107   6.163   6.560   3.099  0.9957  1.3972 -0.0542
12564TIP3    H259108   6.153   6.595   3.246  0.6482  1.2816 -0.0491
12565TIP3   OH259109   5.495   4.457  13.613  0.2596  0.4196 -0.2863
12565TIP3    H159110   5.567   4.483  13.669 -0.4162  1.1985  0.2361
12565TIP3    H259111   5.491   4.525  13.545  0.3204  0.1224 -0.5905
12566TIP3   OH259112   3.079   1.328  16.975 -0.2745  0.7714  0.0906
12566TIP3    H159113   3.048   1.401  17.027 -2.1804 -0.7587  1.2306
12566TIP3    H259114   3.167   1.311  17.009 -1.3328  0.0116  2.7385
12567TIP3   OH259115   1.729   2.314  15.228 -0.1000  0.5805  0.6025
12567TIP3    H159116   1.781   2.393  15.211 -2.7613  2.5973  1.0088
12567TIP3    H259117   1.700   2.324  15.319 -1.8352  0.0082  0.1456
12568TIP3   OH259118   2.454   3.392  13.399  0.3441 -0.5826  0.2111
12568TIP3    H159119   2.498   3.413  13.316  0.5369  0.2867  0.5237
12568TIP3    H259120   2.515   3.423  13.467 -0.9684  1.1839  0.6608
12569TIP3   OH259121   1.648   4.211   5.515 -0.6594  0.7379  0.1635
12569TIP3    H159122   1.585   4.272   5.554  1.2259  2.0290  1.4398
12569TIP3    H259123   1.733   4.251   5.534  0.5825 -1.2899 -0.8095
12570TIP3   OH259124   1.670   0.959  16.362 -0.3551 -0.1212 -1.1656
12570TIP3    H159125   1.744   0.906  16.393 -1.7854 -1.5017  0.0837
12570TIP3    H259126   1.675   0.955  16.267  1.0388 -0.3910 -1.0953
12571TIP3   OH259127   1.924   3.550  12.975 -0.0098  0.6931  0.4936
12571TIP3    H159128   1.922   3.456  12.993 -1.7297  0.7853  0.9332
12571TIP3    H259129   1.927   3.591  13.061 -2.8049  1.0531  0.5056
12572TIP3   OH259130   0.783   3.917   3.837 -0.8886  0.1900  0.1352
12572TIP3    H159131   0.759   3.989   3.896 -1.0891 -0.1312  0.4460
12572TIP3    H259132   0.848   3.956   3.778  1.8322 -0.2726  2.5786
12573TIP3   OH259133   0.286   1.171   2.515  0.1471 -0.7488 -0.0675
12573TIP3    H159134   0.256   1.105   2.577 -0.8023 -0.7518 -0.5199
12573TIP3    H259135   0.284   1.127   2.430 -0.9745 -0.0122 -0.4459
12574TIP3   OH259136   3.694   5.418  13.820  0.1211  0.4197 -0.0611
12574TIP3    H159137   3.669   5.377  13.903  0.2463 -1.5533 -0.9408
12574TIP3    H259138   3.611   5.446  13.781  0.0616  1.3611  0.6989
12575TIP3   OH259139   1.548   3.288  13.927 -0.5570  0.0034  0.2429
12575TIP3    H159140   1.621   3.264  13.869 -0.4227 -0.2242  0.5060
12575TIP3    H259141   1.477   3.313  13.867  0.7390  3.4953 -0.0543
12576TIP3   OH259142   4.654   3.047  11.826 -0.8833  0.4702  0.2769
12576TIP3    H159143   4.673   3.115  11.892 -0.6452 -0.6295  1.3878
12576TIP3    H259144   4.560   3.032  11.835 -0.7292 -0.1907  0.9071
12577TIP3   OH259145   5.715   2.616  16.144 -0.1954  0.0628 -0.4294
12577TIP3    H159146   5.631   2.625  16.098 -0.3898 -0.6066 -0.2089
12577TIP3    H259147   5.775   2.583  16.077  0.0431  1.0637 -0.7362
12578TIP3   OH259148   3.868   2.575  12.898  0.1347 -0.1687 -0.1965
12578TIP3    H159149   3.921   2.610  12.826  0.2844 -1.1229 -0.5668
12578TIP3    H259150   3.846   2.651  12.951  0.5493  0.4614 -0.9146
12579TIP3   OH259151   3.852   5.915  11.435  0.1111  0.0289 -0.5447
12579TIP3    H159152   3.824   5.824  11.446 -0.2290  0.2560  0.6049
12579TIP3    H259153   3.925   5.911  11.372  0.4462 -1.0993 -0.1036
12580TIP3   OH259154   5.128   3.779  12.410 -0.3255 -0.1866 -0.4420
12580TIP3    H159155   5.080   3.856  12.378  0.0800  0.9688  1.5269
12580TIP3    H259156   5.189   3.757  12.340 -0.7579  1.0408 -1.2298
12581TIP3   OH259157   6.030   4.557  14.681  0.0363  0.8560 -0.1426
12581TIP3    H159158   5.976   4.635  14.692  1.4505  2.1224 -1.6665
12581TIP3    H259159   5.987   4.509  14.610 -0.3314  0.7055  0.1789
12582TIP3   OH259160   0.982   2.479   2.126 -0.2863 -0.3348  0.1591
12582TIP3    H159161   0.963   2.387   2.106 -0.0360 -0.6971  1.5274
12582TIP3    H259162   0.919   2.528   2.072 -1.6016 -1.3589  0.7042
12583TIP3   OH259163   4.191   5.036   5.697 -0.4987 -0.3074  0.4008
12583TIP3    H159164   4.128   5.047   5.768 -3.0488 -1.3848 -1.5406
12583TIP3    H259165   4.226   4.948   5.709 -1.2675 -0.6616  0.0957
12584TIP3   OH259166   6.177   5.620   4.784 -0.2795  0.4581 -0.0539
12584TIP3    H159167   6.189   5.528   4.811  0.0402  0.5938  0.2866
12584TIP3    H259168   6.174   5.668   4.867 -0.4955  0.7518 -0.2313
12585TIP3   OH259169   1.549   4.361  17.044 -0.2628 -0.2266  0.0785
12585TIP3    H159170   1.461   4.367  17.008 -0.6218  0.0739  0.9684
12585TIP3    H259171   1.585   4.280  17.007 -2.1197 -2.1817  2.1800
12586TIP3   OH259172   4.208   1.706   2.904 -0.1953 -0.5848 -0.8868
12586TIP3    H159173   4.182   1.689   2.994  0.1346 -2.7176 -1.1570
12586TIP3    H259174   4.156   1.783   2.879 -0.3928 -0.0328  1.0404
12587TIP3   OH259175   0.945   0.517   2.544  0.0541 -0.0244  0.4333
12587TIP3    H159176   0.878   0.493   2.608  1.0756  0.6675  1.8063
12587TIP3    H259177   0.965   0.609   2.563  0.2608  0.2553 -1.0128
12588TIP3   OH259178   1.348   4.201  12.519 -0.0211  0.8077 -0.2631
12588TIP3    H159179   1.389   4.283  12.493  1.0310  0.8130  1.2783
12588TIP3    H259180   1.421   4.139  12.525 -0.9749 -0.7639 -3.0430
12589TIP3   OH259181   6.412   6.668   5.822 -0.2369 -0.5988  0.0645
12589TIP3    H159182   6.351   6.732   5.858  0.1092 -0.9052  1.2288
12589TIP3    H259183   6.365   6.585   5.825  0.6326 -1.0734  2.1625
12590TIP3   OH259184   4.629   1.210  15.474 -0.4525  0.2718 -0.8864
12590TIP3    H159185   4.631   1.299  15.440 -2.6447  0.6763 -0.1149
12590TIP3    H259186   4.634   1.154  15.396 -0.8567  1.1059 -1.5244
12591TIP3   OH259187   3.935   1.978  16.024  0.1604 -0.3905  0.0892
12591TIP3    H159188   3.860   1.919  16.018  0.1822 -0.3986 -0.1167
12591TIP3    H259189   3.950   1.988  16.118 -0.8045  0.5161  0.1609
12592TIP3   OH259190   4.278   5.960   3.149  0.1192 -0.5156 -0.4155
12592TIP3    H159191   4.194   5.942   3.190  0.6506  0.8801  1.4142
12592TIP3    H259192   4.273   5.917   3.063 -2.8093  0.3894 -0.7953
12593TIP3   OH259193   3.803   1.362  15.730 -0.2415  0.0905 -0.0729
12593TIP3    H159194   3.856   1.357  15.809 -0.3072 -0.8626 -0.0771
12593TIP3    H259195   3.714   1.341  15.759 -0.4280  0.6424 -0.2417
12594TIP3   OH259196   0.540   3.489   3.911 -0.0514  0.2387 -0.2063
12594TIP3    H159197   0.634   3.505   3.903 -0.1702  1.4350  0.5580
12594TIP3    H259198   0.510   3.552   3.976 -1.4537  0.1227 -0.6996
12595TIP3   OH259199   0.238   4.611   0.883  0.4677  0.0152 -0.0952
12595TIP3    H159200   0.195   4.535   0.845 -0.9183  1.2435 -1.1073
12595TIP3    H259201   0.206   4.616   0.973  0.8893 -0.8049  0.1073
12596TIP3   OH259202   2.058   1.855  16.233 -0.3626  0.4207 -0.0092
12596TIP3    H159203   2.032   1.783  16.292 -0.8238  1.9334  1.7227
12596TIP3    H259204   2.140   1.888  16.271 -0.4231  1.1363 -0.4909
12597TIP3   OH259205   3.957   4.914   5.596  0.2025 -0.7496  0.5215
12597TIP3    H159206   3.960   4.819   5.604  0.2338 -0.6091  2.6769
12597TIP3    H259207   4.041   4.945   5.630 -0.5546  0.1229  1.6724
12598TIP3   OH259208   5.854   5.954  15.698 -0.0801 -0.3157  0.2475
12598TIP3    H159209   5.843   5.897  15.774 -0.1230 -0.6745 -0.0262
12598TIP3    H259210   5.895   5.898  15.632 -0.4595 -0.1267 -0.1479
12599TIP3   OH259211   2.304   4.318  11.621  0.0123  0.0322  0.0635
12599TIP3    H159212   2.359   4.318  11.543  1.0440  0.5100  0.7633
12599TIP3    H259213   2.364   4.337  11.693 -1.4706  3.9123  0.5229
12600TIP3   OH259214   1.522   3.033   4.617  0.2232  0.0082 -0.0380
12600TIP3    H159215   1.521   2.968   4.547 -0.1616 -0.7256  0.6285
12600TIP3    H259216   1.430   3.059   4.626  0.4378  0.9862 -0.6021
12601TIP3   OH259217   2.884   4.741   1.018  0.4544  0.1037 -0.0665
12601TIP3    H159218   2.814   4.724   0.955 -0.9394 -1.8791  1.8803
12601TIP3    H259219   2.893   4.836   1.019 -1.3751  0.3333 -1.2636
12602TIP3   OH259220   1.462   0.034   5.298  0.3046  0.0809 -0.2087
12602TIP3    H159221   1.534   0.010   5.356 -1.4529 -1.1000  1.6296
12602TIP3    H259222   1.400   0.079   5.355 -0.7717  0.3684 -1.5574
12603TIP3   OH259223   6.501   3.815   2.531  0.0958  0.3888  0.3005
12603TIP3    H159224   6.430   3.805   2.594 -1.4145  1.7681 -1.1122
12603TIP3    H259225   6.576   3.772   2.574 -1.5537 -1.2134  1.7972
12604TIP3   OH259226   0.939   4.403  13.908 -0.5679  0.2452 -0.5388
12604TIP3    H159227   0.910   4.366  13.991 -0.8477 -0.7044 -1.0433
12604TIP3    H259228   1.030   4.430  13.924 -0.0951 -1.3650 -0.3521
12605TIP3   OH259229   4.438   5.342   4.197  0.1887  0.3756  0.0753
12605TIP3    H159230   4.444   5.335   4.292  0.6269  2.8652  0.2930
12605TIP3    H259231   4.348   5.369   4.180 -0.0894 -0.7430 -0.2923
12606TIP3   OH259232   0.010   5.595   0.549  0.4822 -0.1722  0.0189
12606TIP3    H159233   0.068   5.667   0.577  0.6740 -0.9424  1.7749
12606TIP3    H259234  -0.068   5.639   0.516  0.0237  0.8943  2.3198
12607TIP3   OH259235   0.361   1.249  14.786 -0.4811 -0.2182  0.0797
12607TIP3    H159236   0.415   1.171  14.771 -0.2131  0.0360 -0.2988
12607TIP3    H259237   0.279   1.215  14.823 -2.1853 -1.1592 -4.0568
12608TIP3   OH259238   3.099   1.371   5.790 -0.1997  0.3401 -0.5354
12608TIP3    H159239   3.080   1.452   5.837 -0.6908  0.1865 -0.4672
12608TIP3    H259240   3.193   1.376   5.772 -0.0248  0.4650  0.3536
12609TIP3   OH259241   5.930   2.363   0.604  0.0649  0.3774  0.1463
12609TIP3    H159242   5.944   2.287   0.661  0.9024  2.0244  2.2777
12609TIP3    H259243   5.837   2.358   0.582  0.6886 -3.0441 -2.6145
12610TIP3   OH259244   5.150   5.591  12.519  0.1151 -0.1562 -0.0123
12610TIP3    H159245   5.153   5.496  12.507  1.4831 -0.1480  0.0620
12610TIP3    H259246   5.192   5.626  12.440 -1.2604  0.4564 -0.5114
12611TIP3   OH259247   3.011   0.303   2.658  0.5166  0.3150  0.5771
12611TIP3    H159248   3.003   0.221   2.707 -1.4481 -0.7469 -1.3474
12611TIP3    H259249   2.974   0.369   2.716 -2.6113 -1.0604  0.3580
12612TIP3   OH259250   1.955   4.028   2.023 -0.1152  0.4891 -0.2935
12612TIP3    H159251   1.923   4.078   2.099 -1.0092  0.3857 -0.5990
12612TIP3    H259252   2.017   3.966   2.061 -0.8918  0.1283  0.4240
12613TIP3   OH259253   0.728   1.042  14.877 -0.1094 -0.1464 -0.2685
12613TIP3    H159254   0.768   0.957  14.860  0.0553  0.1131 -1.2491
12613TIP3    H259255   0.639   1.035  14.842 -0.7732 -0.5429  1.4151
12614TIP3   OH259256   4.768   6.486   0.846  0.2267  0.4667 -0.3113
12614TIP3    H159257   4.757   6.448   0.759 -1.8367  0.0424  0.0758
12614TIP3    H259258   4.807   6.415   0.898 -0.4817 -0.0027 -0.4032
12615TIP3   OH259259   3.987   2.898   0.328 -0.2359 -0.4417 -0.2455
12615TIP3    H159260   3.970   2.936   0.414  1.3768  0.9142 -0.4914
12615TIP3    H259261   4.082   2.901   0.318 -0.3335 -1.2865 -1.7781
12616TIP3   OH259262   5.045   1.332  12.659  0.6213  0.1064 -0.0641
12616TIP3    H159263   5.066   1.410  12.608 -0.0153  0.7986  0.7030
12616TIP3    H259264   5.009   1.270  12.595 -1.4460  1.4501 -0.2996
12617TIP3   OH259265   4.515   6.751   1.341 -0.3805 -0.6508  0.1713
12617TIP3    H159266   4.551   6.687   1.280 -2.5183 -1.6950 -0.1013
12617TIP3    H259267   4.462   6.809   1.286  3.3337  3.0611 -0.0084
12618TIP3   OH259268   0.344   0.589   4.984  0.4866 -0.0531  0.1420
12618TIP3    H159269   0.253   0.560   4.978  0.2371  0.6630  0.3046
12618TIP3    H259270   0.396   0.514   4.956 -0.1452 -0.5483  0.2869
12619TIP3   OH259271   0.430   4.456   3.642  0.6473 -0.3885  0.3158
12619TIP3    H159272   0.509   4.417   3.678  0.3209 -2.7064 -1.3005
12619TIP3    H259273   0.359   4.401   3.674  0.0989 -0.7762 -1.4622
12620TIP3   OH259274   4.119   4.395  11.156 -0.4106 -0.1876 -0.0655
12620TIP3    H159275   4.035   4.367  11.118 -1.2205  0.4659  1.1659
12620TIP3    H259276   4.185   4.362  11.096 -1.4780 -2.0178 -0.2845
12621TIP3   OH259277   2.877   4.429  11.097  0.1845  0.0263 -0.1982
12621TIP3    H159278   2.791   4.403  11.064 -0.1897  0.3138  0.5070
12621TIP3    H259279   2.937   4.411  11.025 -0.6590  1.1200 -1.2134
12622TIP3   OH259280   5.824   6.490  11.982  0.0645 -0.1573 -0.2014
12622TIP3    H159281   5.912   6.503  11.947 -0.2858 -0.1167 -1.0913
12622TIP3    H259282   5.765   6.529  11.917 -0.5701  0.8118  0.9042
12623TIP3   OH259283   2.993   6.093  14.919  0.0235  0.0786 -0.3476
12623TIP3    H159284   3.033   6.010  14.941 -0.0739 -0.1618 -1.0380
12623TIP3    H259285   3.024   6.112  14.830 -1.2529 -0.0451 -0.8512
12624TIP3   OH259286   3.923   1.479   2.791 -0.0890  0.0011 -0.2920
12624TIP3    H159287   3.858   1.422   2.832  0.2156  0.6137  1.0724
12624TIP3    H259288   3.884   1.566   2.793  0.6159  0.3164  0.2132
12625TIP3   OH259289   0.649   3.760  16.854 -0.5446 -0.2910  0.0088
12625TIP3    H159290   0.587   3.825  16.821 -1.1275 -1.1503 -0.6522
12625TIP3    H259291   0.716   3.811  16.899 -2.9263  0.5930  2.8560
12626TIP3   OH259292   6.379   2.955   2.785  0.9328 -0.0085 -0.0380
12626TIP3    H159293   6.352   2.982   2.697 -1.7652 -1.1520  0.3330
12626TIP3    H259294   6.359   3.030   2.840 -1.4071 -0.6998  0.1667
12627TIP3   OH259295   0.735   3.746  11.714 -0.1025  0.1912 -0.0458
12627TIP3    H159296   0.707   3.689  11.643 -2.2409  1.3242 -0.2169
12627TIP3    H259297   0.831   3.740  11.714 -0.1950 -3.3168 -0.0206
12628TIP3   OH259298   5.195   0.157  15.116  0.4359 -0.2582  0.5347
12628TIP3    H159299   5.147   0.075  15.103  1.8550 -1.3489  1.8645
12628TIP3    H259300   5.143   0.205  15.181 -0.1667 -0.2844  0.0803
12629TIP3   OH259301   3.310   5.195   1.168  0.8354  0.3919  0.5617
12629TIP3    H159302   3.269   5.115   1.200  0.2926  0.5229  0.2126
12629TIP3    H259303   3.282   5.202   1.077  0.9638  0.9249  0.5559
12630TIP3   OH259304   6.667   5.029  12.620  0.1330  0.2408  0.8005
12630TIP3    H159305   6.614   4.951  12.636 -0.3387  0.7321  1.7376
12630TIP3    H259306   6.604   5.101  12.615  0.6448  0.7264  1.1339
12631TIP3   OH259307   2.045   0.782   2.255 -0.2271  0.3102  0.2214
12631TIP3    H159308   2.115   0.773   2.191 -0.4492  1.3489 -0.1864
12631TIP3    H259309   2.011   0.693   2.267  0.1042  0.0437 -0.7635
12632TIP3   OH259310   0.075   4.912  15.486  0.1478 -0.0945 -0.7736
12632TIP3    H159311   0.037   4.825  15.497  2.1077 -1.0948 -1.5012
12632TIP3    H259312  -0.001   4.971  15.483 -1.1761 -1.6152  0.7554
12633TIP3   OH259313   5.141   0.398   6.311 -0.0099  0.3846  0.0742
12633TIP3    H159314   5.143   0.319   6.364 -0.1785  0.1732 -0.2319
12633TIP3    H259315   5.063   0.445   6.341 -0.5598 -0.1211 -0.5368
12634TIP3   OH259316   2.165   5.314  16.350 -0.1336  0.1019  0.3659
12634TIP3    H159317   2.086   5.346  16.394  0.2759  1.7534 -0.0627
12634TIP3    H259318   2.132   5.249  16.288 -1.0640  0.1501  0.7829
12635TIP3   OH259319   3.304   1.021   6.456  0.2653  0.1548 -1.0619
12635TIP3    H159320   3.269   0.993   6.540  0.4265 -1.8537 -1.5991
12635TIP3    H259321   3.227   1.047   6.405 -0.3300 -2.2064 -1.5090
12636TIP3   OH259322   0.161   6.517  10.485  0.0726  0.0296  0.2387
12636TIP3    H159323   0.132   6.464  10.559 -0.7330  0.9469  0.5979
12636TIP3    H259324   0.249   6.546  10.509 -0.9400  2.0411  1.8383
12637TIP3   OH259325   0.875   3.224  13.826  0.4589  0.1085 -0.1522
12637TIP3    H159326   0.870   3.146  13.771 -0.6085 -0.4791  0.7270
12637TIP3    H259327   0.932   3.283  13.778 -0.8272 -0.1597 -2.1589
12638TIP3   OH259328   3.124   4.116  11.464  0.5110  0.5908  0.1038
12638TIP3    H159329   3.202   4.124  11.409  0.9563 -0.4770  0.5602
12638TIP3    H259330   3.060   4.073  11.408  0.9151 -0.3599  0.3650
12639TIP3   OH259331   3.483   4.041  13.263 -0.2130  0.4103 -0.3608
12639TIP3    H159332   3.430   3.964  13.283 -0.1468  0.3683 -0.3498
12639TIP3    H259333   3.549   4.045  13.332 -1.1260  1.3192  0.5039
12640TIP3   OH259334   5.038   6.037   4.350  0.1258 -0.6565  0.4321
12640TIP3    H159335   5.019   6.094   4.275 -0.7750 -0.8894  0.4752
12640TIP3    H259336   5.117   5.989   4.324  0.8998  0.5916  0.3964
12641TIP3   OH259337   2.864   1.038  14.238  0.0968 -0.5853  0.8377
12641TIP3    H159338   2.835   0.956  14.198  0.1456 -0.5325  0.6935
12641TIP3    H259339   2.857   1.023  14.332 -0.0947 -0.6824  0.8080
12642TIP3   OH259340   4.535   0.757   4.764  0.3059  0.7521 -0.2580
12642TIP3    H159341   4.583   0.678   4.737  0.6241  1.0355 -0.5313
12642TIP3    H259342   4.446   0.741   4.736  0.6963  1.1814 -1.7950
12643TIP3   OH259343   5.332   4.185  10.747 -0.9498  0.3308  0.2467
12643TIP3    H159344   5.252   4.191  10.799 -0.8835 -0.2927  0.4319
12643TIP3    H259345   5.331   4.263  10.692 -0.6819  1.3423  1.6402
12644TIP3   OH259346   6.088   6.013   5.315  0.6069  0.0682  0.1230
12644TIP3    H159347   6.034   5.961   5.256 -0.4097  1.4409 -0.2171
12644TIP3    H259348   6.068   6.104   5.292  1.7798  0.6270  1.1711
12645TIP3   OH259349   0.580   3.161   4.419  0.2596 -0.3623  0.3638
12645TIP3    H159350   0.581   3.198   4.507 -1.3644  0.8317 -0.0646
12645TIP3    H259351   0.562   3.236   4.362 -0.7262 -1.4227 -0.7728
12646TIP3   OH259352   3.334   2.768   1.704  0.5222  0.3056 -0.0854
12646TIP3    H159353   3.407   2.756   1.643  0.0887  1.1348 -0.7998
12646TIP3    H259354   3.273   2.825   1.656  1.2065  2.9417  1.9379
12647TIP3   OH259355   3.460   1.159   0.791  0.4971 -0.0185  0.4209
12647TIP3    H159356   3.545   1.174   0.750  0.5377 -0.9535  0.1594
12647TIP3    H259357   3.473   1.081   0.845 -0.3637 -0.5511 -0.1256
12648TIP3   OH259358   0.217   5.971   4.808  0.4310  0.3235  0.2371
12648TIP3    H159359   0.306   5.975   4.843  0.4349 -0.9722  0.4585
12648TIP3    H259360   0.228   5.959   4.714  0.4982  0.2384  0.2556
12649TIP3   OH259361   6.500   4.405   0.038 -0.6029 -0.2448 -0.1746
12649TIP3    H159362   6.480   4.349  -0.036  1.2574  0.9318 -1.6433
12649TIP3    H259363   6.439   4.478   0.029 -0.6736 -0.3179 -0.2879
12650TIP3   OH259364   2.252   2.973  13.590  0.3493  0.2784  0.1783
12650TIP3    H159365   2.337   3.011  13.567  1.3714 -2.0143 -0.1209
12650TIP3    H259366   2.267   2.932  13.676 -0.1858 -0.8815 -0.2641
12651TIP3   OH259367   4.597   2.916   3.876 -0.1783 -0.3576 -0.1795
12651TIP3    H159368   4.663   2.982   3.854 -1.2236  0.9398  0.4186
12651TIP3    H259369   4.647   2.840   3.903  1.0920  0.8402  0.9757
12652TIP3   OH259370   4.047   4.166  15.322 -0.6486  0.5341 -0.0520
12652TIP3    H159371   3.991   4.200  15.252 -1.0961  1.8340  0.8979
12652TIP3    H259372   4.064   4.075  15.297 -1.5477  0.7033 -1.3741
12653TIP3   OH259373   3.654   5.091   1.609 -0.4411 -0.0295  0.0414
12653TIP3    H159374   3.598   5.163   1.580 -0.2761  0.8835  1.8274
12653TIP3    H259375   3.732   5.134   1.645  0.2157 -1.1630  0.0351
12654TIP3   OH259376   5.336   6.227  14.640  0.3698 -0.3967  0.0613
12654TIP3    H159377   5.340   6.155  14.577  0.0876 -0.7456  0.4368
12654TIP3    H259378   5.301   6.301  14.589 -0.5830 -0.8805 -0.0175
12655TIP3   OH259379   3.277   5.319   3.884 -0.0811  0.0429 -0.0719
12655TIP3    H159380   3.330   5.307   3.963 -1.6221  0.1032  1.0110
12655TIP3    H259381   3.212   5.249   3.887 -0.3484  0.2209 -1.1404
12656TIP3   OH259382   6.179   2.432   4.281  0.5379  0.4040  0.1988
12656TIP3    H159383   6.217   2.350   4.312 -0.3887  0.2408  0.9583
12656TIP3    H259384   6.088   2.410   4.261  0.6321  0.9509 -0.8610
12657TIP3   OH259385   3.838   4.848   3.955  0.2908  0.5493  0.6907
12657TIP3    H159386   3.867   4.760   3.980 -1.7180 -0.4224 -0.2086
12657TIP3    H259387   3.749   4.855   3.991  0.4191  2.2302  0.7493
12658TIP3   OH259388   3.701   0.132   0.374 -0.1651  0.2685 -0.4066
12658TIP3    H159389   3.623   0.077   0.373 -0.2405  0.3868 -1.2126
12658TIP3    H259390   3.680   0.206   0.318  1.0252 -0.4030 -1.7898
12659TIP3   OH259391   2.610   2.009   1.426 -0.1965  0.1889 -0.1142
12659TIP3    H159392   2.683   1.965   1.471 -0.1069  0.7866  0.3436
12659TIP3    H259393   2.592   1.954   1.350 -2.3049 -2.5200  2.1564
12660TIP3   OH259394   3.025   5.192  16.788 -0.5348 -0.0422  0.0168
12660TIP3    H159395   2.985   5.278  16.796 -0.3064  0.0312  0.4332
12660TIP3    H259396   3.008   5.150  16.873 -0.1742 -0.2021  0.0119
12661TIP3   OH259397   1.043   2.833   0.871  0.2369  0.1090  0.4982
12661TIP3    H159398   1.032   2.890   0.794 -2.5500  1.0400  1.4418
12661TIP3    H259399   0.979   2.867   0.934  2.0671 -0.9470  3.0630
12662TIP3   OH259400   2.721   1.929  12.073 -0.1328  0.3040 -0.2875
12662TIP3    H159401   2.679   1.937  11.987 -1.0689  3.5571  0.3395
12662TIP3    H259402   2.651   1.898  12.131  0.3312 -1.2431 -0.4866
12663TIP3   OH259403   3.528   2.626   5.651 -0.0765  0.2504 -0.2833
12663TIP3    H159404   3.443   2.590   5.629 -0.2280 -0.3012  1.1239
12663TIP3    H259405   3.562   2.569   5.720  0.0654  2.2245  1.3839
12664TIP3   OH259406   5.700   6.601  15.031  0.3809  0.1236  0.2439
12664TIP3    H159407   5.630   6.654  15.069  0.5306  0.2396  0.3549
12664TIP3    H259408   5.667   6.511  15.035 -0.8648  0.3948 -2.0301
12665TIP3   OH259409   4.240   2.790   4.141  0.3284 -0.0523 -0.3752
12665TIP3    H159410   4.330   2.767   4.165 -0.5749 -1.3380  2.0597
12665TIP3    H259411   4.194   2.707   4.136 -1.1386  0.6743  0.2764
12666TIP3   OH259412   3.153   6.022  15.620  0.0586  0.2124  0.4066
12666TIP3    H159413   3.171   5.931  15.601 -0.7481  0.1579 -0.1410
12666TIP3    H259414   3.133   6.062  15.535  0.7247  0.9795  0.5901
12667TIP3   OH259415   3.103   0.623   4.126 -0.1027  0.5713 -0.2293
12667TIP3    H159416   3.074   0.539   4.160  1.1333  0.0974 -0.2797
12667TIP3    H259417   3.132   0.672   4.203 -2.8605  1.8791  0.1127
12668TIP3   OH259418   5.898   5.090  13.610 -0.4586 -0.3076 -0.0174
12668TIP3    H159419   5.904   5.011  13.557 -2.4105 -1.7600  1.7257
12668TIP3    H259420   5.960   5.077  13.681 -1.0331 -0.4381  0.4636
12669TIP3   OH259421   3.778   6.751   2.539 -0.6231  0.5992  0.0251
12669TIP3    H159422   3.840   6.824   2.539 -0.6067  0.5915  0.8616
12669TIP3    H259423   3.782   6.716   2.628  0.7369 -1.5656 -0.7854
12670TIP3   OH259424   2.163   1.364   1.301  0.1641  0.5475 -0.0161
12670TIP3    H159425   2.254   1.333   1.300  0.5974  1.6776  1.4793
12670TIP3    H259426   2.156   1.416   1.381 -1.6581  0.9491 -0.3936
12671TIP3   OH259427   3.206   1.855   3.250 -0.6452  0.1688 -0.1132
12671TIP3    H159428   3.243   1.855   3.339 -1.5260 -0.3672  0.2587
12671TIP3    H259429   3.214   1.765   3.220 -1.8698 -0.0106  0.0692
12672TIP3   OH259430   4.537   1.470   6.132 -0.1832 -0.0689 -0.3133
12672TIP3    H159431   4.538   1.485   6.038 -1.1910 -0.7514 -0.4493
12672TIP3    H259432   4.621   1.504   6.163  0.8865 -1.3063 -1.6937
12673TIP3   OH259433   5.583   1.088   2.442  0.4326 -0.1663 -0.2154
12673TIP3    H159434   5.494   1.116   2.422  0.9991  2.2436  0.2202
12673TIP3    H259435   5.609   1.144   2.516  2.5628 -0.2194 -0.8496
12674TIP3   OH259436   2.702   4.838  12.736 -0.1277 -0.0876 -0.0744
12674TIP3    H159437   2.695   4.900  12.663  0.1611 -0.7687 -0.6898
12674TIP3    H259438   2.612   4.820  12.761 -0.2846 -0.7795 -1.0695
12675TIP3   OH259439   5.453   5.909  15.387 -0.0866 -0.3886  0.2502
12675TIP3    H159440   5.374   5.950  15.421 -0.1073 -0.2171 -0.0022
12675TIP3    H259441   5.519   5.921  15.455 -0.3506 -0.7743  0.5795
12676TIP3   OH259442   3.271   4.823  15.743  0.3642  0.2650 -0.1692
12676TIP3    H159443   3.356   4.839  15.701  0.2748 -1.1772 -0.9681
12676TIP3    H259444   3.228   4.759  15.686 -0.9935  0.4670  0.5858
12677TIP3   OH259445   4.495   5.457   5.434  0.2892  0.0221  0.5662
12677TIP3    H159446   4.526   5.539   5.395  0.1497 -0.8472 -1.5076
12677TIP3    H259447   4.571   5.422   5.480  0.5846  0.8850  0.7627
12678TIP3   OH259448   2.632   5.174   3.336 -0.4090 -0.0830  0.6630
12678TIP3    H159449   2.663   5.261   3.309 -0.3370 -0.5055 -0.7226
12678TIP3    H259450   2.676   5.158   3.419  1.6545  0.1577 -0.2955
12679TIP3   OH259451   2.657   2.055  16.734 -0.1183 -0.3849 -0.3402
12679TIP3    H159452   2.650   2.132  16.791  0.7829  1.1437 -2.1797
12679TIP3    H259453   2.735   2.010  16.764  0.7144  0.7575 -0.7321
12680TIP3   OH259454   1.385   4.048  17.306 -0.7608 -0.2756  0.2109
12680TIP3    H159455   1.462   4.086  17.348 -1.1295  0.2806  0.3928
12680TIP3    H259456   1.403   3.954  17.303 -0.5410 -0.2748  1.2288
12681TIP3   OH259457   3.478   0.821   4.290  0.3473 -0.1895 -0.2234
12681TIP3    H159458   3.461   0.898   4.237  2.5692 -0.1451 -0.9518
12681TIP3    H259459   3.546   0.773   4.243  1.5214 -0.7968  1.9556
12682TIP3   OH259460   3.064   0.452  11.952 -0.2950 -0.8721  0.4500
12682TIP3    H159461   3.149   0.420  11.982  0.4283  1.8039  1.6047
12682TIP3    H259462   3.058   0.424  11.861  2.2630 -0.4163  0.0566
12683TIP3   OH259463   5.928   0.029  11.996  0.7090 -0.2418  0.2297
12683TIP3    H159464   5.878   0.041  12.077  0.1022 -0.1844 -0.1531
12683TIP3    H259465   6.000   0.091  12.003  0.7613 -0.3573  0.8042
12684TIP3   OH259466   6.626   5.618   5.369  0.0090  0.2676  0.3216
12684TIP3    H159467   6.561   5.616   5.440  0.2348  0.7339  0.5523
12684TIP3    H259468   6.699   5.566   5.402 -0.7180 -1.2968 -0.4356
12685TIP3   OH259469   0.778   6.028  13.684  0.1775 -0.5027 -0.4695
12685TIP3    H159470   0.697   6.044  13.732 -0.3643 -0.1079 -1.4773
12685TIP3    H259471   0.838   5.991  13.749 -0.4754  0.1427  0.5231
12686TIP3   OH259472   6.232   6.054  15.638 -0.1664 -0.3598  0.2509
12686TIP3    H159473   6.190   6.095  15.713  0.8686 -2.0496  1.8237
12686TIP3    H259474   6.175   5.980  15.616  0.8129 -1.3757  1.0308
12687TIP3   OH259475   6.210   4.508   1.728  0.1056  0.0777 -0.4175
12687TIP3    H159476   6.264   4.580   1.761  0.7315 -0.7724  0.4936
12687TIP3    H259477   6.256   4.429   1.757 -0.3743 -0.6999 -1.6909
12688TIP3   OH259478   5.774   6.746  16.451  0.0819  0.0989  0.2637
12688TIP3    H159479   5.696   6.785  16.412  0.3905  2.5376  1.8612
12688TIP3    H259480   5.744   6.663  16.487 -1.3869  0.2281 -0.6020
12689TIP3   OH259481   6.127   2.796  14.721 -0.1956 -0.6115  0.2023
12689TIP3    H159482   6.085   2.881  14.706 -1.4299 -1.2945 -0.4104
12689TIP3    H259483   6.127   2.753  14.636  3.2723 -0.0630 -0.1937
12690TIP3   OH259484   3.717   2.565   1.547 -0.1081  0.1853 -0.2972
12690TIP3    H159485   3.791   2.593   1.492 -0.1549 -1.4380 -1.2325
12690TIP3    H259486   3.731   2.472   1.561  0.4494  0.6693  3.3847
12691TIP3   OH259487   0.718   4.034   1.645  0.3094  0.1735 -0.4194
12691TIP3    H159488   0.767   4.097   1.697  1.4347 -3.2488  3.1634
12691TIP3    H259489   0.626   4.047   1.670  0.5024  0.4949  0.1174
12692TIP3   OH259490   5.731   6.197  12.370  0.3046  0.4969 -0.4578
12692TIP3    H159491   5.687   6.192  12.285  0.1477 -0.6379 -0.3243
12692TIP3    H259492   5.691   6.127  12.422  0.2220  1.3271  0.6402
12693TIP3   OH259493   0.097   4.413  15.601 -0.1533 -0.6115  0.2676
12693TIP3    H159494   0.042   4.474  15.650  0.1593 -0.3466  0.2962
12693TIP3    H259495   0.121   4.346  15.665  1.7727  0.7109  1.0152
12694TIP3   OH259496   4.378   2.944   2.367  0.4477  0.3439 -0.1687
12694TIP3    H159497   4.364   2.852   2.346 -0.8156  0.9663 -2.2648
12694TIP3    H259498   4.468   2.947   2.400  0.4939 -1.6282  0.0015
12695TIP3   OH259499   1.601   3.042   1.176 -0.3547  0.3438 -0.0251
12695TIP3    H159500   1.622   3.036   1.082  0.1514 -1.9512  0.1707
12695TIP3    H259501   1.663   3.106   1.210  0.4861  0.0873 -1.0180
12696TIP3   OH259502   3.429   0.861  16.347 -0.2940  0.2597  0.9792
12696TIP3    H159503   3.350   0.811  16.368  0.2549 -2.6199 -2.7351
12696TIP3    H259504   3.403   0.916  16.273  0.7048  0.7987  1.0170
12697TIP3   OH259505   3.576   4.570   0.072  0.2102 -0.2087 -0.1366
12697TIP3    H159506   3.481   4.564   0.074  0.3115 -3.7302  0.0257
12697TIP3    H259507   3.601   4.545  -0.017  1.0226  1.5027 -0.4373
12698TIP3   OH259508   1.053   0.700   0.495 -0.0798 -0.0398 -0.7892
12698TIP3    H159509   1.013   0.705   0.583  1.3147 -1.7576  0.0030
12698TIP3    H259510   1.010   0.770   0.446 -2.0271 -0.0040  0.8013
12699TIP3   OH259511   5.705   3.792   0.476  0.0157 -0.3799 -0.5950
12699TIP3    H159512   5.758   3.716   0.452 -0.0564 -0.3381 -0.8893
12699TIP3    H259513   5.757   3.868   0.446 -0.2708 -0.3440 -1.0101
12700TIP3   OH259514   6.583   4.682   4.833  0.5946 -0.3936  0.2695
12700TIP3    H159515   6.672   4.691   4.800  0.5580  0.7496  0.4390
12700TIP3    H259516   6.545   4.610   4.783  2.0369 -1.8376  1.1395
12701TIP3   OH259517   0.409   5.993  17.236 -0.7419  0.3189  0.4853
12701TIP3    H159518   0.324   5.985  17.194 -0.5971  0.1279  0.2195
12701TIP3    H259519   0.392   5.977  17.329 -0.4521 -4.1210  0.0247
12702TIP3   OH259520   4.215   3.485  12.879 -0.2108  0.7721  0.6037
12702TIP3    H159521   4.217   3.550  12.809 -0.7285  1.8019  1.5138
12702TIP3    H259522   4.144   3.425  12.855 -1.7975  2.3014  1.2227
12703TIP3   OH259523   4.427   5.218  17.293 -0.1300  0.3453 -0.3673
12703TIP3    H159524   4.425   5.313  17.290 -0.9500  0.5179  2.4817
12703TIP3    H259525   4.516   5.196  17.321 -0.3922  0.3870  0.5196
12704TIP3   OH259526   1.979   1.112  13.581  0.1770  0.3697  0.0009
12704TIP3    H159527   1.987   1.142  13.672  0.4849  1.1993 -0.2924
12704TIP3    H259528   2.019   1.181  13.529  0.0175 -0.1064 -0.7739
12705TIP3   OH259529   5.172   3.344   0.482  0.4179  0.9603 -0.3628
12705TIP3    H159530   5.174   3.296   0.399  2.0889  2.0619 -0.9983
12705TIP3    H259531   5.258   3.330   0.520  1.1327  3.6559 -0.7448
12706TIP3   OH259532   0.379   1.056  15.342 -0.2214 -0.1201  0.1503
12706TIP3    H159533   0.348   1.120  15.406 -0.0240 -1.2787  1.4399
12706TIP3    H259534   0.439   1.105  15.286 -1.3815  1.2236  0.0239
12707TIP3   OH259535   2.719   1.457  11.523 -0.2584  0.6654 -0.1653
12707TIP3    H159536   2.715   1.395  11.450 -1.2238  1.1276 -0.5358
12707TIP3    H259537   2.723   1.543  11.480 -1.9223  1.0084  0.2780
12708TIP3   OH259538   5.318   0.258  15.857 -0.0711 -0.0910 -0.1979
12708TIP3    H159539   5.367   0.337  15.880 -0.9979  0.0542  1.3904
12708TIP3    H259540   5.227   0.279  15.879 -0.6262 -0.9568 -1.5133
12709TIP3   OH259541   4.750   2.137   2.239  0.5560 -0.5883 -0.1138
12709TIP3    H159542   4.699   2.057   2.250  0.6527 -0.6398 -0.0280
12709TIP3    H259543   4.745   2.156   2.146  0.8506 -0.9075 -0.1976
12710TIP3   OH259544   2.999   3.134  12.026 -0.1473 -0.1689 -0.1568
12710TIP3    H159545   2.923   3.120  11.970  0.2977  0.3709 -0.9186
12710TIP3    H259546   3.049   3.203  11.982  0.5667 -0.2196  0.5465
12711TIP3   OH259547   2.052   6.325  17.177 -0.2545  0.2285 -0.2671
12711TIP3    H159548   2.111   6.270  17.125 -1.7527 -2.0678  0.2879
12711TIP3    H259549   2.017   6.389  17.115  0.5914 -0.2410 -1.2584
12712TIP3   OH259550   5.942   0.322   2.855 -0.0134  0.0977 -0.5497
12712TIP3    H159551   5.944   0.229   2.879 -0.2459  0.2666  0.1332
12712TIP3    H259552   5.851   0.349   2.869 -0.2867  0.0813 -2.1172
12713TIP3   OH259553   1.147   2.623  13.954 -0.1689 -0.0653  0.6989
12713TIP3    H159554   1.096   2.615  13.873  0.3364 -1.1048  0.4807
12713TIP3    H259555   1.112   2.703  13.995 -0.8996  0.1014 -0.2009
12714TIP3   OH259556   2.519   2.219  15.528 -0.6009 -0.0947 -0.0070
12714TIP3    H159557   2.538   2.129  15.554  0.9745  0.3864  0.6431
12714TIP3    H259558   2.512   2.216  15.433 -1.0048 -0.9619  0.0410
12715TIP3   OH259559   5.490   3.016   1.530  0.2415  0.2890 -0.2537
12715TIP3    H159560   5.407   2.971   1.549  0.0682  1.3315  1.7572
12715TIP3    H259561   5.546   2.996   1.605  0.5814  2.3631  0.1039
12716TIP3   OH259562   4.717   2.029   1.578 -0.1345 -0.2038  0.6325
12716TIP3    H159563   4.668   2.045   1.497  0.0172 -1.2998  0.3082
12716TIP3    H259564   4.809   2.028   1.550 -0.1645 -2.3866  0.4630
12717TIP3   OH259565   1.130   5.113   2.416  0.0871  0.0249 -0.8824
12717TIP3    H159566   1.175   5.167   2.481  0.1901 -0.6953 -0.3392
12717TIP3    H259567   1.152   5.023   2.440 -2.2239 -0.4102 -0.1462
12718TIP3   OH259568   1.099   0.141  14.006  0.1357 -0.2138  0.2627
12718TIP3    H159569   1.159   0.120  14.078 -1.9867 -1.4173  1.8075
12718TIP3    H259570   1.047   0.215  14.039 -0.1400 -0.0735 -0.4688
12719TIP3   OH259571   3.774   1.555  16.123  0.4981 -0.0161  0.5119
12719TIP3    H159572   3.800   1.473  16.080 -0.9243 -0.7378  0.9463
12719TIP3    H259573   3.720   1.526  16.197  0.1369  1.3190  0.7879
12720TIP3   OH259574   2.139   4.590  12.275 -0.2646  0.5888 -0.0036
12720TIP3    H159575   2.050   4.625  12.269  0.1236  1.5210 -0.5959
12720TIP3    H259576   2.186   4.631  12.203  0.6090 -0.0210  0.2030
12721TIP3   OH259577   0.887   2.284  16.986  0.7978 -0.2685 -0.6245
12721TIP3    H159578   0.979   2.304  17.001  0.9630 -1.2330 -0.2535
12721TIP3    H259579   0.863   2.225  17.058 -0.4616  0.9681  0.0230
12722TIP3   OH259580   6.352   2.115   4.068 -0.0885  0.2437  0.1040
12722TIP3    H159581   6.348   2.085   3.978  1.8225 -0.8083  0.3219
12722TIP3    H259582   6.372   2.208   4.062  2.1853 -0.2201 -0.6269
12723TIP3   OH259583   1.851   1.435  14.568 -0.0620  0.0176 -0.0653
12723TIP3    H159584   1.934   1.390  14.580  0.2441  0.6972  0.4278
12723TIP3    H259585   1.792   1.394  14.632 -0.1080 -0.4584 -0.4101
12724TIP3   OH259586   4.438   5.361   1.852  0.3261 -0.6504  0.0898
12724TIP3    H159587   4.517   5.413   1.840 -0.0612 -0.0176  0.2049
12724TIP3    H259588   4.437   5.340   1.945 -0.1864  0.2564  0.2991
12725TIP3   OH259589   0.227   0.735   0.024 -0.2488 -0.0946 -0.5594
12725TIP3    H159590   0.192   0.819   0.053 -0.6139 -0.9361  1.6172
12725TIP3    H259591   0.257   0.692   0.104  2.7513 -0.8356 -1.9163
12726TIP3   OH259592   1.653   6.693   0.563  0.4814 -0.0012 -0.0743
12726TIP3    H159593   1.581   6.719   0.505  0.8849 -2.3204 -1.7737
12726TIP3    H259594   1.729   6.741   0.528  0.2903  0.3766  0.0174
12727TIP3   OH259595   5.113   5.355   0.660  0.0361 -0.1640  0.2847
12727TIP3    H159596   5.034   5.353   0.713  0.4159 -1.2974  0.8296
12727TIP3    H259597   5.124   5.265   0.630  0.9515  0.0501 -0.0441
12728TIP3   OH259598   0.961   2.028  15.967 -0.3823 -0.2273 -0.3710
12728TIP3    H159599   0.885   1.985  15.929  0.6810 -1.4494 -1.2417
12728TIP3    H259600   1.001   1.961  16.024 -0.0128  0.4145  0.1393
12729TIP3   OH259601   3.545   2.410  15.370  0.4440 -0.1360 -0.0669
12729TIP3    H159602   3.601   2.401  15.447  2.4070  2.0707 -1.1175
12729TIP3    H259603   3.577   2.344  15.309 -0.1652 -0.9284  0.4595
12730TIP3   OH259604   6.357   6.530  14.966  0.2501 -0.6547 -0.0074
12730TIP3    H159605   6.294   6.469  14.927  0.6067 -0.6096 -0.6636
12730TIP3    H259606   6.312   6.615  14.963 -0.3463 -0.9042  1.1349
12731TIP3   OH259607   0.234   4.135  12.072  0.1269 -0.1685  0.1896
12731TIP3    H159608   0.198   4.200  12.012 -1.3754 -0.8853  0.2593
12731TIP3    H259609   0.166   4.067  12.078  2.0128 -2.2547 -0.6528
12732TIP3   OH259610   0.928   6.188  12.293 -0.6784  0.9289 -0.2944
12732TIP3    H159611   0.859   6.238  12.250  0.5435  2.2902 -0.7251
12732TIP3    H259612   0.920   6.210  12.385 -1.2520  0.5333 -0.2449
12733TIP3   OH259613   4.960   6.289   4.205 -0.2851 -0.0310 -0.4215
12733TIP3    H159614   4.910   6.306   4.285  1.5922  0.2952  0.7443
12733TIP3    H259615   4.916   6.340   4.137 -1.8088 -0.1686  0.4345
12734TIP3   OH259616   4.025   6.183  12.005 -0.1424  0.2807  0.0562
12734TIP3    H159617   4.117   6.185  11.978  0.2828  0.7663  1.4517
12734TIP3    H259618   3.976   6.186  11.923  1.0866  0.0774 -0.7097
12735TIP3   OH259619   0.431   0.929  16.225  0.4252  0.6895 -0.3782
12735TIP3    H159620   0.499   0.962  16.283  1.2067  0.9618 -1.4334
12735TIP3    H259621   0.349   0.963  16.262  1.0608  2.3679 -0.4659
12736TIP3   OH259622   4.004   6.393  12.349  0.3183  0.1064  0.3725
12736TIP3    H159623   3.968   6.308  12.324 -0.5784  0.9469 -1.3197
12736TIP3    H259624   4.020   6.438  12.266  0.1991  1.8315  1.2441
12737TIP3   OH259625   5.115   1.311   1.510 -1.0267 -0.1706  0.4772
12737TIP3    H159626   5.066   1.263   1.577 -0.9640  0.1513  0.7567
12737TIP3    H259627   5.077   1.281   1.427 -0.7985 -0.9041  0.6337
12738TIP3   OH259628   3.736   0.167  17.254 -0.2829  0.0714 -0.1212
12738TIP3    H159629   3.761   0.218  17.331 -0.3585 -0.0054 -0.0457
12738TIP3    H259630   3.761   0.077  17.276 -1.5241 -0.1742  0.3492
12739TIP3   OH259631   4.403   4.344   5.783 -0.6648  0.8430 -0.7342
12739TIP3    H159632   4.340   4.387   5.725  0.3075 -0.6314 -3.0037
12739TIP3    H259633   4.460   4.295   5.725 -1.2110 -2.9128  1.5605
12740TIP3   OH259634   4.399   2.018   0.556 -0.2715 -0.3510  0.2536
12740TIP3    H159635   4.430   2.108   0.546  1.3242 -0.9069 -0.1900
12740TIP3    H259636   4.343   2.003   0.479 -1.0836  0.4444  0.6691
12741TIP3   OH259637   3.757   2.496   4.855  0.5315 -0.6923 -0.3006
12741TIP3    H159638   3.704   2.561   4.900 -0.0854  0.0540 -2.0070
12741TIP3    H259639   3.847   2.525   4.866  0.3868 -0.4846  0.3569
12742TIP3   OH259640   5.078   3.365  10.425  0.6539 -0.4224 -0.1296
12742TIP3    H159641   4.985   3.372  10.447 -0.2398 -2.6117 -2.6881
12742TIP3    H259642   5.096   3.444  10.374  0.3538  0.2400  0.7680
12743TIP3   OH259643   3.175   6.200   2.070 -0.4472 -0.1191 -0.3760
12743TIP3    H159644   3.219   6.167   2.149  0.5547  2.0228  0.0333
12743TIP3    H259645   3.246   6.225   2.012 -1.0807  2.3802 -0.1559
12744TIP3   OH259646   2.744   4.747  13.570  0.5336 -0.2805 -0.1710
12744TIP3    H159647   2.755   4.702  13.487  0.1825 -1.1221  0.2231
12744TIP3    H259648   2.815   4.713  13.625 -0.3831 -1.2146  0.4790
12745TIP3   OH259649   4.882   0.702  13.262 -0.9346 -0.2169 -0.2791
12745TIP3    H159650   4.907   0.632  13.202 -0.4416 -0.2889  0.0086
12745TIP3    H259651   4.844   0.769  13.205  0.9341  0.3956 -0.8949
12746TIP3   OH259652   2.849   0.396  17.132 -0.2071  0.0369 -0.1607
12746TIP3    H159653   2.920   0.352  17.178 -2.2176 -3.8653 -0.4157
12746TIP3    H259654   2.798   0.438  17.201 -0.4483 -1.5290  0.6572
12747TIP3   OH259655   4.300   1.417  13.548  0.2929  0.8605 -0.1105
12747TIP3    H159656   4.374   1.453  13.498  0.3068  0.8270 -0.1130
12747TIP3    H259657   4.253   1.495  13.580 -0.5530  0.9160 -1.3983
12748TIP3   OH259658   6.480   4.859  15.357 -0.1897  0.2102  0.6637
12748TIP3    H159659   6.435   4.808  15.289  2.1456 -0.5082 -0.4541
12748TIP3    H259660   6.530   4.924  15.309  1.9954 -0.6955  1.5662
12749TIP3   OH259661   2.786   5.075  14.410 -0.4808 -0.1574 -0.2433
12749TIP3    H159662   2.864   5.095  14.463 -0.0000 -0.7706 -0.7018
12749TIP3    H259663   2.798   4.984  14.383 -0.3945  0.3092 -1.9109
12750TIP3   OH259664   0.128   2.904   3.301 -0.1814  0.1267 -0.4343
12750TIP3    H159665   0.082   2.917   3.384  0.7067  1.5131 -0.1162
12750TIP3    H259666   0.221   2.905   3.325  0.0587 -0.9529 -1.2662
12751TIP3   OH259667   1.753   0.554   0.444  0.0802 -0.1790 -0.2815
12751TIP3    H159668   1.692   0.485   0.472 -0.4266  0.3149 -0.1479
12751TIP3    H259669   1.763   0.610   0.521  1.0117 -0.4659 -0.1858
12752TIP3   OH259670   1.163   1.730   3.988 -0.1052  0.2714  0.0487
12752TIP3    H159671   1.191   1.666   4.053  2.1599  1.5653  0.4471
12752TIP3    H259672   1.163   1.682   3.906  0.2648 -0.5713  0.5225
12753TIP3   OH259673   0.773   0.853   3.909 -0.1286  0.3606 -0.0259
12753TIP3    H159674   0.810   0.917   3.848  3.0998 -1.3146 -0.0486
12753TIP3    H259675   0.744   0.781   3.853 -1.0083  0.5300  0.1946
12754TIP3   OH259676   4.866   1.608  12.877 -0.1670 -0.3283  0.0859
12754TIP3    H159677   4.845   1.624  12.785 -0.3720  0.9766  0.3459
12754TIP3    H259678   4.887   1.514  12.881  1.8543 -0.0129 -1.6496
12755TIP3   OH259679   0.870   2.862   4.586  0.5118  0.5527 -0.2358
12755TIP3    H159680   0.955   2.896   4.616  0.4825  1.5603 -1.2212
12755TIP3    H259681   0.809   2.887   4.656 -0.0330  5.1426 -1.9986
12756TIP3   OH259682   0.705   2.421   5.413  0.1022 -0.7123 -0.1707
12756TIP3    H159683   0.732   2.370   5.489 -2.2165 -1.8372 -0.0332
12756TIP3    H259684   0.618   2.389   5.392 -0.6136  1.7792 -1.3802
12757TIP3   OH259685   2.365   3.592   3.429 -0.2678  0.4710  1.2429
12757TIP3    H159686   2.388   3.540   3.352 -2.9351 -0.9433  1.2772
12757TIP3    H259687   2.427   3.565   3.496  0.4586 -0.2274  0.3104
12758TIP3   OH259688   0.863   2.696  13.604 -0.0797  0.0057  0.3081
12758TIP3    H159689   0.805   2.664  13.673 -1.1480  0.1908 -0.4678
12758TIP3    H259690   0.886   2.617  13.554 -1.1427  0.1514 -0.4485
12759TIP3   OH259691   2.022   2.004   0.865 -0.1118  0.1478  0.1029
12759TIP3    H159692   2.013   1.909   0.880  2.1890 -0.0758  0.5154
12759TIP3    H259693   1.996   2.016   0.774 -0.8016 -0.8195  0.1502
12760TIP3   OH259694   0.647   3.160   0.741 -0.0048  0.0633  0.1170
12760TIP3    H159695   0.656   3.065   0.753  1.1359  0.0155 -0.9379
12760TIP3    H259696   0.555   3.173   0.722 -0.4383 -0.6634  1.5280
12761TIP3   OH259697   2.917   6.354   2.674  0.0896 -0.4778  0.0227
12761TIP3    H159698   2.989   6.346   2.737  0.3647  1.8648  0.0704
12761TIP3    H259699   2.956   6.329   2.590  0.2008 -1.8707  0.4650
12762TIP3   OH259700   2.659   5.622  13.937  0.0266 -0.3670  0.0234
12762TIP3    H159701   2.587   5.642  13.877  0.7807  0.4129 -0.6516
12762TIP3    H259702   2.643   5.676  14.014  0.2776  0.3731 -0.4339
12763TIP3   OH259703   5.091   6.439  16.647  0.3387 -0.2935  0.1416
12763TIP3    H159704   5.099   6.355  16.603 -0.2084 -0.7202  0.8401
12763TIP3    H259705   5.134   6.427  16.732  0.0936  0.0685  0.3224
12764TIP3   OH259706   6.485   1.298  16.473  0.1527 -0.1943  1.4850
12764TIP3    H159707   6.411   1.341  16.430 -0.7278 -0.9463  2.1976
12764TIP3    H259708   6.478   1.325  16.565 -0.3449 -1.7016  1.9218
12765TIP3   OH259709   0.484   6.371   5.759  0.3310 -0.2454  0.1326
12765TIP3    H159710   0.404   6.422   5.763 -0.7377 -1.8139 -0.4085
12765TIP3    H259711   0.456   6.283   5.733  2.3819 -0.4286 -1.8016
12766TIP3   OH259712   5.714   0.349   4.067 -0.8947  0.6217 -0.0337
12766TIP3    H159713   5.714   0.372   3.974 -1.1317 -1.4421 -0.5874
12766TIP3    H259714   5.806   0.346   4.092 -0.7740 -0.0734 -0.5494
12767TIP3   OH259715   5.633   5.740  12.774 -0.7058  0.3845 -0.2041
12767TIP3    H159716   5.705   5.726  12.836 -2.7887 -1.0331  2.0919
12767TIP3    H259717   5.624   5.655  12.730 -1.8677  0.0599  0.6162
12768TIP3   OH259718   1.166   2.193   1.473 -0.1136 -0.1469  0.1316
12768TIP3    H159719   1.120   2.109   1.470  0.2951 -0.3458 -0.9879
12768TIP3    H259720   1.106   2.256   1.435  0.1959 -0.2408 -0.5187
12769TIP3   OH259721   2.872   4.449   1.141 -0.1972  0.5817  0.2360
12769TIP3    H159722   2.940   4.503   1.181 -0.5727  0.9803  0.3491
12769TIP3    H259723   2.916   4.367   1.119  0.1016  0.4904  1.1329
12770TIP3   OH259724   3.750   6.499  11.813  0.4330  0.0867 -0.3252
12770TIP3    H159725   3.815   6.428  11.804  0.3953 -0.0978  0.7906
12770TIP3    H259726   3.778   6.548  11.889  0.0415  0.8536 -0.6677
12771TIP3   OH259727   1.453   2.860  12.266  0.7803  0.0960  0.4337
12771TIP3    H159728   1.412   2.940  12.299  0.6461  0.0197  0.4504
12771TIP3    H259729   1.521   2.891  12.206  2.2383  0.3211  2.1186
12772TIP3   OH259730   2.401   2.495  12.652 -0.5740 -0.1555 -0.5654
12772TIP3    H159731   2.380   2.497  12.745 -0.0946 -1.7538 -0.3935
12772TIP3    H259732   2.341   2.430  12.615  0.1246 -0.5134 -1.1048
12773TIP3   OH259733   1.039   5.842   0.296  0.0652  0.0552  0.0403
12773TIP3    H159734   0.962   5.895   0.319  0.2911  0.9178 -1.0952
12773TIP3    H259735   1.003   5.757   0.272 -0.3826 -0.0548  1.0351
12774TIP3   OH259736   5.396   0.336   0.770  0.2743 -0.4702 -0.2634
12774TIP3    H159737   5.341   0.355   0.695  0.8716  2.3026 -0.0851
12774TIP3    H259738   5.345   0.274   0.823 -1.7937  0.4750 -1.0692
12775TIP3   OH259739   2.151   6.187   0.217  0.3531 -0.4633 -0.2124
12775TIP3    H159740   2.241   6.221   0.217 -0.3647  1.5890  0.0620
12775TIP3    H259741   2.103   6.248   0.161 -1.2553 -0.3746  1.1964
12776TIP3   OH259742   4.644   6.725   4.319 -0.0691  0.0472  0.2611
12776TIP3    H159743   4.687   6.810   4.308 -1.8554  0.9603  0.0435
12776TIP3    H259744   4.682   6.670   4.251  0.7677  0.8059  0.1032
12777TIP3   OH259745   5.508   6.045   0.910  0.1917  0.6113  0.0332
12777TIP3    H159746   5.599   6.070   0.926 -0.0217  1.5159 -0.0768
12777TIP3    H259747   5.500   6.044   0.815  0.3880 -0.6821  0.0076
12778TIP3   OH259748   3.177   1.944   2.588 -0.0077 -0.2840  0.5166
12778TIP3    H159749   3.190   1.988   2.672  0.6401  2.5327 -0.9202
12778TIP3    H259750   3.211   2.006   2.524  0.3316 -2.7066 -1.7901
12779TIP3   OH259751   4.734   2.256   5.401 -0.0733 -0.2835  0.1881
12779TIP3    H159752   4.706   2.201   5.329  0.5248 -2.4046  1.4696
12779TIP3    H259753   4.829   2.242   5.406  0.0089  0.4371  0.8923
12780TIP3   OH259754   5.513   2.415  12.742 -0.6421  0.2667  0.6991
12780TIP3    H159755   5.431   2.390  12.787 -1.2071  0.9143  0.0432
12780TIP3    H259756   5.509   2.368  12.659 -0.2177  0.1091  0.7669
12781TIP3   OH259757   3.725   1.183   0.701  0.0970  0.3779  0.3318
12781TIP3    H159758   3.798   1.183   0.638  0.9551 -0.8830  1.2613
12781TIP3    H259759   3.763   1.218   0.781  0.8445 -3.5710  1.9416
12782TIP3   OH259760   4.920   3.853  11.534 -0.3018  0.2567  0.2494
12782TIP3    H159761   4.926   3.943  11.500  0.0307  0.4603  0.8242
12782TIP3    H259762   4.911   3.865  11.629 -0.4924 -0.3156  0.3033
12783TIP3   OH259763   6.400   0.411   4.987 -0.2661 -0.1339 -0.6551
12783TIP3    H159764   6.457   0.451   5.052  0.5752  0.6505 -1.8352
12783TIP3    H259765   6.326   0.376   5.038  0.1122  0.8988  0.6512
12784TIP3   OH259766   0.081   4.270  16.501  0.4501 -0.5406  0.1239
12784TIP3    H159767   0.079   4.355  16.545  1.5981  0.7333 -2.0739
12784TIP3    H259768   0.137   4.215  16.556  1.0686  0.6639  0.7341
12785TIP3   OH259769   5.948   2.795  12.289  0.3489 -0.3379  0.0002
12785TIP3    H159770   5.986   2.722  12.241 -0.4218  0.0067 -1.1711
12785TIP3    H259771   6.023   2.846  12.319  0.9070 -1.7757  1.1450
12786TIP3   OH259772   1.402   0.954  15.324 -0.1458 -0.4494  0.1559
12786TIP3    H159773   1.459   1.029  15.343 -1.3700  0.2726  1.1631
12786TIP3    H259774   1.407   0.943  15.229  1.0880  0.0417  0.1388
12787TIP3   OH259775   2.540   1.113   3.568 -0.1906 -0.4059  0.3712
12787TIP3    H159776   2.514   1.110   3.476  0.8071  1.2374 -0.0050
12787TIP3    H259777   2.634   1.128   3.566  0.1511 -2.1005  1.6975
12788TIP3   OH259778   2.486   1.267  11.087 -0.2390  0.3329  0.4810
12788TIP3    H159779   2.504   1.197  11.024 -0.6647  2.0480 -1.6457
12788TIP3    H259780   2.391   1.273  11.090 -0.3433 -1.1972  3.0868
12789TIP3   OH259781   5.080   6.463  15.062 -0.1345  0.4022  0.0002
12789TIP3    H159782   5.057   6.555  15.074 -1.0688  0.4052 -1.5326
12789TIP3    H259783   5.137   6.462  14.985  0.3025 -0.2575  0.3196
12790TIP3   OH259784   4.388   0.471   2.529  0.0785  0.4685 -0.1190
12790TIP3    H159785   4.465   0.525   2.510 -0.0322  0.2742 -1.1832
12790TIP3    H259786   4.381   0.473   2.624  2.0072 -0.3461  0.0978
12791TIP3   OH259787   2.555   5.727   3.477 -0.2410  0.1460 -0.6401
12791TIP3    H159788   2.650   5.725   3.491 -0.2129 -0.3256 -0.8848
12791TIP3    H259789   2.525   5.640   3.502 -0.6896  0.4662 -0.0411
12792TIP3   OH259790   5.265   0.605   2.853 -0.5930  0.2028 -0.2302
12792TIP3    H159791   5.198   0.602   2.784 -0.0087  1.1124 -0.8505
12792TIP3    H259792   5.300   0.516   2.856 -0.4157  0.2193 -1.3261
12793TIP3   OH259793   5.936   3.661  13.660  0.0627 -0.4551  0.2144
12793TIP3    H159794   5.935   3.668  13.755 -1.0477 -0.3609  0.2128
12793TIP3    H259795   6.027   3.674  13.635  0.6303 -1.9888  1.3603
12794TIP3   OH259796   5.179   6.730   0.253  0.2280 -0.2788 -0.4085
12794TIP3    H159797   5.233   6.719   0.175  1.5363 -1.2782  0.6024
12794TIP3    H259798   5.169   6.641   0.288  0.9640  0.3138  1.3983
12795TIP3   OH259799   3.555   5.933  14.038  0.0899  0.2774  0.1766
12795TIP3    H159800   3.535   6.025  14.024 -0.4658  0.1077 -0.1778
12795TIP3    H259801   3.596   5.905  13.956  1.0582  0.4170  0.5963
12796TIP3   OH259802   0.790   0.258   5.473 -0.2282 -0.2940  0.3431
12796TIP3    H159803   0.794   0.194   5.544 -0.4235  0.7438  1.3152
12796TIP3    H259804   0.810   0.207   5.394 -2.5845 -2.0131  0.7488
12797TIP3   OH259805   5.992   1.495   3.370  0.0779 -0.8356 -0.1323
12797TIP3    H159806   5.904   1.485   3.332  0.0645  0.7179 -0.5411
12797TIP3    H259807   6.031   1.408   3.361 -1.3236 -1.4927 -0.1641
12798TIP3   OH259808   2.076   1.308  13.186 -0.1885 -0.0670 -0.0304
12798TIP3    H159809   2.120   1.295  13.271  1.1773 -0.2984 -0.7429
12798TIP3    H259810   2.036   1.395  13.193 -1.3632 -0.6737  1.3711
12799TIP3   OH259811   6.068   0.724  14.560  0.1752 -0.0782  0.2306
12799TIP3    H159812   5.998   0.701  14.622 -1.2980  1.5074 -0.7534
12799TIP3    H259813   6.041   0.808  14.523  2.5861  0.5647 -0.2800
12800TIP3   OH259814   4.613   4.654   0.060  0.0204 -0.1996 -0.1586
12800TIP3    H159815   4.566   4.712  -0.001  1.4547  0.9447 -0.2249
12800TIP3    H259816   4.705   4.661   0.033  0.3281 -1.8699  0.3856
12801TIP3   OH259817   3.600   5.038  15.222 -0.2672 -0.3868  0.0897
12801TIP3    H159818   3.672   5.031  15.284  0.5774  1.5889 -0.5962
12801TIP3    H259819   3.534   5.090  15.268 -0.5361 -0.6995  0.0685
12802TIP3   OH259820   1.489   5.920   2.876  0.6826 -0.0715  0.3842
12802TIP3    H159821   1.581   5.900   2.857  0.2816 -1.4086 -0.3144
12802TIP3    H259822   1.491   5.972   2.956  2.0333 -0.2027  0.4565
12803TIP3   OH259823   1.839   6.163  12.619  0.2204 -0.3554 -0.2295
12803TIP3    H159824   1.878   6.162  12.531  1.2194  0.4739  0.1779
12803TIP3    H259825   1.906   6.124  12.675  0.4059  0.8731  0.4520
12804TIP3   OH259826   1.627   3.934  16.461  0.1093  0.4128 -0.5433
12804TIP3    H159827   1.627   3.854  16.514 -2.2381  0.3842 -0.4746
12804TIP3    H259828   1.716   3.969  16.470  0.4213 -0.7574  1.6300
12805TIP3   OH259829   0.800   6.650  15.583 -0.8326 -0.5665  0.6136
12805TIP3    H159830   0.803   6.743  15.606 -3.2479 -0.7195  1.8534
12805TIP3    H259831   0.864   6.609  15.642 -0.5864  0.1690  0.8688
12806TIP3   OH259832   2.531   2.697  16.341  0.7439  0.1127  0.7235
12806TIP3    H159833   2.581   2.678  16.421  0.0616  0.0911  1.1599
12806TIP3    H259834   2.480   2.618  16.325  0.7276  0.1920  0.3827
12807TIP3   OH259835   1.469   4.440   0.804 -0.6511 -0.1172 -0.4594
12807TIP3    H159836   1.530   4.375   0.836 -0.7608 -0.7985 -1.5716
12807TIP3    H259837   1.500   4.461   0.715 -0.7588  1.1624 -0.2254
12808TIP3   OH259838   5.369   3.146  16.210  0.1300 -0.3044 -0.1975
12808TIP3    H159839   5.282   3.177  16.234  0.1560  1.5458 -2.2396
12808TIP3    H259840   5.360   3.116  16.119  1.5409 -0.3800 -0.3379
12809TIP3   OH259841   1.708   0.645  11.596  0.3196  0.1052  0.2632
12809TIP3    H159842   1.800   0.665  11.580  1.1245 -2.1355  1.6171
12809TIP3    H259843   1.683   0.587  11.524  0.2067  0.0930  0.3119
12810TIP3   OH259844   4.276   2.467  11.348  0.1425 -0.2175  0.0808
12810TIP3    H159845   4.209   2.401  11.331  0.5536 -0.0791 -2.4679
12810TIP3    H259846   4.358   2.424  11.324  0.3310  1.4142 -2.5105
12811TIP3   OH259847   0.533   0.571   3.962 -0.7691  0.0809  0.6578
12811TIP3    H159848   0.603   0.590   3.900 -0.6605  0.8471  1.0026
12811TIP3    H259849   0.471   0.518   3.913  0.1550 -0.8128  0.4131
12812TIP3   OH259850   0.971   6.063  15.189  0.0057  0.0704 -0.4227
12812TIP3    H159851   0.943   6.015  15.111 -0.2364  0.6124 -0.6784
12812TIP3    H259852   0.897   6.120  15.210  0.9172  1.5816 -1.1589
12813TIP3   OH259853   4.882   0.767   5.554  0.3115  0.2898  0.6990
12813TIP3    H159854   4.923   0.743   5.471  0.4257 -0.3507  0.9374
12813TIP3    H259855   4.808   0.823   5.529  0.5334  0.3598  0.1892
12814TIP3   OH259856   4.262   5.502  14.180 -0.8327 -0.1254 -0.5042
12814TIP3    H159857   4.330   5.534  14.121  0.3051 -1.7165 -0.1465
12814TIP3    H259858   4.205   5.577  14.194 -0.1375  0.7854 -2.2015
12815TIP3   OH259859   1.918   2.675  17.260 -0.1302  0.4069 -0.3907
12815TIP3    H159860   1.882   2.756  17.297 -2.7487 -0.2548 -1.2763
12815TIP3    H259861   1.975   2.641  17.329  0.8447  2.8302  0.0974
12816TIP3   OH259862   1.730   0.488   0.165  0.3710  0.5000  0.2168
12816TIP3    H159863   1.819   0.493   0.131  0.6011 -1.7976  0.3561
12816TIP3    H259864   1.740   0.498   0.260  0.6628 -1.0777  0.3709
12817TIP3   OH259865   6.742   0.503   2.691  0.7540  0.0121 -0.4076
12817TIP3    H159866   6.722   0.572   2.754  1.6494 -0.3513  0.3027
12817TIP3    H259867   6.666   0.500   2.632 -0.5715 -0.3162  1.2435
12818TIP3   OH259868   2.799   2.191  11.937  0.1334  0.2812 -0.2436
12818TIP3    H159869   2.835   2.113  11.978 -0.1608  0.7610  0.9775
12818TIP3    H259870   2.870   2.256  11.942  0.1739  0.2796 -0.7191
12819TIP3   OH259871   0.015   5.629   0.048  0.8925 -0.4146 -0.1094
12819TIP3    H159872  -0.049   5.577  -0.001 -1.6710  2.5932 -0.2249
12819TIP3    H259873   0.067   5.672  -0.019  1.3904 -0.9195 -0.0522
12820TIP3   OH259874   6.312   4.639  14.574  0.2730 -0.3087 -0.0345
12820TIP3    H159875   6.227   4.651  14.618 -0.0546  0.1278 -0.7821
12820TIP3    H259876   6.309   4.549  14.541 -0.9682  0.5070 -2.2952
12821TIP3   OH259877   3.028   1.723  15.414 -0.6075  0.3292  0.2010
12821TIP3    H159878   3.037   1.799  15.472  1.3888 -0.1976  0.6502
12821TIP3    H259879   3.065   1.752  15.331 -1.1846  0.2933 -0.0725
12822TIP3   OH259880   4.011   2.947   3.124  0.1664  0.6492 -0.3595
12822TIP3    H159881   4.037   2.919   3.212 -0.0656  0.6683 -0.2835
12822TIP3    H259882   4.019   3.042   3.126 -0.4125  0.6992 -0.1681
12823TIP3   OH259883   4.045   1.843   5.074 -0.1535  0.0663  0.2053
12823TIP3    H159884   3.970   1.785   5.090  0.0753 -1.0308 -2.2506
12823TIP3    H259885   4.010   1.910   5.014  0.5956  0.0744 -0.2302
12824TIP3   OH259886   4.513   3.101   1.678  0.2523  0.7919  1.0175
12824TIP3    H159887   4.549   3.055   1.754  2.1736 -0.9032 -0.8120
12824TIP3    H259888   4.576   3.170   1.659 -0.1954  1.1775  0.8916
12825TIP3   OH259889   1.343   3.809  15.300 -0.0259 -0.2231 -0.0407
12825TIP3    H159890   1.366   3.719  15.275 -3.8580 -1.9563  1.7938
12825TIP3    H259891   1.308   3.849  15.221  0.3783 -0.8475 -0.5391
12826TIP3   OH259892   1.856   0.292   4.824 -0.1401  0.1268  0.1154
12826TIP3    H159893   1.939   0.258   4.791 -0.4157  0.8594 -1.4248
12826TIP3    H259894   1.792   0.222   4.807  0.1423 -0.4676  1.3705
12827TIP3   OH259895   5.300   4.822   6.575 -0.6876  0.0436 -0.1961
12827TIP3    H159896   5.350   4.817   6.656 -2.3426  1.4479  0.9947
12827TIP3    H259897   5.260   4.736   6.567 -0.1520 -0.2541  0.2271
12828TIP3   OH259898   1.860   1.431   2.510  0.4405 -0.4702  0.2611
12828TIP3    H159899   1.773   1.471   2.521  0.9583  1.0812 -0.9925
12828TIP3    H259900   1.891   1.463   2.425  1.7342 -2.0041  0.1118
12829TIP3   OH259901   5.473   0.311  13.676  0.0739 -0.2590  0.1064
12829TIP3    H159902   5.464   0.338  13.584  1.1491  1.2208  0.3779
12829TIP3    H259903   5.429   0.380  13.725  0.4800 -0.4402  0.7358
12830TIP3   OH259904   5.398   4.537   3.813  0.2585 -0.3809 -0.1289
12830TIP3    H159905   5.321   4.521   3.758 -0.3266 -0.1897  0.6065
12830TIP3    H259906   5.434   4.450   3.828 -1.3475 -0.8200  1.6405
12831TIP3   OH259907   1.953   0.951   4.531  0.7033  0.5071 -0.2177
12831TIP3    H159908   1.868   0.910   4.542  2.2486 -2.4413  2.3682
12831TIP3    H259909   1.949   1.030   4.586 -0.2479  0.1509  0.2440
12832TIP3   OH259910   5.329   0.403  16.708 -0.4814  0.3564 -0.4242
12832TIP3    H159911   5.345   0.429  16.617 -1.0945 -0.0204 -0.6445
12832TIP3    H259912   5.238   0.428  16.725 -1.1642 -1.7123 -0.7030
12833TIP3   OH259913   1.305   5.439   0.508  0.1499  0.3798  0.4120
12833TIP3    H159914   1.344   5.521   0.538  1.3560 -0.0795  0.1720
12833TIP3    H259915   1.380   5.382   0.491 -0.6414 -0.5211 -0.1502
12834TIP3   OH259916   0.508   2.554   1.914  0.3630  0.6224 -0.1960
12834TIP3    H159917   0.533   2.601   1.993  0.8834  4.5227 -2.3917
12834TIP3    H259918   0.559   2.596   1.844 -1.0231 -1.6708 -2.8090
12835TIP3   OH259919   5.288   5.257  13.571 -0.3361 -0.3626  0.5407
12835TIP3    H159920   5.365   5.201  13.565 -0.7442 -0.9877  1.0475
12835TIP3    H259921   5.323   5.345  13.585  0.2953 -0.5552  0.2205
12836TIP3   OH259922   5.374   5.348  11.058  0.2876 -0.6475  0.4647
12836TIP3    H159923   5.432   5.318  11.128  2.0503  1.7357  0.1349
12836TIP3    H259924   5.290   5.363  11.101  1.0516 -0.1889  1.8625
12837TIP3   OH259925   4.331   4.266   4.474 -0.3021 -0.4849 -0.0157
12837TIP3    H159926   4.285   4.341   4.512  1.8605  0.3685  1.0588
12837TIP3    H259927   4.415   4.301   4.446  0.4371 -2.3488 -0.2518
12838TIP3   OH259928   5.488   0.810  16.627 -0.2545 -0.2474  0.2243
12838TIP3    H159929   5.573   0.806  16.669 -0.4117  0.5547  0.6448
12838TIP3    H259930   5.439   0.874  16.678 -0.4841  0.6891 -1.1250
12839TIP3   OH259931   4.476   2.446   0.207  0.0564 -0.3621  0.2172
12839TIP3    H159932   4.456   2.356   0.180  2.5103 -0.8867 -0.1131
12839TIP3    H259933   4.452   2.499   0.131  0.2041 -0.9659 -0.2593
12840TIP3   OH259934   5.407   4.821  15.142  0.1756 -0.0616  0.1552
12840TIP3    H159935   5.425   4.832  15.049  0.5802 -1.0121  0.1176
12840TIP3    H259936   5.343   4.750  15.147 -1.2982  1.2197  0.4957
12841TIP3   OH259937   4.189   1.665  11.374  0.8229 -0.1991 -0.3322
12841TIP3    H159938   4.147   1.584  11.344  0.7779 -0.0831 -0.5919
12841TIP3    H259939   4.151   1.681  11.460 -1.1444  0.9187 -1.3144
12842TIP3   OH259940   1.974   6.339  12.383  0.2859  0.2175  0.1533
12842TIP3    H159941   2.064   6.360  12.409  0.2012 -0.3810  0.9738
12842TIP3    H259942   1.928   6.423  12.385  0.4679  0.3025  1.2213
12843TIP3   OH259943   0.913   2.267  15.343  0.3962 -0.0962  0.0534
12843TIP3    H159944   0.918   2.329  15.415  0.1970 -0.5460  0.4630
12843TIP3    H259945   0.824   2.231  15.348  0.6662 -0.7708  0.1254
12844TIP3   OH259946   0.895   1.487  12.111 -0.0766  0.0026  0.8262
12844TIP3    H159947   0.927   1.553  12.174  0.6102 -1.1724  1.7447
12844TIP3    H259948   0.815   1.454  12.150 -0.8729  0.8431 -0.0409
12845TIP3   OH259949   2.960   0.309   6.181 -0.2444  0.3005  0.1309
12845TIP3    H159950   2.969   0.223   6.139  0.9190  0.2826  0.3679
12845TIP3    H259951   3.034   0.313   6.242 -0.9335  1.0155  0.9414
12846TIP3   OH259952   3.536   0.211  10.825 -0.3954  0.3336 -0.2493
12846TIP3    H159953   3.468   0.155  10.862 -0.0315  0.4116  0.5723
12846TIP3    H259954   3.552   0.277  10.893  1.3163 -0.3766  0.0972
12847TIP3   OH259955   5.950   3.770  14.994 -0.5970  0.4926  0.6657
12847TIP3    H159956   5.860   3.752  15.020 -1.7835  2.4685 -1.6598
12847TIP3    H259957   5.948   3.769  14.898  1.6812  1.3315  0.5454
12848TIP3   OH259958   5.700   5.001  12.979 -0.9404  0.1094 -0.1760
12848TIP3    H159959   5.700   4.965  13.067 -1.5518 -1.1142 -0.6478
12848TIP3    H259960   5.607   5.016  12.959 -0.8349  0.0769 -0.7171
12849TIP3   OH259961   2.938   6.648   5.826  0.0849 -0.3623 -0.0071
12849TIP3    H159962   2.871   6.671   5.762  0.3474  0.8499  0.1356
12849TIP3    H259963   2.942   6.552   5.823  0.6998 -0.3248 -2.4187
12850TIP3   OH259964   3.057   3.362  16.674 -0.4727 -0.1352 -0.8132
12850TIP3    H159965   3.139   3.313  16.677  0.0539  0.5568 -2.7289
12850TIP3    H259966   3.085   3.454  16.667 -1.4033  0.1041 -1.5251
12851TIP3   OH259967   2.529   1.671   0.913 -0.5199 -0.2272 -0.1549
12851TIP3    H159968   2.509   1.589   0.957 -1.5817 -1.7431 -3.1564
12851TIP3    H259969   2.452   1.725   0.926 -1.2607 -1.0631 -0.9510
12852TIP3   OH259970   5.383   0.505  13.827  0.1961  0.7193  0.2229
12852TIP3    H159971   5.400   0.595  13.799  0.8652  1.3107  2.3570
12852TIP3    H259972   5.333   0.514  13.908 -0.2881 -0.8554  0.1331
12853TIP3   OH259973   3.927   1.608   1.707 -0.5804  0.5269  0.3347
12853TIP3    H159974   3.896   1.697   1.726 -3.3626 -0.2209 -0.2578
12853TIP3    H259975   3.948   1.610   1.613  0.1709  0.7619  0.5043
12854TIP3   OH259976   0.325   3.171  11.570  0.3887  0.5124 -0.0377
12854TIP3    H159977   0.293   3.083  11.589  0.9870  0.2746 -0.0942
12854TIP3    H259978   0.400   3.157  11.512 -0.1529  1.1204 -0.9158
12855TIP3   OH259979   0.183   3.000   0.235  0.1023 -0.3754  0.1713
12855TIP3    H159980   0.098   2.980   0.275 -0.2799  0.4617 -0.2026
12855TIP3    H259981   0.214   3.077   0.281 -1.0115  1.4921 -2.0116
12856TIP3   OH259982   5.655   4.621   1.643 -0.1394  0.1183  0.0113
12856TIP3    H159983   5.637   4.702   1.691  0.3439 -0.0175  0.4332
12856TIP3    H259984   5.588   4.560   1.673 -1.7516  0.9068 -1.7614
12857TIP3   OH259985   4.557   2.626   3.512 -0.9352  0.1703 -0.0821
12857TIP3    H159986   4.634   2.620   3.456 -0.1523  0.8054  0.8919
12857TIP3    H259987   4.530   2.718   3.506 -2.6560 -0.3732 -1.7197
12858TIP3   OH259988   0.645   1.867   4.814  0.1697  0.7437 -0.1414
12858TIP3    H159989   0.688   1.902   4.892 -0.4816  0.4503  0.3492
12858TIP3    H259990   0.680   1.778   4.806 -1.7692 -0.2257  1.3959
12859TIP3   OH259991   1.216   2.419   5.471 -0.0406  0.6326 -0.2316
12859TIP3    H159992   1.156   2.387   5.538  0.7861 -2.6575 -0.8882
12859TIP3    H259993   1.300   2.380   5.493  0.5907  0.6698 -2.3188
12860TIP3   OH259994   0.108   2.940   2.907 -0.6727  0.1753  0.9051
12860TIP3    H159995   0.115   2.961   2.814  0.3728 -0.1825  0.9012
12860TIP3    H259996   0.139   2.850   2.915  1.4700  0.9410  1.9107
12861TIP3   OH259997   3.057   0.370   0.669  0.0770 -0.1300 -0.0835
12861TIP3    H159998   3.055   0.393   0.762 -1.8761  0.7257 -0.2830
12861TIP3    H259999   3.124   0.428   0.632  0.0946  0.3125  0.6171
12862TIP3   OH260000   3.698   3.093  12.966 -0.3938  0.6229  0.1646
12862TIP3    H160001   3.654   3.026  12.914 -1.0740  0.7865  0.5163
12862TIP3    H260002   3.680   3.175  12.919 -1.5105  0.8482  0.9613
12863TIP3   OH260003   6.630   5.361  12.759  1.2977  0.1605 -0.5962
12863TIP3    H160004   6.716   5.392  12.730  1.2408  1.6864  0.7373
12863TIP3    H260005   6.573   5.377  12.683  1.5583  2.2026 -0.4216
12864TIP3   OH260006   6.417   5.119  13.213  0.2540 -0.2822  0.0110
12864TIP3    H160007   6.465   5.059  13.156  0.6540 -0.0727  0.1241
12864TIP3    H260008   6.483   5.182  13.242 -0.0697 -0.0511  0.2480
12865TIP3   OH260009   1.960   1.045  12.480  0.4628  0.1791 -0.4651
12865TIP3    H160010   1.977   0.952  12.462  0.4395  0.3172 -1.2316
12865TIP3    H260011   1.990   1.058  12.570  2.6160 -0.0282 -1.1011
12866TIP3   OH260012   2.705   1.937   1.822 -0.8390 -0.4470 -0.6493
12866TIP3    H160013   2.641   1.874   1.787  0.3475 -0.9773 -1.9723
12866TIP3    H260014   2.768   1.884   1.870 -0.8251 -0.0384 -0.2055
12867TIP3   OH260015   2.686   4.399   0.504  0.0072  0.0446  0.0976
12867TIP3    H160016   2.716   4.436   0.587  1.9660  0.1137 -0.5758
12867TIP3    H260017   2.627   4.466   0.468  0.7696  0.9646  0.5057
12868TIP3   OH260018   3.100   1.095  10.974  0.4961  0.6760 -0.5306
12868TIP3    H160019   3.136   1.013  10.941  1.2812  1.0461 -0.6194
12868TIP3    H260020   3.117   1.159  10.904 -2.7212  0.3561 -1.7822
12869TIP3   OH260021   4.728   2.408  15.786  0.2548 -0.6749  0.2386
12869TIP3    H160022   4.806   2.391  15.732  0.1778 -0.1379 -0.0477
12869TIP3    H260023   4.703   2.498  15.765  2.0198  0.7142  3.4048
12870TIP3   OH260024   5.622   4.470   0.450  0.2639  0.1733  0.0263
12870TIP3    H160025   5.567   4.463   0.528 -0.5622  3.4547 -0.1040
12870TIP3    H260026   5.697   4.523   0.478  1.5192 -1.1333 -0.7218
12871TIP3   OH260027   6.076   1.477   0.455 -0.2839  0.2912 -0.3956
12871TIP3    H160028   6.082   1.437   0.542 -1.9072  1.1068  0.1249
12871TIP3    H260029   6.061   1.404   0.396 -1.6850 -0.0600  0.3539
12872TIP3   OH260030   2.636   5.395   1.837 -0.2158 -0.3412  0.5672
12872TIP3    H160031   2.546   5.366   1.847 -0.1563  0.0317  2.6414
12872TIP3    H260032   2.629   5.479   1.790 -0.7572 -1.2138 -0.9724
12873TIP3   OH260033   1.160   2.051   0.841 -0.5605 -0.1219  0.1718
12873TIP3    H160034   1.228   2.029   0.777 -0.5649  0.0159  0.1196
12873TIP3    H260035   1.099   2.108   0.793 -0.2689  0.4331  0.4566
12874TIP3   OH260036   3.063   4.862  10.302  0.0437  0.4657  0.0505
12874TIP3    H160037   2.995   4.819  10.354 -0.9042 -0.8574 -2.1443
12874TIP3    H260038   3.145   4.833  10.341 -0.6277 -0.9237  0.4776
12875TIP3   OH260039   2.824   1.402  17.294 -0.0999 -0.6057  0.2372
12875TIP3    H160040   2.762   1.404  17.221  0.4875  2.4542 -0.3334
12875TIP3    H260041   2.784   1.456  17.362  1.9934  1.8844 -0.3444
12876TIP3   OH260042   1.010   2.792   4.346  0.2148 -0.0151 -0.2349
12876TIP3    H160043   0.969   2.815   4.429 -0.8668  0.5474 -0.8936
12876TIP3    H260044   0.940   2.750   4.296  0.7648 -0.0686 -0.9775
12877TIP3   OH260045   6.081   6.663  17.139  0.4042 -0.1137  0.3555
12877TIP3    H160046   6.008   6.658  17.200 -0.5313 -2.7562 -0.7891
12877TIP3    H260047   6.154   6.622  17.185 -0.1242 -1.5215  0.0008
12878TIP3   OH260048   4.522   0.852  11.076 -0.5347  0.3499 -0.2491
12878TIP3    H160049   4.597   0.803  11.108  0.7950  2.0078 -0.6730
12878TIP3    H260050   4.458   0.848  11.147 -0.5376 -1.9995 -0.3064
12879TIP3   OH260051   5.168   4.408  14.181 -0.1788 -0.0915 -0.2882
12879TIP3    H160052   5.122   4.412  14.265 -0.0694  1.7455 -0.2821
12879TIP3    H260053   5.234   4.341  14.193  1.7699  2.0383  2.1377
12880TIP3   OH260054   1.506   3.499  17.234 -0.1561  0.5212  0.0335
12880TIP3    H160055   1.496   3.487  17.329  0.0593  1.4720  0.1831
12880TIP3    H260056   1.426   3.461  17.198 -0.1159 -0.1056  0.5658
12881TIP3   OH260057   2.817   6.516   5.473  0.0084 -0.1326 -0.5622
12881TIP3    H160058   2.852   6.521   5.384  1.3152  0.4411 -0.0390
12881TIP3    H260059   2.876   6.569   5.525 -1.2286  0.2240  0.5206
12882TIP3   OH260060   1.969   0.862  11.907 -0.7178  1.2997 -0.1104
12882TIP3    H160061   2.006   0.931  11.962 -0.3938  0.8180  0.2791
12882TIP3    H260062   1.909   0.815  11.966  0.9625 -0.3448  0.3739
12883TIP3   OH260063   1.184   3.082   0.439 -0.3497 -0.0480 -0.2130
12883TIP3    H160064   1.195   3.060   0.347 -0.5377 -1.1426  0.0115
12883TIP3    H260065   1.235   3.162   0.451 -0.1198 -0.0361 -1.2044
12884TIP3   OH260066   1.558   4.115   0.666 -0.0177  0.2902  0.0464
12884TIP3    H160067   1.600   4.130   0.581  1.3761  0.3855  0.7227
12884TIP3    H260068   1.584   4.190   0.719  1.1341 -0.9485  1.2901
12885TIP3   OH260069   0.987   2.043   0.273 -0.2193  0.3538  0.9819
12885TIP3    H160070   0.895   2.016   0.274 -0.0011 -0.4047  1.2031
12885TIP3    H260071   0.984   2.139   0.266 -1.0130  0.2630 -0.1913
12886TIP3   OH260072   6.175   6.127   5.976 -0.4172 -0.3171 -0.6262
12886TIP3    H160073   6.181   6.083   6.060 -0.7835 -2.1341 -1.5137
12886TIP3    H260074   6.093   6.096   5.937  1.0185 -1.6628 -2.7911
12887TIP3   OH260075   1.156   5.523   1.594 -0.4040 -0.0782 -0.7987
12887TIP3    H160076   1.085   5.458   1.592 -1.8164  1.3963 -0.6049
12887TIP3    H260077   1.186   5.528   1.504 -0.6135 -0.6470 -0.9090
12888TIP3   OH260078   0.587   2.333  11.948 -0.8005 -0.1787  0.1746
12888TIP3    H160079   0.551   2.397  11.887 -0.0395 -0.4538 -0.5836
12888TIP3    H260080   0.553   2.249  11.919  1.9813 -0.7613 -1.9138
12889TIP3   OH260081   1.867   4.291  16.528  0.1385 -0.2980  0.4322
12889TIP3    H160082   1.867   4.214  16.470 -2.5259  1.8089 -2.7655
12889TIP3    H260083   1.780   4.291  16.568  0.6182  0.2918  1.5008
12890TIP3   OH260084   4.586   4.949   0.138  0.5344 -0.2449 -0.1600
12890TIP3    H160085   4.569   4.993   0.221  1.0729 -0.0417 -0.1506
12890TIP3    H260086   4.517   4.883   0.130 -0.8848  1.2440 -0.6416
12891TIP3   OH260087   0.511   5.514   0.929 -0.0012 -0.0254  0.4218
12891TIP3    H160088   0.459   5.577   0.878 -1.1946 -1.0830  0.2834
12891TIP3    H260089   0.601   5.546   0.922 -0.5113  1.3761 -0.0588
12892TIP3   OH260090   3.420   6.652   0.641 -0.3433  0.0811  0.6085
12892TIP3    H160091   3.495   6.609   0.682 -0.2726  0.8328  1.2901
12892TIP3    H260092   3.347   6.637   0.701 -1.4244 -2.8777 -1.2668
12893TIP3   OH260093   1.571   1.226  16.482  0.1506 -0.2258 -0.3635
12893TIP3    H160094   1.550   1.152  16.425  1.6233 -0.6318 -0.4218
12893TIP3    H260095   1.607   1.186  16.561  0.7430  0.4176 -0.2990
12894TIP3   OH260096   0.193   5.854  14.937  0.7292 -0.7713  0.3209
12894TIP3    H160097   0.175   5.911  15.011  2.1060 -0.9597  0.8335
12894TIP3    H260098   0.178   5.765  14.971 -1.1477 -0.7647 -0.3955
12895TIP3   OH260099   2.516   5.607   0.395 -0.1642  0.3400 -0.1438
12895TIP3    H160100   2.464   5.622   0.473  1.8871  1.4553  1.0939
12895TIP3    H260101   2.602   5.582   0.428  1.3305  2.6789 -1.9237
12896TIP3   OH260102   4.065   5.273   2.950  0.1784 -0.3499 -0.1007
12896TIP3    H160103   4.159   5.272   2.966  0.1409 -0.3290  0.1279
12896TIP3    H260104   4.054   5.223   2.869  0.1583 -2.5175  1.1535
12897TIP3   OH260105   4.778   5.789  15.725 -0.4442 -1.0173  0.4008
12897TIP3    H160106   4.700   5.734  15.725  0.5529 -2.5865  2.2055
12897TIP3    H260107   4.770   5.843  15.803  0.5431 -1.6514  0.9604
12898TIP3   OH260108   6.057   3.275   0.074  0.2681  0.7263  0.7469
12898TIP3    H160109   5.988   3.209   0.071 -0.5418  1.5324  1.0358
12898TIP3    H260110   6.107   3.262  -0.007 -0.5185  0.4423  0.3027
12899TIP3   OH260111   2.814   0.133  16.156  0.4888  0.0436 -0.2741
12899TIP3    H160112   2.830   0.120  16.062 -2.1640 -1.4440 -0.6043
12899TIP3    H260113   2.743   0.197  16.160  0.0339 -0.5036  0.6710
12900TIP3   OH260114   1.560   4.065   2.554  0.3660 -0.2103  0.3771
12900TIP3    H160115   1.480   4.019   2.527  1.0887 -1.5478  0.3882
12900TIP3    H260116   1.618   3.995   2.584  1.6679  0.6991  0.0680
12901TIP3   OH260117   0.209   2.829   4.380 -0.3518  0.3794 -0.2383
12901TIP3    H160118   0.278   2.831   4.447 -0.9318  0.4315  0.3693
12901TIP3    H260119   0.216   2.913   4.336 -0.0446  0.3948 -0.1613
12902TIP3   OH260120   2.804   2.233   3.748  0.4669  0.2260 -0.0661
12902TIP3    H160121   2.824   2.145   3.781  0.3767  0.7093  1.3529
12902TIP3    H260122   2.718   2.254   3.786  1.1496  1.4950  0.8629
12903TIP3   OH260123   6.675   4.780  13.366 -0.1766 -0.1451  0.2515
12903TIP3    H160124   6.749   4.744  13.318 -0.8116 -0.8162 -0.2413
12903TIP3    H260125   6.625   4.703  13.395  0.0458  0.2434  1.7712
12904TIP3   OH260126   6.725   4.078  11.800 -0.3276  0.0347  0.0978
12904TIP3    H160127   6.704   4.163  11.761 -0.2491 -0.6122 -1.4184
12904TIP3    H260128   6.763   4.099  11.886 -1.9924  1.4451  0.5434
12905TIP3   OH260129   2.815   0.578   1.805  0.2146  0.2524 -0.3403
12905TIP3    H160130   2.798   0.672   1.804  0.6234  0.3260 -0.9959
12905TIP3    H260131   2.857   0.561   1.889 -2.0124  0.2478  0.8487
12906TIP3   OH260132   6.115   0.034   0.621 -0.3936 -0.4652  0.4251
12906TIP3    H160133   6.105   0.124   0.653 -0.2467  0.0913 -1.0073
12906TIP3    H260134   6.092   0.040   0.528  2.6672 -1.2745 -0.4845
12907TIP3   OH260135   4.502   1.131  14.901 -1.7075 -0.1811 -0.2157
12907TIP3    H160136   4.422   1.172  14.934 -2.3495 -0.2887 -1.5614
12907TIP3    H260137   4.473   1.047  14.866 -0.8591 -0.5801  0.0166
12908TIP3   OH260138   0.258   4.665  16.774 -0.9842  0.0875  0.5273
12908TIP3    H160139   0.251   4.574  16.801  0.5434 -0.5929 -1.1475
12908TIP3    H260140   0.247   4.664  16.679  0.0790  1.4706  0.3417
12909TIP3   OH260141   2.962   4.930  15.483 -0.2669 -0.0461  0.0331
12909TIP3    H160142   3.023   4.971  15.545  1.5143 -2.1802 -0.1854
12909TIP3    H260143   2.931   4.852  15.528 -0.2397 -0.7524 -1.1478
12910TIP3   OH260144   4.641   6.223   1.193  0.5651 -0.2379  0.1481
12910TIP3    H160145   4.571   6.262   1.245 -0.0536  1.1611 -1.6156
12910TIP3    H260146   4.704   6.190   1.257 -0.5782  0.5952  1.7531
12911TIP3   OH260147   1.653   0.118  13.823  0.1196 -0.1875  0.6971
12911TIP3    H160148   1.559   0.110  13.814  0.2714  0.2227 -2.2082
12911TIP3    H260149   1.670   0.212  13.819  0.6050 -0.2055  2.0761
12912TIP3   OH260150   6.043   6.412   1.433 -0.5663 -0.0656 -0.4900
12912TIP3    H160151   6.010   6.444   1.516 -1.7744  0.1662 -1.0468
12912TIP3    H260152   6.000   6.327   1.421  2.0284 -1.6786  0.6166
12913TIP3   OH260153   3.712   1.218  17.221 -0.0019 -0.3557 -0.5250
12913TIP3    H160154   3.651   1.181  17.158 -1.4020 -0.9312  1.0951
12913TIP3    H260155   3.660   1.231  17.300  0.9358  3.0508 -0.2871
12914TIP3   OH260156   1.189   4.478   0.653  0.3690  0.3121  0.3885
12914TIP3    H160157   1.175   4.385   0.634 -1.2389  0.4242  0.9151
12914TIP3    H260158   1.219   4.515   0.570  0.0965 -0.4920 -0.0760
12915TIP3   OH260159   0.062   4.051  14.225 -0.1417 -0.2940  0.1508
12915TIP3    H160160   0.041   4.114  14.156  0.1158  1.0621  1.2614
12915TIP3    H260161  -0.010   4.058  14.288  0.5229 -0.1382  0.9231
12916TIP3   OH260162   6.335   0.686   1.287 -0.2173 -0.6142  0.0962
12916TIP3    H160163   6.362   0.741   1.361 -0.1566  0.6512 -0.8278
12916TIP3    H260164   6.391   0.609   1.293 -0.8987 -1.0300  1.9374
12917TIP3   OH260165   6.627   4.857  15.987  0.1273 -0.3129 -0.1752
12917TIP3    H160166   6.536   4.888  15.989  0.3524  0.3130  0.7406
12917TIP3    H260167   6.657   4.865  16.078  1.6552  1.1251 -0.7597
12918TIP3   OH260168   5.512   3.272  14.657  0.2019 -0.3638  0.3667
12918TIP3    H160169   5.553   3.207  14.600  0.9885 -0.8401  1.4464
12918TIP3    H260170   5.582   3.299  14.716 -0.5554  0.2420  1.0017
12919TIP3   OH260171   5.177   1.735  12.248  0.0663  0.1516  0.3086
12919TIP3    H160172   5.210   1.652  12.214 -1.8097 -0.7050  0.4819
12919TIP3    H260173   5.256   1.781  12.278  1.2808 -0.9854 -0.9717
12920TIP3   OH260174   2.602   3.320  16.906 -0.2803 -0.2353 -0.1017
12920TIP3    H160175   2.542   3.394  16.895  0.0008  0.0582  0.3144
12920TIP3    H260176   2.688   3.355  16.882 -0.3176 -0.7497 -1.0383
12921TIP3   OH260177   2.788   6.486   3.940 -0.2430  0.3710  0.2625
12921TIP3    H160178   2.706   6.525   3.971 -0.2340 -0.3503  1.2288
12921TIP3    H260179   2.760   6.422   3.874 -0.3580  0.9990 -0.3100
12922TIP3   OH260180   0.752   2.954   6.805 -0.2180  0.2740 -0.1928
12922TIP3    H160181   0.799   2.933   6.886  0.9722  0.7664 -0.7210
12922TIP3    H260182   0.662   2.970   6.832 -0.1085 -0.7686  0.8617
12923TIP3   OH260183   5.974   5.556   0.769 -0.5987 -0.0154 -0.1979
12923TIP3    H160184   5.903   5.531   0.709 -3.0769  0.1832  2.4402
12923TIP3    H260185   5.980   5.482   0.830 -2.3922  2.0941  2.8251
12924TIP3   OH260186   1.530   3.202  12.196  0.1613  0.5625  0.3536
12924TIP3    H160187   1.438   3.187  12.173  0.6668 -1.4273 -0.5877
12924TIP3    H260188   1.550   3.289  12.160 -0.8260  0.1692 -1.2655
12925TIP3   OH260189   6.376   6.335  12.994  0.2500  0.1663  0.6371
12925TIP3    H160190   6.289   6.374  12.999  0.4377  0.5595  0.9263
12925TIP3    H260191   6.383   6.302  12.904  0.6298  2.1421 -0.1274
12926TIP3   OH260192   2.707   5.698  16.969 -0.2389  0.7788 -0.2890
12926TIP3    H160193   2.757   5.777  16.991 -0.4493  0.2749  2.3620
12926TIP3    H260194   2.761   5.626  17.003 -1.4901  0.0156  0.1234
12927TIP3   OH260195   2.447   4.821  15.504 -0.0209 -0.1750 -0.2380
12927TIP3    H160196   2.479   4.861  15.423  0.0550  0.3594  0.0486
12927TIP3    H260197   2.370   4.770  15.477  1.0567 -1.4846 -0.9293
12928TIP3   OH260198   1.123   4.955   0.471 -0.0833  0.1948  0.8281
12928TIP3    H160199   1.163   4.923   0.551  0.8943 -1.9348 -0.4284
12928TIP3    H260200   1.196   4.964   0.409 -1.0959 -0.5486 -0.5215
12929TIP3   OH260201   2.986   1.430  13.914 -0.3087  0.7451  0.2944
12929TIP3    H160202   2.998   1.507  13.969 -1.0622  1.1126 -0.0498
12929TIP3    H260203   2.894   1.405  13.925 -0.3300  0.4937 -0.3655
12930TIP3   OH260204   3.055   5.079   5.300 -0.4584  0.0111  0.3683
12930TIP3    H160205   3.057   5.038   5.213  2.2529  3.9095 -1.6968
12930TIP3    H260206   2.964   5.108   5.311 -0.3781  1.8035 -2.5634
12931TIP3   OH260207   0.520   0.374  11.149 -0.0567 -0.0714 -0.1386
12931TIP3    H160208   0.482   0.418  11.072 -1.1940  0.3757  0.6599
12931TIP3    H260209   0.445   0.354  11.205  0.8057  0.2230  1.1707
12932TIP3   OH260210   0.482   2.200  14.457 -0.0125  0.2535 -0.0495
12932TIP3    H160211   0.388   2.182  14.456 -0.4800  2.3574  1.0782
12932TIP3    H260212   0.497   2.246  14.540  2.2072 -0.9171  0.2651
12933TIP3   OH260213   0.902   0.929  13.199  0.6876  0.8004 -0.3755
12933TIP3    H160214   0.856   0.929  13.115  0.8953  1.6915 -0.4977
12933TIP3    H260215   0.973   0.993  13.188  0.6780  0.9757  0.4962
12934TIP3   OH260216   3.074   5.867  14.637 -0.0787 -0.9900 -0.2249
12934TIP3    H160217   3.006   5.816  14.681 -0.9448  0.4976  0.2030
12934TIP3    H260218   3.050   5.866  14.545 -1.7433  1.0031  0.1206
12935TIP3   OH260219   4.384   4.547  14.357 -0.0782 -0.3216 -0.3603
12935TIP3    H160220   4.417   4.568  14.444 -1.7411  0.5797  0.1045
12935TIP3    H260221   4.454   4.576  14.297 -0.1925  2.0462  0.5309
12936TIP3   OH260222   1.494   5.794   4.852  0.4544 -0.1045  0.0571
12936TIP3    H160223   1.495   5.771   4.945  1.2620  1.6036  0.5162
12936TIP3    H260224   1.454   5.718   4.809 -0.7703 -0.5736  1.8851
12937TIP3   OH260225   0.467   6.589  11.381 -0.0171  0.3550  0.3157
12937TIP3    H160226   0.442   6.621  11.295 -2.1847  0.0305  0.7749
12937TIP3    H260227   0.419   6.507  11.392  0.0514  0.4890  1.8950
12938TIP3   OH260228   4.287   6.591  12.657  0.1361  0.2732  0.2560
12938TIP3    H160229   4.267   6.680  12.686 -3.0382 -0.9546  2.3112
12938TIP3    H260230   4.363   6.565  12.708 -2.0562  0.1045  3.7413
12939TIP3   OH260231   2.010   6.420  15.136 -0.4742  0.6859 -0.1804
12939TIP3    H160232   1.993   6.502  15.089 -0.0413  1.1605  0.4867
12939TIP3    H260233   2.020   6.354  15.067  1.6930  1.6459 -0.8413
12940TIP3   OH260234   2.897   1.972   4.709  0.5826 -0.0274 -0.0811
12940TIP3    H160235   2.967   1.992   4.771  0.5757  1.1520 -0.4351
12940TIP3    H260236   2.831   2.040   4.723  0.1134 -0.3458 -0.6722
12941TIP3   OH260237   6.203   0.174   5.333  0.5189 -0.2936  0.1661
12941TIP3    H160238   6.172   0.261   5.355 -0.2138 -0.7365  0.9505
12941TIP3    H260239   6.298   0.182   5.329  0.5532  0.2394  1.6301
12942TIP3   OH260240   5.975   0.261  17.319  0.2958 -0.2631 -0.1016
12942TIP3    H160241   5.894   0.250  17.369  0.0766 -1.1281 -0.6324
12942TIP3    H260242   6.042   0.216  17.371  0.7355  1.5533  0.9995
12943TIP3   OH260243   4.676   0.801  13.958 -0.4189 -0.1371  0.0532
12943TIP3    H160244   4.708   0.888  13.934 -0.5199 -0.2503 -0.5167
12943TIP3    H260245   4.585   0.814  13.984 -0.3978 -0.0540  0.0838
12944TIP3   OH260246   6.441   5.238   1.914  0.2636  0.5949 -0.9990
12944TIP3    H160247   6.519   5.209   1.866  0.8799  0.8855 -0.1920
12944TIP3    H260248   6.451   5.201   2.001 -1.5342 -1.0963 -1.4345
12945TIP3   OH260249   4.864   5.506  17.192 -0.2139 -0.4344  0.0858
12945TIP3    H160250   4.925   5.440  17.224  1.5821  1.4958  0.9272
12945TIP3    H260251   4.920   5.567  17.142 -1.1838  2.0067  1.7856
12946TIP3   OH260252   4.914   5.225  12.872 -0.3722 -0.2631  0.3490
12946TIP3    H160253   4.851   5.169  12.917  0.1382 -0.8981  0.2873
12946TIP3    H260254   4.994   5.173  12.868  0.2570  0.6508  0.6967
12947TIP3   OH260255   3.283   4.401  15.680  0.0621  0.2283 -0.3415
12947TIP3    H160256   3.300   4.448  15.762 -1.1540  2.3827 -1.2461
12947TIP3    H260257   3.370   4.395  15.639  0.5210  0.0546  0.6193
12948TIP3   OH260258   5.369   0.565   6.279  0.4665  0.2538 -0.0865
12948TIP3    H160259   5.392   0.588   6.189 -0.9364 -1.0030 -0.8170
12948TIP3    H260260   5.304   0.496   6.270  0.4967 -0.0987  1.9167
12949TIP3   OH260261   5.755   3.656   6.090  0.4417  0.2542  0.1346
12949TIP3    H160262   5.814   3.605   6.034 -0.1970  0.0317 -0.3514
12949TIP3    H260263   5.790   3.745   6.087  1.1278 -0.0002  0.3789
12950TIP3   OH260264   5.509   1.708   4.235  0.4084  0.4264  0.4138
12950TIP3    H160265   5.449   1.640   4.267  0.3355 -0.0119 -0.6350
12950TIP3    H260266   5.557   1.667   4.164 -0.7262  1.9170 -1.2998
12951TIP3   OH260267   2.672   0.903  13.199 -0.0213  0.0354 -0.1593
12951TIP3    H160268   2.634   0.906  13.111 -0.8537  1.4392  0.2170
12951TIP3    H260269   2.600   0.927  13.257  0.7218 -0.1022  0.8483
12952TIP3   OH260270   1.278   3.706   3.452 -0.0839 -0.1610  0.5636
12952TIP3    H160271   1.345   3.665   3.506  1.6965  1.3309 -0.4265
12952TIP3    H260272   1.272   3.796   3.484 -0.6872  0.0898 -0.2028
12953TIP3   OH260273   2.954   3.396   3.272 -0.3697 -0.0245  0.0705
12953TIP3    H160274   3.011   3.435   3.338  0.3798 -1.9201  0.6173
12953TIP3    H260275   2.870   3.441   3.283  0.3136  1.1001  0.9298
12954TIP3   OH260276   5.118   2.907  12.672  0.4104 -0.4856 -0.0650
12954TIP3    H160277   5.130   2.981  12.612  1.9596 -0.7423 -0.1047
12954TIP3    H260278   5.026   2.882  12.662 -0.0380  1.1649 -0.3571
12955TIP3   OH260279   2.056   5.342   4.843  0.3062 -0.6956 -0.3644
12955TIP3    H160280   1.988   5.354   4.776 -0.3101  0.8276  0.4893
12955TIP3    H260281   2.132   5.309   4.794 -0.0524  0.5876 -1.8777
12956TIP3   OH260282   5.026   3.847  11.084 -0.1141  0.3399  0.2099
12956TIP3    H160283   5.026   3.942  11.095 -0.4875  0.4154 -0.4294
12956TIP3    H260284   5.039   3.812  11.173 -0.3766  0.9768  0.4981
12957TIP3   OH260285   5.930   2.706   4.149  0.0579 -0.0482  0.0275
12957TIP3    H160286   5.842   2.695   4.114  0.1275  0.0747 -0.1883
12957TIP3    H260287   5.923   2.682   4.241  0.2632 -2.1649 -0.4571
12958TIP3   OH260288   4.447   0.868   4.282  0.1445  0.2833 -0.3081
12958TIP3    H160289   4.376   0.863   4.346  1.7026  0.9191  1.5792
12958TIP3    H260290   4.494   0.785   4.290 -0.5304 -0.2870 -1.8078
12959TIP3   OH260291   2.422   6.592  16.643 -0.1230 -0.1804 -0.1835
12959TIP3    H160292   2.365   6.580  16.719  0.1819 -0.6375 -0.0229
12959TIP3    H260293   2.472   6.511  16.637  0.2761  0.0843 -0.5218
12960TIP3   OH260294   3.117   4.260   4.560 -0.1053 -0.1158 -0.5130
12960TIP3    H160295   3.051   4.326   4.537  0.0497  0.8922  1.6730
12960TIP3    H260296   3.102   4.244   4.653  2.6392  0.0375  0.0226
12961TIP3   OH260297   0.855   2.955  13.741 -0.2844 -0.1061 -0.2877
12961TIP3    H160298   0.762   2.960  13.721 -0.3525 -0.3424 -0.0268
12961TIP3    H260299   0.882   2.869  13.706  0.3293  0.8856 -2.4364
12962TIP3   OH260300   2.551   6.215  13.280  0.3717 -0.4005 -0.6799
12962TIP3    H160301   2.581   6.134  13.321  0.3117 -0.8405 -1.4944
12962TIP3    H260302   2.631   6.262  13.259  0.4123  0.7779  1.7261
12963TIP3   OH260303   2.152   3.080   2.366  0.4010  0.2218  0.4820
12963TIP3    H160304   2.146   3.016   2.437 -0.1259 -2.9477 -2.1901
12963TIP3    H260305   2.221   3.046   2.309 -1.1550  0.9419 -1.9971
12964TIP3   OH260306   3.894   0.870  14.093 -0.1494  0.6233  0.3288
12964TIP3    H160307   3.814   0.863  14.042  0.0836  0.8068 -0.0647
12964TIP3    H260308   3.964   0.879  14.028  0.1287  1.0700  0.6784
12965TIP3   OH260309   0.879   1.197  12.334 -0.4155  0.0696  0.1823
12965TIP3    H160310   0.955   1.239  12.375 -0.4096  0.9935 -0.7125
12965TIP3    H260311   0.888   1.219  12.241 -1.3749 -0.4613 -0.0415
12966TIP3   OH260312   6.167   0.896   0.404  0.2395  0.3042  0.1651
12966TIP3    H160313   6.079   0.859   0.405  1.2868 -2.4175 -0.1799
12966TIP3    H260314   6.189   0.907   0.496 -1.3088  3.5444  0.3131
12967TIP3   OH260315   6.730   3.985   2.405  0.5238 -0.6062  0.1183
12967TIP3    H160316   6.643   3.944   2.402  0.8691 -1.3163 -2.1703
12967TIP3    H260317   6.790   3.914   2.382  1.4713  0.4022 -0.6141
12968TIP3   OH260318   2.386   3.187   6.312  0.1404 -0.7507 -0.0438
12968TIP3    H160319   2.334   3.214   6.388  0.3190  2.0691 -0.8115
12968TIP3    H260320   2.477   3.188   6.344  0.0208 -2.8628  0.5229
12969TIP3   OH260321   2.813   2.471  10.526  0.1913  0.3819 -0.2193
12969TIP3    H160322   2.838   2.563  10.536 -0.8033  0.4771  1.7488
12969TIP3    H260323   2.737   2.460  10.582 -2.3274 -0.6711 -3.4848
12970TIP3   OH260324   3.703   2.521   3.835 -0.3245  0.0601  0.6155
12970TIP3    H160325   3.759   2.445   3.825  0.1105  0.2003  1.8559
12970TIP3    H260326   3.627   2.503   3.779  0.6683 -0.3829 -0.6376
12971TIP3   OH260327   0.618   5.873  12.716 -0.1274  0.1777 -0.6273
12971TIP3    H160328   0.616   5.794  12.662 -1.7172  0.2527 -0.7419
12971TIP3    H260329   0.679   5.854  12.787 -0.2643 -1.0340 -0.8235
12972TIP3   OH260330   5.152   5.506   0.016 -0.6593 -0.4822 -0.9344
12972TIP3    H160331   5.119   5.590   0.048  2.1786 -0.1229  1.5333
12972TIP3    H260332   5.092   5.441   0.053  0.8880  0.1442  3.2797
12973TIP3   OH260333   2.474   2.364  15.025  0.0824 -0.1676 -0.0129
12973TIP3    H160334   2.453   2.457  15.015  2.1608  0.5161  1.3992
12973TIP3    H260335   2.566   2.358  14.997 -0.4158 -2.0823 -1.3978
12974TIP3   OH260336   0.145   0.375   0.999  0.5053  0.3407  0.1758
12974TIP3    H160337   0.114   0.349   0.912  1.1053  1.0468 -0.2569
12974TIP3    H260338   0.142   0.294   1.050 -0.3619  0.0300 -0.3448
12975TIP3   OH260339   3.962   4.348  14.059 -0.2114  0.6538  0.3703
12975TIP3    H160340   3.895   4.358  13.992  0.6601 -0.4619 -0.7141
12975TIP3    H260341   4.043   4.376  14.017  0.3578 -0.0888  0.9338
12976TIP3   OH260342   5.162   2.596  17.296 -0.6221 -0.9289 -0.1316
12976TIP3    H160343   5.237   2.550  17.260  0.4455  1.5544 -1.3010
12976TIP3    H260344   5.183   2.608  17.389 -0.2734 -1.4809 -0.1319
12977TIP3   OH260345   2.390   4.696   5.054  0.4233  0.5480  0.3788
12977TIP3    H160346   2.319   4.675   5.115  0.5033  0.2984  0.3854
12977TIP3    H260347   2.346   4.709   4.970  0.4852 -0.6488  0.1564
12978TIP3   OH260348   3.199   1.209  16.696 -0.0322  0.5444 -0.2281
12978TIP3    H160349   3.179   1.206  16.602 -1.2794 -0.9301  0.0410
12978TIP3    H260350   3.288   1.177  16.703  0.7285  2.3255 -1.0272
12979TIP3   OH260351   5.671   4.673   4.453  0.2998  0.4632  0.0216
12979TIP3    H160352   5.691   4.751   4.401  1.6389 -0.5736 -1.0947
12979TIP3    H260353   5.576   4.665   4.450  0.3404  0.1640 -2.7324
12980TIP3   OH260354   5.250   0.127   4.880 -0.4894 -0.0625 -0.4198
12980TIP3    H160355   5.337   0.087   4.871 -0.4478 -0.4468  1.3576
12980TIP3    H260356   5.266   0.221   4.870 -0.1490 -0.2312 -1.7237
12981TIP3   OH260357   3.669   5.840   2.999  0.0973 -0.1381  0.6598
12981TIP3    H160358   3.629   5.786   2.930  2.4613  0.1702 -1.0756
12981TIP3    H260359   3.753   5.798   3.017  3.0607  3.6927 -2.2410
12982TIP3   OH260360   3.238   5.886  13.489 -0.0587 -0.5473  0.0612
12982TIP3    H160361   3.264   5.978  13.490  1.1598 -0.8680 -0.2618
12982TIP3    H260362   3.145   5.887  13.468  0.0152  0.5948 -0.2605
12983TIP3   OH260363   3.146   4.671   1.649 -0.5960  0.5450  0.9434
12983TIP3    H160364   3.231   4.689   1.690 -0.0724 -1.0240  0.6163
12983TIP3    H260365   3.089   4.741   1.682  0.3770  0.6665  2.5270
12984TIP3   OH260366   6.582   6.398   5.233  0.8526 -0.1878 -0.6439
12984TIP3    H160367   6.511   6.459   5.212  2.6822  1.8212 -1.4362
12984TIP3    H260368   6.572   6.326   5.171 -0.3664  0.1322 -0.8449
12985TIP3   OH260369   5.173   0.539   5.453  0.8241  0.0598 -0.0024
12985TIP3    H160370   5.205   0.551   5.364 -2.9792 -0.8243 -1.6735
12985TIP3    H260371   5.132   0.453   5.453 -2.8665  1.6075  1.2569
12986TIP3   OH260372   2.918   5.060   0.523  0.3502  0.5961 -0.2064
12986TIP3    H160373   2.825   5.076   0.534  0.5118  0.9779  0.6139
12986TIP3    H260374   2.927   4.965   0.529 -0.0865  0.4749 -1.1637
12987TIP3   OH260375   4.915   2.506  14.670 -0.0739 -0.3230 -0.6172
12987TIP3    H160376   4.971   2.450  14.724 -0.7076 -1.2557 -0.9022
12987TIP3    H260377   4.976   2.558  14.618  0.5514  0.4139  0.7882
12988TIP3   OH260378   5.225   4.602  15.203  0.3934  0.0069 -0.4156
12988TIP3    H160379   5.184   4.546  15.269  0.8879  0.2097  0.0695
12988TIP3    H260380   5.263   4.541  15.140 -2.0493 -0.2103 -1.7991
12989TIP3   OH260381   3.598   5.853   4.477 -0.0523  0.3599  0.6266
12989TIP3    H160382   3.565   5.773   4.520 -1.1567  0.4970  0.0585
12989TIP3    H260383   3.561   5.925   4.528 -1.7707  0.5316 -0.8002
12990TIP3   OH260384   3.079   5.600  12.952 -1.0699  0.4638  0.1270
12990TIP3    H160385   3.095   5.622  13.043 -0.0443 -1.2389  0.4085
12990TIP3    H260386   3.158   5.553  12.924 -1.3512  0.9444 -1.6420
12991TIP3   OH260387   3.554   1.011   3.712 -0.4309  0.2822  0.5842
12991TIP3    H160388   3.508   1.048   3.637 -2.1268 -1.0843  0.8969
12991TIP3    H260389   3.560   1.084   3.774 -1.9612  0.5640  0.4296
12992TIP3   OH260390   2.805   0.104   7.005  0.0341 -0.2028  0.5820
12992TIP3    H160391   2.766   0.023   7.039 -0.6432 -0.4110 -0.6092
12992TIP3    H260392   2.736   0.143   6.952  0.8171  0.4458  0.0116
12993TIP3   OH260393   1.786   1.507  11.819  0.1617 -0.7976  1.1651
12993TIP3    H160394   1.852   1.491  11.752  0.1601  1.7309  0.4712
12993TIP3    H260395   1.827   1.477  11.900  1.7320 -0.3290  0.5830
12994TIP3   OH260396   4.471   5.438   5.812 -0.5207  0.8533  0.4127
12994TIP3    H160397   4.382   5.436   5.778 -0.3565 -1.5461 -0.0634
12994TIP3    H260398   4.515   5.505   5.760 -2.1218  2.4343  0.9959
12995TIP3   OH260399   5.034   2.904   2.420 -0.3217 -0.1561  0.1826
12995TIP3    H160400   5.013   2.949   2.502 -2.5093  0.6337 -0.7449
12995TIP3    H260401   5.100   2.960   2.379 -1.4395  1.1123  0.0479
12996TIP3   OH260402   5.659   0.720  11.592  0.2853  0.3074  0.3664
12996TIP3    H160403   5.601   0.776  11.643 -0.8466 -1.9938  1.7353
12996TIP3    H260404   5.723   0.687  11.655  1.0600  0.1756 -0.4603
12997TIP3   OH260405   2.617   3.812   5.689  0.4497  0.7548  0.1331
12997TIP3    H160406   2.660   3.846   5.611  1.4267  0.8365  0.6843
12997TIP3    H260407   2.689   3.787   5.747 -0.2293  1.5916  1.3959
12998TIP3   OH260408   4.383   3.219   5.679  0.9549 -0.1288  0.0369
12998TIP3    H160409   4.412   3.309   5.693  0.5453  0.0172 -0.0125
12998TIP3    H260410   4.458   3.165   5.702  0.6255  0.1344  1.8308
12999TIP3   OH260411   3.371   1.536  12.273  0.3349  0.1077  0.3213
12999TIP3    H160412   3.446   1.592  12.255  1.6558 -1.3324  1.0882
12999TIP3    H260413   3.343   1.505  12.187 -1.0009  2.5472 -0.2216
13000TIP3   OH260414   1.228   4.453   0.931  0.2100 -0.1764  0.0441
13000TIP3    H160415   1.176   4.460   0.851 -0.8289 -4.5841  0.1291
13000TIP3    H260416   1.319   4.459   0.900 -0.1760  1.5209 -0.9224
13001TIP3   OH260417   5.369   3.267   4.865 -0.0735 -0.3192  0.1004
13001TIP3    H160418   5.360   3.194   4.926  0.6768  0.5726  1.3216
13001TIP3    H260419   5.463   3.278   4.854 -0.1927  0.0418 -0.6039
13002TIP3   OH260420   1.294   2.602  16.617 -0.1906 -0.1589  0.1280
13002TIP3    H160421   1.379   2.616  16.659 -0.6467 -2.1472  1.9332
13002TIP3    H260422   1.236   2.665  16.660 -0.1337 -0.4912  0.7017
13003TIP3   OH260423   1.047   5.726   0.815  0.2292 -0.0150  0.4543
13003TIP3    H160424   0.997   5.644   0.815 -0.3294  0.3105  1.4266
13003TIP3    H260425   1.095   5.725   0.898 -1.6541  1.7128  1.6756
13004TIP3   OH260426   0.736   5.315   4.338 -0.6020  0.2148 -0.9080
13004TIP3    H160427   0.757   5.250   4.270 -0.2057 -0.6870  0.0537
13004TIP3    H260428   0.742   5.267   4.420  1.1083  1.7662 -0.0339
13005TIP3   OH260429   6.239   1.702   2.668 -0.3002  0.0397 -0.3962
13005TIP3    H160430   6.145   1.700   2.686 -0.4612  2.7496 -0.6044
13005TIP3    H260431   6.279   1.662   2.745 -1.5653 -0.7311 -0.1078
13006TIP3   OH260432   1.652   2.441   4.555 -0.1027 -0.0422 -0.0635
13006TIP3    H160433   1.627   2.457   4.464 -0.4485 -0.3024 -0.0149
13006TIP3    H260434   1.569   2.420   4.599  0.2967 -1.7390 -0.0706
13007TIP3   OH260435   6.345   4.360  14.833 -0.3852 -0.3970  0.3734
13007TIP3    H160436   6.330   4.304  14.909  0.1661 -0.4588  0.4464
13007TIP3    H260437   6.318   4.447  14.862  1.8091  0.0283  1.4266
13008TIP3   OH260438   5.291   3.036   1.314  0.5514 -0.2213 -0.1211
13008TIP3    H160439   5.374   3.020   1.270 -0.2531 -1.0032 -1.4317
13008TIP3    H260440   5.315   3.077   1.397  2.1700  0.4558 -0.8870
13009TIP3   OH260441   4.363   5.772   6.037 -0.4729  0.3033 -0.4542
13009TIP3    H160442   4.347   5.752   6.129 -1.9410  0.2136 -0.6978
13009TIP3    H260443   4.458   5.767   6.027 -0.1377  1.7669  1.3764
13010TIP3   OH260444   3.856   2.105  13.959  0.8322 -0.0483 -0.3024
13010TIP3    H160445   3.768   2.068  13.957  0.0863  1.6161 -0.0036
13010TIP3    H260446   3.876   2.114  14.052  0.2485  1.9354 -0.3421
13011TIP3   OH260447   3.684   4.002  14.418  0.3080  0.3090  0.2860
13011TIP3    H160448   3.706   4.034  14.505 -0.2263  0.8404  0.2333
13011TIP3    H260449   3.745   4.047  14.360  1.7238 -1.2192  0.5171
13012TIP3   OH260450   2.017   6.375  16.737 -0.3558  0.0731  0.4743
13012TIP3    H160451   2.092   6.383  16.796 -1.0584 -2.3050  1.7821
13012TIP3    H260452   1.955   6.441  16.769  1.2080  2.3013 -0.8294
13013TIP3   OH260453   2.769   5.471  15.393  0.3774  0.8110  0.0170
13013TIP3    H160454   2.832   5.522  15.444  2.0084  0.8437 -1.9451
13013TIP3    H260455   2.768   5.386  15.436  2.4886  0.5160 -0.4168
13014TIP3   OH260456   5.904   1.669  16.061  0.0101  0.5614 -0.5389
13014TIP3    H160457   5.878   1.761  16.058  0.5291  0.7284 -0.0192
13014TIP3    H260458   5.868   1.637  16.144  0.0475  0.3585 -0.6007
13015TIP3   OH260459   3.643   3.105  14.550  0.4927 -0.2035 -0.4020
13015TIP3    H160460   3.601   3.033  14.598  0.6014 -0.8428 -1.2515
13015TIP3    H260461   3.598   3.107  14.465  0.6818  0.5550 -0.4935
13016TIP3   OH260462   4.364   4.533   2.068  0.1651 -0.4696  0.4033
13016TIP3    H160463   4.285   4.519   2.119 -0.3236  2.7125  0.7028
13016TIP3    H260464   4.428   4.473   2.106 -1.5637 -1.7733  1.3773
13017TIP3   OH260465   0.462   4.716   1.935 -0.3269  0.0307 -0.3782
13017TIP3    H160466   0.543   4.734   1.888 -0.3035 -1.3505 -0.9157
13017TIP3    H260467   0.464   4.622   1.951 -1.0008  0.2487  1.1734
13018TIP3   OH260468   0.448   2.235   1.537 -0.1910  0.1683 -0.3531
13018TIP3    H160469   0.427   2.169   1.603 -0.5730 -0.9053 -1.5052
13018TIP3    H260470   0.470   2.184   1.459 -1.8903  1.4092 -1.7119
13019TIP3   OH260471   0.433   2.083  12.542  0.3278  0.1278  0.1028
13019TIP3    H160472   0.506   2.038  12.500  0.4035  1.5067 -1.3321
13019TIP3    H260473   0.375   2.108  12.470 -0.8130  0.3740  1.0678
13020TIP3   OH260474   0.155   2.378   3.939  0.6550  0.1961 -0.0459
13020TIP3    H160475   0.205   2.443   3.989  1.2672  1.0464 -1.7127
13020TIP3    H260476   0.099   2.430   3.882 -0.2096 -0.7604 -0.0893
13021TIP3   OH260477   2.143   2.429  15.017  0.5829  0.0872  0.1055
13021TIP3    H160478   2.234   2.437  14.986  2.3627  1.2548  4.7968
13021TIP3    H260479   2.105   2.515  15.001 -0.6323 -0.9293 -3.6630
13022TIP3   OH260480   5.255   3.325  14.754 -0.2081  0.7758 -0.2563
13022TIP3    H160481   5.206   3.266  14.697  1.4317  0.3642 -1.3414
13022TIP3    H260482   5.345   3.321  14.720 -0.0096  3.8840 -0.3982
13023TIP3   OH260483   6.470   1.041  13.927 -0.1055  0.4411 -0.7053
13023TIP3    H160484   6.541   1.083  13.977 -0.5831  1.5363 -0.9232
13023TIP3    H260485   6.432   1.112  13.875 -2.0777  0.1085  0.2163
13024TIP3   OH260486   0.456   2.323   5.384 -0.7890  0.3308  0.0335
13024TIP3    H160487   0.446   2.314   5.479 -0.6109 -0.0745  0.0159
13024TIP3    H260488   0.368   2.345   5.354 -0.5439  1.9404  0.4472
13025TIP3   OH260489   5.961   5.303  12.597 -0.2547  0.1565  0.6011
13025TIP3    H160490   6.056   5.296  12.608 -0.2418 -1.0882 -0.0625
13025TIP3    H260491   5.950   5.356  12.518 -0.0687 -0.6244  0.0385
13026TIP3   OH260492   2.831   2.209  10.547  0.2577 -0.0656  0.0507
13026TIP3    H160493   2.916   2.168  10.560  0.3792 -0.0687 -0.7469
13026TIP3    H260494   2.850   2.291  10.503 -0.3122 -1.1772 -2.4136
13027TIP3   OH260495   6.122   4.881   0.559  0.3998  0.2336  0.0328
13027TIP3    H160496   6.123   4.869   0.654 -0.0991  1.8333  0.2736
13027TIP3    H260497   6.029   4.874   0.536  0.5777 -0.7073 -0.4319
13028TIP3   OH260498   0.924   5.053  14.113 -0.1149  0.2263 -0.0446
13028TIP3    H160499   1.004   5.000  14.122 -1.4539 -1.7468  1.1745
13028TIP3    H260500   0.925   5.084  14.023  0.7656 -1.9076 -0.8224
13029TIP3   OH260501   3.982   2.307  11.680  0.7034 -0.2955 -0.1552
13029TIP3    H160502   4.042   2.379  11.701 -0.3047  0.2935  0.8568
13029TIP3    H260503   4.036   2.228  11.685  2.0836  0.4234 -2.2966
13030TIP3   OH260504   2.646   6.566   5.836 -0.1694 -0.3376  0.3653
13030TIP3    H160505   2.563   6.530   5.805 -0.5896  0.4573  0.5286
13030TIP3    H260506   2.684   6.496   5.888 -1.1958 -0.3974  1.0839
13031TIP3   OH260507   1.108   0.973   4.685  0.2068 -0.5166 -0.7342
13031TIP3    H160508   1.089   0.882   4.661 -0.2903 -0.4486 -0.6221
13031TIP3    H260509   1.172   1.002   4.621 -0.0251 -0.7874 -1.0935
13032TIP3   OH260510   5.526   6.612   4.176  0.3595  0.6478 -0.3454
13032TIP3    H160511   5.556   6.700   4.155  1.7663  0.5828  1.1957
13032TIP3    H260512   5.601   6.555   4.155  0.3433  0.1288  0.9081
13033TIP3   OH260513   2.680   3.516  16.142 -0.4095  0.3606  0.1351
13033TIP3    H160514   2.761   3.563  16.124 -0.2811  0.3379  0.6406
13033TIP3    H260515   2.695   3.472  16.226 -0.4633 -0.7138 -0.3962
13034TIP3   OH260516   0.699   6.687  12.109 -0.0071  0.3269  0.3695
13034TIP3    H160517   0.759   6.631  12.061 -0.5007  0.0844  0.0344
13034TIP3    H260518   0.624   6.631  12.129  0.4426  0.2422  1.9595
13035TIP3   OH260519   4.440   2.472   3.049 -0.0532 -0.1685  0.0369
13035TIP3    H160520   4.352   2.482   3.084 -0.2322 -1.1056 -0.1192
13035TIP3    H260521   4.456   2.377   3.049  1.0341 -0.0022  0.2687
13036TIP3   OH260522   5.592   3.471  14.054  0.0567 -0.6975  0.2518
13036TIP3    H160523   5.530   3.400  14.070 -1.0287  0.4723  1.4278
13036TIP3    H260524   5.677   3.434  14.077 -0.5091 -1.5692  0.9946
13037TIP3   OH260525   2.688   1.837  16.262  0.4991  0.2373  0.3342
13037TIP3    H160526   2.612   1.895  16.273  0.0919 -0.2272  0.0043
13037TIP3    H260527   2.735   1.873  16.186  0.1018 -0.0176 -0.0358
13038TIP3   OH260528   2.868   5.908   0.574  0.2444  0.1165  0.2775
13038TIP3    H160529   2.962   5.889   0.578  0.0580 -0.9948 -0.1990
13038TIP3    H260530   2.839   5.909   0.666  0.5438 -0.5126  0.3814
13039TIP3   OH260531   3.305   1.660   1.794 -0.0542  0.3738  0.6494
13039TIP3    H160532   3.262   1.690   1.714  1.1856  0.3751 -0.0465
13039TIP3    H260533   3.325   1.568   1.778  1.8356  0.8242  0.1798
13040TIP3   OH260534   0.954   0.585  16.962  0.1348  0.7698  0.1994
13040TIP3    H160535   0.957   0.669  17.008  0.0663  0.2473  1.1761
13040TIP3    H260536   0.898   0.601  16.886  0.1134  1.5961  0.3814
13041TIP3   OH260537   4.824   3.094  13.330  0.3176  0.7973  0.0094
13041TIP3    H160538   4.788   3.057  13.249  0.8004  1.4321 -0.5128
13041TIP3    H260539   4.790   3.184  13.332 -1.0682  0.2796  1.3958
13042TIP3   OH260540   5.892   3.779  16.925 -0.7879 -0.0532  0.3332
13042TIP3    H160541   5.865   3.871  16.923  0.0718  0.1964 -0.4572
13042TIP3    H260542   5.920   3.761  16.835 -1.5105 -1.2725  0.3312
13043TIP3   OH260543   6.399   0.284  17.314  0.2638  0.7141 -0.3306
13043TIP3    H160544   6.439   0.308  17.231  0.4613  0.6941 -0.2399
13043TIP3    H260545   6.423   0.355  17.374  1.9780 -0.3456  0.3050
13044TIP3   OH260546   4.832   1.811   0.138  0.4213 -0.4638  0.2590
13044TIP3    H160547   4.843   1.787   0.046  0.1282  0.9164 -0.1659
13044TIP3    H260548   4.739   1.834   0.146  1.1255  3.2421 -0.1601
13045TIP3   OH260549   3.777   3.020   0.201  0.3879 -0.7920  0.0489
13045TIP3    H160550   3.845   3.005   0.266  1.1387  3.1674  0.4442
13045TIP3    H260551   3.803   2.966   0.126  2.7940 -0.9915  0.9398
13046TIP3   OH260552   2.303   0.934   6.506 -0.3468  0.4132  0.6998
13046TIP3    H160553   2.369   0.878   6.466 -2.4420 -1.2001 -0.6709
13046TIP3    H260554   2.230   0.875   6.525 -1.5207  2.1741  1.9178
13047TIP3   OH260555   5.052   1.016   1.785 -0.0413  0.1674  0.2290
13047TIP3    H160556   5.020   0.927   1.800  1.6084 -0.5997 -0.5597
13047TIP3    H260557   5.023   1.038   1.697  0.6709 -0.1252 -0.0870
13048TIP3   OH260558   4.453   5.221  15.127  0.0537 -0.3513  0.6020
13048TIP3    H160559   4.453   5.229  15.032 -1.5946 -1.1081  0.5066
13048TIP3    H260560   4.542   5.191  15.149 -0.5529 -3.8131 -1.0775
13049TIP3   OH260561   2.061   4.607   0.597  0.3752 -0.1422  0.1613
13049TIP3    H160562   2.145   4.562   0.598  0.4076 -0.0767  0.4221
13049TIP3    H260563   1.998   4.541   0.626  0.4007 -0.0687  0.3910
13050TIP3   OH260564   5.436   3.667   2.615 -0.6014 -0.3332 -0.2618
13050TIP3    H160565   5.525   3.632   2.613 -0.3071  0.3254  0.5337
13050TIP3    H260566   5.394   3.622   2.689 -0.9891 -0.7666 -0.7387
13051TIP3   OH260567   5.493   4.486  16.037 -0.3432 -0.2751 -0.1144
13051TIP3    H160568   5.575   4.506  16.081  0.5877  0.7387 -2.1749
13051TIP3    H260569   5.465   4.403  16.074  0.8789  0.0442  1.6213
13052TIP3   OH260570   3.094   0.352  17.294  0.1745 -0.3476 -0.1176
13052TIP3    H160571   3.132   0.425  17.245  1.7008 -1.4018 -0.5677
13052TIP3    H260572   3.161   0.283  17.291 -0.9779 -1.5632  0.7993
13053TIP3   OH260573   6.130   3.793  11.872  0.2701  0.2545  0.1554
13053TIP3    H160574   6.180   3.730  11.820  0.1450  0.3463 -0.0807
13053TIP3    H260575   6.187   3.815  11.945 -1.0328 -2.9661  2.3776
13054TIP3   OH260576   5.362   2.654   2.192 -0.1742 -0.1767 -0.1792
13054TIP3    H160577   5.353   2.617   2.279  2.7369  0.1656  0.3596
13054TIP3    H260578   5.366   2.578   2.134 -0.2383 -0.4752  0.2056
13055TIP3   OH260579   3.817   5.526  11.770  0.0114  0.5138 -0.1038
13055TIP3    H160580   3.751   5.526  11.700 -0.8043  0.1891  0.6507
13055TIP3    H260581   3.894   5.484  11.730 -0.3892  0.4732 -0.8551
13056TIP3   OH260582   3.689   2.759   1.139 -0.6435 -0.1441  0.2375
13056TIP3    H160583   3.762   2.791   1.087  1.1332 -2.5338  1.0463
13056TIP3    H260584   3.700   2.801   1.224 -0.3417 -0.3149  0.2841
13057TIP3   OH260585   3.998   0.175   5.115  0.1442 -0.3788 -0.0269
13057TIP3    H160586   4.066   0.229   5.157 -0.4456 -1.2867  2.2136
13057TIP3    H260587   3.928   0.237   5.096 -0.5036 -0.2505  2.4678
13058TIP3   OH260588   5.651   2.026   3.985  0.2304  0.2600 -0.4880
13058TIP3    H160589   5.742   1.998   3.970  0.5850  1.1278 -0.0229
13058TIP3    H260590   5.657   2.087   4.059 -0.5844  1.1415 -1.1345
13059TIP3   OH260591   0.033   1.171   2.173  0.4209  0.0062  0.2899
13059TIP3    H160592  -0.004   1.248   2.214 -0.4044 -0.9858  1.4670
13059TIP3    H260593   0.121   1.164   2.210  0.2712  0.0331  0.6513
13060TIP3   OH260594   1.208   4.148   0.124 -0.2500  0.0702 -0.2464
13060TIP3    H160595   1.238   4.236   0.148  1.3664 -0.8213  1.1546
13060TIP3    H260596   1.276   4.115   0.066 -0.8735 -0.2526 -0.7961
13061TIP3   OH260597   4.416   4.476   6.018 -0.0787 -0.3974  0.1083
13061TIP3    H160598   4.356   4.530   5.966  0.4682 -0.7636 -0.9428
13061TIP3    H260599   4.444   4.407   5.958  2.2048  0.3598  0.1980
13062TIP3   OH260600   0.669   4.353  11.975 -0.4212 -0.3520  0.2309
13062TIP3    H160601   0.713   4.273  12.005  0.9131  0.5722  0.8314
13062TIP3    H260602   0.714   4.376  11.894 -0.1800  0.2825  0.5407
13063TIP3   OH260603   4.940   1.689   3.342  0.2465  0.1118 -0.0591
13063TIP3    H160604   4.911   1.624   3.278 -0.5731  0.9736 -0.5956
13063TIP3    H260605   4.912   1.654   3.427 -0.2460 -0.2140 -0.3508
13064TIP3   OH260606   2.702   4.329  13.442  0.4195 -0.6375 -0.4600
13064TIP3    H160607   2.778   4.360  13.491  0.0135  2.0673 -1.3372
13064TIP3    H260608   2.643   4.293  13.508  1.4639 -0.5820  0.5241
13065TIP3   OH260609   6.396   3.038  16.592  0.3347  0.0175  0.2359
13065TIP3    H160610   6.352   2.953  16.598  1.7283 -0.6849  1.0089
13065TIP3    H260611   6.358   3.090  16.663  0.3662 -0.3981  0.5591
13066TIP3   OH260612   0.845   3.733   1.260 -0.2374 -0.5193  0.3145
13066TIP3    H160613   0.786   3.723   1.335  0.7773 -2.2600  0.9461
13066TIP3    H260614   0.933   3.734   1.299  0.2551 -0.0452 -0.7629
13067TIP3   OH260615   0.922   3.331  16.472 -0.5300 -0.1109 -0.5579
13067TIP3    H160616   0.914   3.351  16.566 -1.1450  0.4578 -0.7294
13067TIP3    H260617   0.833   3.334  16.439 -0.3695 -0.8204 -1.0692
13068TIP3   OH260618   2.612   3.456  17.180  0.4188 -0.8950 -0.4095
13068TIP3    H160619   2.627   3.440  17.273  0.0877  1.1124  0.0327
13068TIP3    H260620   2.618   3.369  17.140 -0.0526 -1.9014  1.5489
13069TIP3   OH260621   1.666   1.459  17.002  0.7921 -0.3134  0.6088
13069TIP3    H160622   1.692   1.368  17.018  1.3424 -0.2148  0.3165
13069TIP3    H260623   1.582   1.468  17.046 -0.2541 -1.5373 -1.0353
13070TIP3   OH260624   4.189   0.306  14.593  0.2082  0.3544  0.2950
13070TIP3    H160625   4.146   0.391  14.599 -1.3003 -0.3425 -0.1608
13070TIP3    H260626   4.175   0.278  14.503  1.7332  0.1219  0.0960
13071TIP3   OH260627   5.107   4.937   4.935 -0.2418 -0.0352 -0.3204
13071TIP3    H160628   5.141   4.967   5.019 -0.5355 -0.9830  0.1558
13071TIP3    H260629   5.166   4.975   4.870  0.5420 -0.0452  0.3712
13072TIP3   OH260630   3.953   6.372  11.202 -0.3859  0.3006  0.1587
13072TIP3    H160631   3.918   6.461  11.196 -0.0218  0.6546  2.3648
13072TIP3    H260632   3.888   6.317  11.157 -1.5169  1.4662  0.3226
13073TIP3   OH260633   4.464   5.924   1.809  0.2084 -0.3927  0.6427
13073TIP3    H160634   4.423   5.914   1.895  0.3472 -0.8516  0.6577
13073TIP3    H260635   4.557   5.936   1.828  0.3793 -1.4223  0.5261
13074TIP3   OH260636   3.136   6.223   3.643  0.6087  0.3517  0.4180
13074TIP3    H160637   3.106   6.234   3.553  0.5980  0.7599  0.4702
13074TIP3    H260638   3.231   6.230   3.637  0.5334  1.8890  0.6366
13075TIP3   OH260639   5.977   0.463  15.524 -0.2006  0.4739  0.4646
13075TIP3    H160640   5.914   0.473  15.452 -0.6508  4.0452  1.2039
13075TIP3    H260641   5.934   0.401  15.584 -2.4202  1.7241  0.2729
13076TIP3   OH260642   2.897   0.289  15.259  0.0748 -0.2512  0.2578
13076TIP3    H160643   2.825   0.308  15.200  1.1737  0.7443 -0.8249
13076TIP3    H260644   2.904   0.193  15.258 -0.8971 -0.3300 -0.0058
13077TIP3   OH260645   4.844   0.044  12.538  0.1886  0.3461 -0.7792
13077TIP3    H160646   4.753   0.053  12.566 -0.3052 -2.4398 -1.2643
13077TIP3    H260647   4.840  -0.006  12.456  2.2181 -1.7868  0.2934
13078TIP3   OH260648   6.182   5.137  15.635 -0.2004  0.0954  0.5839
13078TIP3    H160649   6.227   5.086  15.567  2.0252 -0.1896  2.1559
13078TIP3    H260650   6.146   5.070  15.694  0.0149  0.3212  0.9754
13079TIP3   OH260651   3.942   2.311   0.741 -0.5758  0.0239  0.5584
13079TIP3    H160652   4.010   2.369   0.775  1.6583 -1.8914 -0.3794
13079TIP3    H260653   3.904   2.271   0.819  1.3651 -0.9610  1.0539
13080TIP3   OH260654   6.397   0.110  14.360  0.3292  0.0191  0.0485
13080TIP3    H160655   6.450   0.036  14.389  1.5146  1.1158  0.7557
13080TIP3    H260656   6.459   0.168  14.315  0.2774  2.3135  2.6462
13081TIP3   OH260657   6.073   6.264   0.189 -0.0850  0.1969  0.0725
13081TIP3    H160658   6.165   6.257   0.165 -0.3774 -3.0520 -0.6507
13081TIP3    H260659   6.059   6.195   0.253 -1.6874  1.7786  1.5490
13082TIP3   OH260660   0.026   3.079   4.058  0.5069 -0.5044 -0.2010
13082TIP3    H160661  -0.030   3.009   4.090  0.3549  0.3147  1.4422
13082TIP3    H260662   0.073   3.110   4.136  0.2237  1.4960 -0.7549
13083TIP3   OH260663   1.520   4.646  15.229 -0.0324  0.1880 -0.5819
13083TIP3    H160664   1.517   4.726  15.282  0.4058 -1.1372  1.5849
13083TIP3    H260665   1.611   4.640  15.200  0.5744 -0.7074  1.3259
13084TIP3   OH260666   0.101   3.806  14.990  0.2116  0.0547 -0.4265
13084TIP3    H160667   0.171   3.866  15.013  0.3127 -0.5252  0.8583
13084TIP3    H260668   0.118   3.782  14.899 -0.0744  2.2680 -1.1243
13085TIP3   OH260669   5.606   4.087   0.472 -0.4518 -0.1433  0.3417
13085TIP3    H160670   5.514   4.111   0.458 -0.6981 -0.5163  1.2225
13085TIP3    H260671   5.653   4.170   0.471 -1.3077  0.5215  3.4882
13086TIP3   OH260672   4.948   1.572  13.917  1.1024  0.5169  0.1350
13086TIP3    H160673   5.017   1.619  13.963 -0.8122  1.8814  1.7695
13086TIP3    H260674   4.878   1.560  13.982 -0.3005 -0.6423 -1.4724
13087TIP3   OH260675   3.575   1.080   0.470  0.1779  0.1244 -0.5836
13087TIP3    H160676   3.621   1.113   0.547  0.7128 -0.0789 -0.8154
13087TIP3    H260677   3.486   1.062   0.501 -0.2200  2.0543 -0.5205
13088TIP3   OH260678   0.312   0.778  15.409 -0.5715  0.2437 -0.0116
13088TIP3    H160679   0.345   0.864  15.383 -0.1825  0.3219  0.7257
13088TIP3    H260680   0.390   0.725  15.426 -0.8095 -0.0516  0.1883
13089TIP3   OH260681   4.394   0.915  12.197  0.0469  0.4642  0.1695
13089TIP3    H160682   4.352   0.853  12.137 -1.1343 -0.0433  1.4803
13089TIP3    H260683   4.326   0.937  12.261  1.9284 -1.0865  2.9370
13090TIP3   OH260684   1.837   4.484   0.391 -0.3275 -0.1559  0.2009
13090TIP3    H160685   1.928   4.456   0.398 -0.5466 -0.8633  0.2699
13090TIP3    H260686   1.832   4.532   0.308  0.1806  0.1865  0.3645
13091TIP3   OH260687   2.089   3.081   5.160  0.1500  0.7040 -0.2248
13091TIP3    H160688   2.092   3.124   5.075  0.1119  0.2545 -0.4584
13091TIP3    H260689   2.059   3.149   5.220  0.6332  1.1515 -0.4836
13092TIP3   OH260690   4.301   1.057   1.061 -0.0510 -0.1593 -0.0894
13092TIP3    H160691   4.348   1.099   0.989 -0.1530  0.1499  0.0238
13092TIP3    H260692   4.323   0.964   1.052  0.0183 -0.1115 -0.4581
13093TIP3   OH260693   5.505   0.269   5.126  0.2905  0.3332 -0.5406
13093TIP3    H160694   5.447   0.193   5.132  2.1309 -1.1432 -0.6145
13093TIP3    H260695   5.445   0.344   5.122 -1.6330 -1.1512 -1.6277
13094TIP3   OH260696   2.733   3.803  12.786  0.2050 -0.1615 -0.0221
13094TIP3    H160697   2.755   3.849  12.867 -1.9792  1.7279 -0.3794
13094TIP3    H260698   2.705   3.716  12.814 -0.8828  0.5829  1.3398
13095TIP3   OH260699   3.165   1.308   2.615 -0.0141  0.2781 -0.0609
13095TIP3    H160700   3.219   1.290   2.692 -0.8487  0.9089  0.7002
13095TIP3    H260701   3.197   1.392   2.583  0.5028 -0.1065 -0.5613
13096TIP3   OH260702   0.094   5.231  16.089  0.3556 -0.0037 -0.3131
13096TIP3    H160703   0.129   5.146  16.063  1.7793  0.1918  0.8135
13096TIP3    H260704   0.161   5.294  16.063 -0.7673  0.8140 -1.3042
13097TIP3   OH260705   2.960   3.522  17.313 -0.4797 -0.0861  0.1115
13097TIP3    H160706   2.993   3.589  17.373  2.0446  0.0394 -1.2669
13097TIP3    H260707   2.930   3.571  17.236  1.4517 -0.4593 -0.9362
13098TIP3   OH260708   3.434   3.674   2.961  0.2066  0.2221  0.3102
13098TIP3    H160709   3.412   3.760   2.995 -0.3818  0.0838  0.3083
13098TIP3    H260710   3.381   3.613   3.014 -1.4805  0.0728 -1.4238
13099TIP3   OH260711   3.672   0.438   1.687 -0.4237 -0.0593  0.2691
13099TIP3    H160712   3.732   0.394   1.747 -1.4272 -0.8201  0.7466
13099TIP3    H260713   3.669   0.381   1.610 -0.9787 -0.3434  0.4929
13100TIP3   OH260714   2.494   4.564   4.718  0.3383  0.1910  0.3210
13100TIP3    H160715   2.462   4.475   4.734  0.8300  0.2712  1.9030
13100TIP3    H260716   2.417   4.619   4.733 -0.7089 -0.0584 -3.2633
13101TIP3   OH260717   4.328   2.411   5.873  0.4669  0.2638  0.2031
13101TIP3    H160718   4.375   2.470   5.932 -0.3302  1.4863 -0.3607
13101TIP3    H260719   4.242   2.399   5.913  0.0341  0.8405 -0.5342
13102TIP3   OH260720   2.239   6.013   2.957 -0.7516 -0.3475 -0.1944
13102TIP3    H160721   2.227   5.938   2.899 -0.2816  0.1266 -0.9178
13102TIP3    H260722   2.245   5.974   3.045 -0.4496 -1.1645 -0.5591
13103TIP3   OH260723   3.048   6.501   0.117 -0.0223 -0.0427 -0.5648
13103TIP3    H160724   3.054   6.447   0.039  0.1807 -1.4427  0.3804
13103TIP3    H260725   2.971   6.467   0.164 -0.1581  0.7892 -0.1586
13104TIP3   OH260726   3.465   2.919  17.095  0.4873 -0.1812 -0.2429
13104TIP3    H160727   3.479   2.939  17.003  0.4625  1.3087  0.0447
13104TIP3    H260728   3.449   2.825  17.098 -0.0512 -0.1619 -1.8226
13105TIP3   OH260729   3.920   5.964   1.197 -0.2333 -0.1141  0.6023
13105TIP3    H160730   3.932   5.906   1.272 -1.5807  0.3599  1.2017
13105TIP3    H260731   3.918   6.052   1.235  1.9658  0.4109 -0.3072
13106TIP3   OH260732   6.658   0.512   1.193 -0.0157 -0.8458 -0.5992
13106TIP3    H160733   6.694   0.592   1.154 -2.1306 -0.2996 -1.5852
13106TIP3    H260734   6.631   0.539   1.281  1.0549 -1.0203 -0.2006
13107TIP3   OH260735   2.227   6.418  11.379 -0.0758 -0.2209 -0.6456
13107TIP3    H160736   2.135   6.395  11.393 -0.1211  0.1014 -0.4140
13107TIP3    H260737   2.227   6.470  11.299 -0.3992  1.6729  0.5234
13108TIP3   OH260738   2.021   0.284  16.041 -0.0893 -0.3112  0.0168
13108TIP3    H160739   1.954   0.324  15.986 -0.2858 -0.8400 -0.1423
13108TIP3    H260740   1.991   0.193  16.052  1.5905 -1.1717 -1.7734
13109TIP3   OH260741   3.291   0.513  12.283 -0.0465 -0.1022  0.0898
13109TIP3    H160742   3.374   0.481  12.319  0.8214 -0.4685 -2.0449
13109TIP3    H260743   3.276   0.457  12.206 -0.1378  2.4802 -1.9126
13110TIP3   OH260744   5.826   3.328  12.649 -0.1039 -0.2661  0.0530
13110TIP3    H160745   5.777   3.358  12.573 -2.3688 -2.5022  0.5041
13110TIP3    H260746   5.787   3.375  12.723  1.4025  1.1316  0.0264
13111TIP3   OH260747   0.480   2.302  16.479  0.1364 -0.0329 -0.3660
13111TIP3    H160748   0.519   2.297  16.567  1.1078 -2.0048 -0.8566
13111TIP3    H260749   0.398   2.253  16.487 -0.3668  0.8189 -0.2739
13112TIP3   OH260750   1.657   2.642  12.383 -0.2161  0.2840 -0.2085
13112TIP3    H160751   1.660   2.682  12.470 -0.9181 -0.8722  0.3564
13112TIP3    H260752   1.737   2.674  12.340  0.4561  0.4008  1.0651
13113TIP3   OH260753   4.564   2.879  14.820 -0.2788  0.4951 -0.1759
13113TIP3    H160754   4.577   2.786  14.798 -0.1836  0.0406  1.6148
13113TIP3    H260755   4.470   2.887  14.836 -0.1492  0.4350  0.6884
13114TIP3   OH260756   3.501   4.177   4.419 -0.2557  0.3433 -0.2341
13114TIP3    H160757   3.520   4.097   4.468  1.5544  1.0417  0.3122
13114TIP3    H260758   3.491   4.149   4.328 -2.0932 -0.7795  0.2815
13115TIP3   OH260759   2.929   6.239  15.998  0.5616 -0.9636 -0.3443
13115TIP3    H160760   2.868   6.301  15.957  2.1421 -0.2642 -1.7376
13115TIP3    H260761   2.991   6.293  16.046  0.5363 -1.6265  0.4596
13116TIP3   OH260762   2.776   6.628  12.529  0.3268 -0.2331 -0.8677
13116TIP3    H160763   2.788   6.556  12.591  0.5004  0.6275  0.1285
13116TIP3    H260764   2.845   6.690  12.551 -2.6608  2.5292  1.6131
13117TIP3   OH260765   2.078   3.090   6.828  0.0495  0.3878 -0.1193
13117TIP3    H160766   2.150   3.034   6.857 -1.1524 -1.3094 -0.2704
13117TIP3    H260767   2.000   3.034   6.833 -1.2817  2.1667  0.0562
13118TIP3   OH260768   3.988   3.755  16.836  0.3038  0.3043 -0.2019
13118TIP3    H160769   4.002   3.764  16.741  1.4227  0.9742  0.0087
13118TIP3    H260770   3.991   3.845  16.869  1.1054 -0.0183  0.6203
13119TIP3   OH260771   4.586   0.762  14.287  0.6807 -0.5892  0.0622
13119TIP3    H160772   4.570   0.848  14.327 -1.9929 -0.7625 -0.4592
13119TIP3    H260773   4.559   0.773  14.196  1.1475 -1.7604 -0.2268
13120TIP3   OH260774   4.604   2.155  15.726  1.3026  0.0683 -0.6247
13120TIP3    H160775   4.634   2.232  15.774  1.5243 -1.3001  1.5853
13120TIP3    H260776   4.660   2.152  15.649  2.3712  1.2236  0.0627
13121TIP3   OH260777   4.502   5.268  11.058 -0.0830 -0.1021  0.0939
13121TIP3    H160778   4.471   5.231  10.975 -0.1980  0.4653 -0.1175
13121TIP3    H260779   4.588   5.228  11.072 -0.2954 -0.6116 -0.0220
13122TIP3   OH260780   1.803   5.428  15.575 -0.0164 -0.7872  0.3930
13122TIP3    H160781   1.724   5.404  15.527 -0.4335  0.4361  0.4218
13122TIP3    H260782   1.871   5.371  15.540 -0.7129 -1.2026 -0.3083
13123TIP3   OH260783   5.028   4.753  14.495  0.1099  0.5266  0.0173
13123TIP3    H160784   4.952   4.791  14.540 -0.1233 -0.1965  0.2460
13123TIP3    H260785   5.090   4.825  14.490  0.0436  0.7039  1.2868
13124TIP3   OH260786   6.477   5.521   3.804 -0.0284  0.2388  1.3305
13124TIP3    H160787   6.556   5.469   3.788  0.2054  0.6680  1.0608
13124TIP3    H260788   6.405   5.461   3.784  0.2425  0.2134  0.3480
13125TIP3   OH260789   3.729   0.944   2.535  0.1624  0.3474  0.7519
13125TIP3    H160790   3.643   0.972   2.567 -0.2846 -0.4930  0.3174
13125TIP3    H260791   3.740   0.991   2.452 -1.7565 -2.5535 -1.3448
13126TIP3   OH260792   4.330   1.230  10.591 -0.1683  0.4344  0.2391
13126TIP3    H160793   4.292   1.318  10.594  1.5899  1.3634 -1.7665
13126TIP3    H260794   4.280   1.185  10.522 -1.9868 -0.6928  2.1949
13127TIP3   OH260795   3.887   5.685   4.157 -0.3346 -0.2109  0.0913
13127TIP3    H160796   3.893   5.728   4.242  0.3337 -0.6468  0.2677
13127TIP3    H260797   3.977   5.678   4.126 -0.6227  0.5333 -0.9576
13128TIP3   OH260798   4.251   0.899  13.293 -0.2451  0.1881 -0.0064
13128TIP3    H160799   4.341   0.931  13.295  0.2266 -0.9981 -0.9668
13128TIP3    H260800   4.238   0.856  13.377  1.0630 -2.0952 -0.9029
13129TIP3   OH260801   2.302   0.393   1.224  0.4796  0.5672 -0.1814
13129TIP3    H160802   2.361   0.393   1.299  1.2643  1.7563 -0.7687
13129TIP3    H260803   2.336   0.324   1.166  0.4438  0.3045  0.1064
13130TIP3   OH260804   5.252   2.920  13.784 -0.2016  0.5093  0.3120
13130TIP3    H160805   5.313   2.846  13.792 -0.7740  0.0677  0.6892
13130TIP3    H260806   5.290   2.975  13.716 -1.2269 -1.6191 -2.1776
13131TIP3   OH260807   1.851   3.084  15.304 -0.3097  0.2592 -0.0400
13131TIP3    H160808   1.789   3.123  15.243 -2.8211  0.0201  2.1612
13131TIP3    H260809   1.849   2.991  15.285  1.2667  0.4643 -1.4888
13132TIP3   OH260810   4.995   3.388   2.213 -0.0998 -0.3771 -0.1443
13132TIP3    H160811   5.052   3.311   2.209 -0.2084 -0.4133 -1.1712
13132TIP3    H260812   4.907   3.353   2.201 -0.0782 -0.0144 -1.4834
13133TIP3   OH260813   3.570   0.024   1.250 -0.4181  0.3548  0.6152
13133TIP3    H160814   3.523  -0.004   1.171 -2.4898 -0.2745  1.9990
13133TIP3    H260815   3.547  -0.041   1.316 -0.8065  2.2456  2.4225
13134TIP3   OH260816   5.402   5.905  11.939 -0.1464 -0.2398 -0.1332
13134TIP3    H160817   5.435   5.922  12.027 -0.5102  0.9359 -0.1968
13134TIP3    H260818   5.480   5.889  11.886  0.1679  0.3823  0.1365
13135TIP3   OH260819   5.111   5.512   1.516  0.4500 -0.2563 -0.4455
13135TIP3    H160820   5.082   5.600   1.494 -1.1324 -0.7248 -0.3930
13135TIP3    H260821   5.046   5.480   1.579  0.4659 -1.7738 -1.1373
13136TIP3   OH260822   6.265   0.762   4.209  0.2623  0.4097 -0.3130
13136TIP3    H160823   6.230   0.705   4.277 -0.0413 -0.0368 -0.8327
13136TIP3    H260824   6.233   0.724   4.127  0.4243  1.0686 -0.6947
13137TIP3   OH260825   0.986   5.040  14.582  0.0886  0.3460 -0.0373
13137TIP3    H160826   0.981   5.046  14.677  1.1059  0.7225  0.0021
13137TIP3    H260827   0.920   5.103  14.550 -1.3478 -0.8758  0.3918
13138TIP3   OH260828   4.492   2.208   1.726 -0.2911  0.6254 -0.0718
13138TIP3    H160829   4.575   2.255   1.727  0.2971 -0.3692 -0.6853
13138TIP3    H260830   4.514   2.118   1.751 -1.4892  0.7689  1.7393
13139TIP3   OH260831   0.578   3.595  14.788  0.6747 -1.0035 -0.1547
13139TIP3    H160832   0.568   3.665  14.853  0.1126 -0.2335 -1.0511
13139TIP3    H260833   0.604   3.518  14.840  0.7541 -0.2804  0.9128
13140TIP3   OH260834   5.557   3.584   0.682 -0.4546  0.2121  0.2864
13140TIP3    H160835   5.609   3.535   0.618 -1.1709  0.6220 -0.6327
13140TIP3    H260836   5.621   3.640   0.726  0.2536 -0.9977  0.8476
13141TIP3   OH260837   4.569   3.736   1.711  0.4238 -0.4675 -0.9866
13141TIP3    H160838   4.564   3.814   1.655  0.0392  0.0233 -0.2843
13141TIP3    H260839   4.484   3.734   1.757  1.4994  0.3853  1.1881
13142TIP3   OH260840   0.968   1.720  15.641 -0.4464 -0.1007  1.0025
13142TIP3    H160841   1.003   1.791  15.587 -1.1033 -0.7143 -0.2664
13142TIP3    H260842   1.043   1.665  15.660 -0.2796 -0.1293  0.2988
13143TIP3   OH260843   2.952   3.963  11.292 -0.2027 -0.7758 -0.6376
13143TIP3    H160844   3.016   3.982  11.223 -0.7433  0.0190 -0.9239
13143TIP3    H260845   2.889   4.035  11.288  0.1881 -0.2900  1.2179
13144TIP3   OH260846   1.287   1.416  15.084  0.2387  0.0503  0.0260
13144TIP3    H160847   1.300   1.419  15.178  0.7878 -0.5524 -0.0280
13144TIP3    H260848   1.266   1.507  15.060 -1.6350 -0.1023  0.9451
13145TIP3   OH260849   3.145   3.193   1.451  0.1742  0.4743 -0.6002
13145TIP3    H160850   3.180   3.282   1.447  0.0204  0.5278 -0.7742
13145TIP3    H260851   3.056   3.204   1.485  0.5510  0.2767  0.5091
13146TIP3   OH260852   1.742   3.454   2.073 -0.5637 -0.1430 -0.5464
13146TIP3    H160853   1.776   3.367   2.094  0.4267  0.7902  2.2060
13146TIP3    H260854   1.789   3.480   1.994  0.9262 -1.1916 -0.0471
13147TIP3   OH260855   5.760   5.194  16.597 -0.4714  0.2620  0.2585
13147TIP3    H160856   5.822   5.240  16.654 -1.4222  1.2697  0.5093
13147TIP3    H260857   5.716   5.263  16.548 -1.1601 -0.4526 -0.1596
13148TIP3   OH260858   5.699   3.502  11.206  0.2181  0.0815 -0.1337
13148TIP3    H160859   5.685   3.498  11.111  0.9951 -1.8749 -0.2110
13148TIP3    H260860   5.612   3.521  11.242 -0.1851  0.3229 -1.2010
13149TIP3   OH260861   1.337   1.310   3.171  0.6447 -0.3788  0.7296
13149TIP3    H160862   1.374   1.398   3.177  0.4569 -0.0974 -1.4312
13149TIP3    H260863   1.368   1.277   3.086 -1.1821 -1.4797  0.4397
13150TIP3   OH260864   3.660   4.798  13.966  0.0765 -0.0784  0.4176
13150TIP3    H160865   3.724   4.816  13.898 -1.2558  0.7844 -0.6576
13150TIP3    H260866   3.712   4.785  14.046  1.6337 -0.6553 -0.6581
13151TIP3   OH260867   3.395   0.515  17.290 -0.0235 -0.1889  0.4143
13151TIP3    H160868   3.340   0.594  17.296  0.5389  0.1458  1.3035
13151TIP3    H260869   3.383   0.471  17.374 -0.1251 -0.9294  0.0219
13152TIP3   OH260870   1.793   1.195   3.867 -0.0865 -0.0706 -0.2238
13152TIP3    H160871   1.816   1.201   3.775 -1.0034  0.4432 -0.4290
13152TIP3    H260872   1.834   1.272   3.907  1.0571 -0.7592 -0.0209
13153TIP3   OH260873   4.709   1.241  11.336 -0.1123  0.0442  0.1525
13153TIP3    H160874   4.632   1.216  11.388  0.8168 -2.8409  0.3032
13153TIP3    H260875   4.678   1.236  11.245  0.0013 -1.6662  0.1861
13154TIP3   OH260876   3.216   5.265  16.422  0.4600  0.5431 -0.0293
13154TIP3    H160877   3.252   5.231  16.503 -0.3373  0.4077  0.2839
13154TIP3    H260878   3.177   5.349  16.446 -3.0620 -1.0682  0.6395
13155TIP3   OH260879   4.302   5.683  14.445  0.0742  0.6124  0.1532
13155TIP3    H160880   4.250   5.620  14.496  0.6067  0.0783  0.0453
13155TIP3    H260881   4.385   5.638  14.429  0.4881  1.3736  0.1305
13156TIP3   OH260882   5.450   2.808   5.691  0.2482  0.0273  0.8778
13156TIP3    H160883   5.499   2.800   5.609  0.8933  3.8397  0.7048
13156TIP3    H260884   5.517   2.821   5.758 -0.3637  0.7040  1.3796
13157TIP3   OH260885   2.297   5.975   4.311  0.1063 -0.0589  0.2045
13157TIP3    H160886   2.360   5.904   4.327 -1.6314 -1.8340 -0.3546
13157TIP3    H260887   2.347   6.055   4.321  2.4458 -1.3896 -0.2675
13158TIP3   OH260888   3.179   4.612  11.671 -0.3548 -0.2388  0.2196
13158TIP3    H160889   3.086   4.618  11.651 -0.6445 -0.0638  1.5236
13158TIP3    H260890   3.222   4.620  11.586 -1.4800  0.8810 -0.2842
13159TIP3   OH260891   4.814   4.103  17.156 -0.0948  0.2616  0.5376
13159TIP3    H160892   4.785   4.069  17.071 -0.3844  1.4318  0.1509
13159TIP3    H260893   4.762   4.054  17.219  0.9549 -1.4707  0.1394
13160TIP3   OH260894   4.860   0.643   0.373 -0.0427 -0.5261  0.2177
13160TIP3    H160895   4.870   0.735   0.397 -1.2132 -0.1946 -0.4696
13160TIP3    H260896   4.946   0.618   0.338  1.3403 -0.6810  3.4090
13161TIP3   OH260897   4.633   5.973   2.797 -0.1671  0.0230  0.9614
13161TIP3    H160898   4.613   6.053   2.846  0.1758  0.1154  0.9579
13161TIP3    H260899   4.609   5.993   2.707  0.7518  0.4467  0.7975
13162TIP3   OH260900   1.277   4.261  11.393  0.2607  0.4802 -0.2960
13162TIP3    H160901   1.230   4.214  11.462  0.8458  1.0039  0.4704
13162TIP3    H260902   1.219   4.255  11.317 -0.0682 -0.7381  0.0202
13163TIP3   OH260903   0.334   0.684  16.943  0.1317 -0.5060  0.0660
13163TIP3    H160904   0.330   0.728  16.858 -0.4284  0.8053  0.7411
13163TIP3    H260905   0.426   0.689  16.968 -0.1713  2.1332  1.0046
13164TIP3   OH260906   0.014   2.926  13.775 -0.4134  0.0267 -0.6093
13164TIP3    H160907   0.024   2.929  13.870 -2.0706 -0.6533 -0.3673
13164TIP3    H260908   0.087   2.872  13.745  0.4908  0.7686  0.2003
13165TIP3   OH260909   0.674   1.105   2.567  0.0671  0.3012 -0.0587
13165TIP3    H160910   0.729   1.081   2.492  0.9096  0.6576  0.4259
13165TIP3    H260911   0.674   1.026   2.622 -0.1214  0.2151 -0.1811
13166TIP3   OH260912   4.185   2.323  14.445 -0.0250 -0.2976 -0.1051
13166TIP3    H160913   4.277   2.349  14.451 -0.4405  1.8255 -1.9130
13166TIP3    H260914   4.137   2.395  14.487 -0.9586 -0.6556 -0.5306
13167TIP3   OH260915   2.453   1.495   1.859 -0.1481  0.8129 -0.1838
13167TIP3    H160916   2.511   1.449   1.799 -0.1568  2.2947 -1.4144
13167TIP3    H260917   2.499   1.497   1.943  0.2044 -0.6407 -0.3281
13168TIP3   OH260918   0.835   3.754  17.223 -0.1020 -0.2010  0.0499
13168TIP3    H160919   0.922   3.777  17.257  0.3981  0.8489 -1.7945
13168TIP3    H260920   0.845   3.665  17.191 -0.2081 -0.7068  1.3604
13169TIP3   OH260921   1.646   0.551   4.789 -0.2791 -0.4098  0.4002
13169TIP3    H160922   1.636   0.462   4.823 -0.8467 -0.2969  0.5302
13169TIP3    H260923   1.712   0.591   4.846 -0.2419 -0.6504  0.5274
13170TIP3   OH260924   4.040   0.410  13.095 -0.1190  0.0353  0.0152
13170TIP3    H160925   3.947   0.420  13.076  0.2347  0.5789 -1.5763
13170TIP3    H260926   4.082   0.480  13.045  1.0861  0.3360  1.3866
13171TIP3   OH260927   5.663   0.380   0.804 -0.1236 -0.4575  0.1068
13171TIP3    H160928   5.647   0.344   0.891 -0.2431  0.1418  0.3333
13171TIP3    H260929   5.576   0.397   0.768 -0.0800 -0.8685 -0.2038
13172TIP3   OH260930   0.583   3.131  17.064 -0.2405  0.1303 -0.0535
13172TIP3    H160931   0.588   3.068  17.136 -1.6540 -0.8151 -0.7388
13172TIP3    H260932   0.523   3.198  17.096  0.1705  0.4156  0.1360
13173TIP3   OH260933   1.105   3.960   4.363 -0.3439 -0.2025  0.2164
13173TIP3    H160934   1.074   4.027   4.424 -0.0941  0.5658 -0.4814
13173TIP3    H260935   1.200   3.962   4.370 -0.3465 -0.8303  0.5402
13174TIP3   OH260936   5.642   3.667   5.304 -0.3236  0.1303 -0.7437
13174TIP3    H160937   5.587   3.723   5.249  0.1009 -2.0629 -3.6328
13174TIP3    H260938   5.594   3.584   5.308  0.4321 -0.2618  0.9294
13175TIP3   OH260939   1.018   2.966   1.267  0.7906 -0.5840  0.0729
13175TIP3    H160940   1.067   2.903   1.214 -0.6748 -1.0348 -0.8330
13175TIP3    H260941   1.060   3.050   1.249 -0.3529 -0.4970 -2.8847
13176TIP3   OH260942   2.080   1.911   3.906 -0.3957  0.1195 -0.3478
13176TIP3    H160943   2.130   1.935   3.984 -1.9783  0.3687  0.6123
13176TIP3    H260944   2.130   1.838   3.868  1.2245  0.9915  0.0054
13177TIP3   OH260945   5.896   5.320  13.261  0.2789 -0.5739 -0.0141
13177TIP3    H160946   5.991   5.303  13.266  0.1287 -1.1720  1.4904
13177TIP3    H260947   5.856   5.239  13.295 -0.7304  0.0078  0.2136
13178TIP3   OH260948   1.262   5.756  14.575 -0.2682 -0.2948  0.3448
13178TIP3    H160949   1.240   5.785  14.486  3.2124  0.0563 -0.5722
13178TIP3    H260950   1.260   5.661  14.570  3.0747 -0.4432 -1.2698
13179TIP3   OH260951   0.144   4.181   5.524  0.5239 -0.0297  0.0718
13179TIP3    H160952   0.081   4.114   5.498 -0.3194  0.6354  0.3901
13179TIP3    H260953   0.094   4.244   5.575  1.5890  0.1219  0.9870
13180TIP3   OH260954   2.343   6.322   4.270 -0.0135 -0.0574 -0.2809
13180TIP3    H160955   2.429   6.322   4.312 -0.4132 -1.0863  0.5888
13180TIP3    H260956   2.282   6.296   4.340 -0.8554 -0.5854 -1.1814
13181TIP3   OH260957   0.114   1.804   1.395  0.1855 -0.0675 -0.0054
13181TIP3    H160958   0.170   1.726   1.390 -2.0643 -1.7682 -0.1514
13181TIP3    H260959   0.058   1.788   1.471 -2.2845 -0.0495 -1.7036
13182TIP3   OH260960   5.230   2.611   1.233  0.5261 -0.0202  0.3832
13182TIP3    H160961   5.194   2.697   1.212  0.4093  0.3624  1.9687
13182TIP3    H260962   5.323   2.617   1.212  0.2898  0.0848 -0.6458
13183TIP3   OH260963   2.911   5.550  14.879  0.2235 -0.1694 -0.0955
13183TIP3    H160964   2.852   5.518  14.947  1.2884 -0.5087  0.6987
13183TIP3    H260965   2.964   5.474  14.856  1.8737  0.6399  0.8426
13184TIP3   OH260966   0.757   5.810   6.702  0.3190  0.5138  0.3342
13184TIP3    H160967   0.752   5.903   6.725  0.9003  0.7020 -0.2537
13184TIP3    H260968   0.726   5.764   6.780  0.3600  1.1900  0.7596
13185TIP3   OH260969   1.651   6.296   4.687  0.0026  0.0948  0.7091
13185TIP3    H160970   1.581   6.240   4.720 -0.7165  1.3980  1.4861
13185TIP3    H260971   1.620   6.386   4.703  1.0999  0.7299 -0.5061
13186TIP3   OH260972   1.191   3.078   3.328 -0.6187 -0.2477  0.3684
13186TIP3    H160973   1.201   3.171   3.308 -0.6465 -0.6741 -1.8907
13186TIP3    H260974   1.272   3.038   3.299 -0.7787 -0.9995  0.9259
13187TIP3   OH260975   5.314   5.973  10.769 -0.3209  0.0460  0.1418
13187TIP3    H160976   5.347   5.948  10.856  0.8339 -0.4594 -0.4170
13187TIP3    H260977   5.224   6.001  10.785 -0.6153 -1.4089  1.3000
13188TIP3   OH260978   1.172   0.741  15.947 -0.1185 -0.2202 -0.1451
13188TIP3    H160979   1.257   0.767  15.913 -0.6096  1.9766  0.0906
13188TIP3    H260980   1.121   0.716  15.870  0.4648 -0.7148 -0.3766
13189TIP3   OH260981   2.145   3.526   4.456  0.1472  0.1461  0.0426
13189TIP3    H160982   2.229   3.545   4.497 -0.0523 -0.9645  1.0522
13189TIP3    H260983   2.082   3.529   4.528 -0.7730  1.4544 -0.7825
13190TIP3   OH260984   1.050   0.075   6.789 -0.0284 -0.0441  0.0883
13190TIP3    H160985   1.119   0.014   6.816  0.3184  1.1242  2.0024
13190TIP3    H260986   1.095   0.138   6.733  0.1354 -0.1560  0.0924
13191TIP3   OH260987   5.895   0.605   3.963  0.4516 -0.3180  0.0215
13191TIP3    H160988   5.982   0.569   3.947  0.8620 -0.3110  1.9846
13191TIP3    H260989   5.911   0.697   3.984 -0.2328  0.1332 -1.3070
13192TIP3   OH260990   2.000   0.155  16.476  0.2761 -0.0735  0.1715
13192TIP3    H160991   1.997   0.059  16.473  1.0653 -0.0969 -0.0077
13192TIP3    H260992   1.966   0.177  16.563 -2.3399 -0.3846 -0.6974
13193TIP3   OH260993   4.926   4.127   3.126 -0.6070 -0.4982  0.0111
13193TIP3    H160994   4.995   4.181   3.165  0.2676  0.0434 -2.1515
13193TIP3    H260995   4.963   4.039   3.123 -0.6960 -0.5517  0.4142
13194TIP3   OH260996   0.322   5.352   0.491  0.4511  0.2715 -0.0292
13194TIP3    H160997   0.231   5.355   0.522 -0.1489  1.7744 -1.7306
13194TIP3    H260998   0.367   5.296   0.554 -2.1658 -2.6396 -0.5026
13195TIP3   OH260999   2.615   3.391   0.107  0.0371  0.7067  0.2219
13195TIP3    H161000   2.652   3.453   0.170 -0.2335  0.5756  0.5158
13195TIP3    H261001   2.528   3.371   0.142 -0.3340  1.0461 -0.4835
13196TIP3   OH261002   3.463   3.545   5.703 -0.1129  0.5924  0.4662
13196TIP3    H161003   3.505   3.489   5.769  1.7508  2.1725  0.6994
13196TIP3    H261004   3.455   3.630   5.746 -0.6240  1.1532 -0.7125
13197TIP3   OH261005   5.767   5.972  17.087 -0.1198  0.2585  0.1787
13197TIP3    H161006   5.735   5.884  17.110  0.6893 -0.1553 -0.2429
13197TIP3    H261007   5.825   5.996  17.160  1.7819 -0.7027 -0.9430
13198TIP3   OH261008   5.144   2.337   1.585 -0.1709 -0.8467 -0.3735
13198TIP3    H161009   5.184   2.413   1.543 -0.2072 -1.3854 -1.4192
13198TIP3    H261010   5.049   2.352   1.577 -0.1995 -1.6690 -1.8954
13199TIP3   OH261011   0.504   2.335   3.013 -0.2668  0.0649 -0.0084
13199TIP3    H161012   0.527   2.418   2.972  0.9792 -0.4792 -0.4344
13199TIP3    H261013   0.535   2.343   3.103  1.5483 -0.5998 -0.5318
13200TIP3   OH261014   0.506   1.717   0.173  0.2213 -0.3840  0.1089
13200TIP3    H161015   0.472   1.796   0.216 -1.0309 -0.8708  0.0517
13200TIP3    H261016   0.597   1.738   0.153  0.5264  0.2612  2.0125
13201TIP3   OH261017   3.030   3.963   0.340  0.1942  0.4074 -0.1412
13201TIP3    H161018   2.985   4.024   0.281  0.8052  0.2325 -0.8023
13201TIP3    H261019   3.109   4.009   0.367 -0.4602  0.7932  1.1802
13202TIP3   OH261020   5.541   1.541  14.173  0.4116  0.0332  0.5527
13202TIP3    H161021   5.462   1.551  14.227 -0.7455 -0.2132 -1.0051
13202TIP3    H261022   5.512   1.564  14.085  2.6237  1.9191  0.2344
13203TIP3   OH261023   2.596   6.746   2.871  0.0191  0.0054  0.0175
13203TIP3    H161024   2.617   6.653   2.866  1.0400  0.2122  0.2615
13203TIP3    H261025   2.554   6.756   2.956  0.4372 -0.1364  0.2435
13204TIP3   OH261026   4.298   5.089   5.211 -0.0748 -0.1162  0.5440
13204TIP3    H161027   4.352   5.167   5.224 -0.2833  0.0187  0.6000
13204TIP3    H261028   4.223   5.102   5.269  0.2573 -0.7042  1.1198
13205TIP3   OH261029   5.872   4.055  12.167 -0.1470 -0.0012 -0.3468
13205TIP3    H161030   5.844   4.072  12.077 -1.3947 -0.4430 -0.0541
13205TIP3    H261031   5.913   4.137  12.195  0.2242  0.1529 -1.2957
13206TIP3   OH261032   2.971   2.269  13.444 -0.1814  0.5906 -0.0503
13206TIP3    H161033   2.919   2.269  13.364  1.4921 -0.8449 -1.2231
13206TIP3    H261034   3.041   2.333  13.427  1.1226 -0.8889 -0.4454
13207TIP3   OH261035   4.899   0.684   5.266 -0.2589 -0.0137 -0.0920
13207TIP3    H161036   4.806   0.688   5.289 -0.8909 -4.0150 -1.1566
13207TIP3    H261037   4.904   0.727   5.180 -1.1063  0.3145  0.0115
13208TIP3   OH261038   2.202   0.220   1.862  0.5382 -0.3585 -0.0803
13208TIP3    H161039   2.152   0.166   1.924  0.7905 -0.3712  0.1154
13208TIP3    H261040   2.170   0.193   1.776 -1.7250  1.4843  0.0834
13209TIP3   OH261041   5.891   4.478   1.233 -0.3617 -0.0757  0.4524
13209TIP3    H161042   5.833   4.550   1.259 -0.4930 -0.1141  0.2676
13209TIP3    H261043   5.924   4.443   1.316 -0.6501 -0.0908  0.5653
13210TIP3   OH261044   5.853   5.068  15.952  0.0454 -0.8259 -0.3302
13210TIP3    H161045   5.931   5.038  15.906  0.6067 -0.2021  0.1834
13210TIP3    H261046   5.781   5.051  15.892  0.6926 -0.5653 -1.1980
13211TIP3   OH261047   1.100   2.409   4.491  0.0214 -0.2943 -0.2109
13211TIP3    H161048   1.040   2.465   4.540  0.2803  0.1230 -0.3726
13211TIP3    H261049   1.075   2.420   4.399 -0.0238 -0.5598 -0.2335
13212TIP3   OH261050   2.169   2.348   5.178 -0.1162  0.2656 -0.3630
13212TIP3    H161051   2.220   2.398   5.114  0.2062  2.3188  1.4180
13212TIP3    H261052   2.198   2.379   5.263 -2.7962 -0.0566  0.7704
13213TIP3   OH261053   3.502   4.938  15.595  0.1118 -0.5210  0.3862
13213TIP3    H161054   3.460   4.987  15.524  1.5374 -1.4860 -1.1907
13213TIP3    H261055   3.579   4.898  15.555  0.0734 -2.4747  2.0675
13214TIP3   OH261056   3.860   2.511   1.269 -0.5250 -0.4707  0.5760
13214TIP3    H161057   3.790   2.557   1.222 -1.2461 -1.0412  1.0480
13214TIP3    H261058   3.928   2.577   1.283 -0.0032 -0.4495 -1.7829
13215TIP3   OH261059   6.224   0.347  12.430  0.0370  0.2283  0.2673
13215TIP3    H161060   6.145   0.371  12.480  1.0437  1.5211  1.3148
13215TIP3    H261061   6.206   0.259  12.397 -1.3681  0.0248  1.4844
13216TIP3   OH261062   1.517   2.163  14.213 -0.0604  0.2747 -0.0139
13216TIP3    H161063   1.507   2.210  14.130 -1.1743  0.0279 -0.0400
13216TIP3    H261064   1.591   2.105  14.199 -1.3208 -1.0685 -1.4934
13217TIP3   OH261065   5.453   4.471  10.859  0.3941 -0.5435  0.3105
13217TIP3    H161066   5.365   4.435  10.870  0.5830 -1.2192 -0.3276
13217TIP3    H261067   5.483   4.436  10.775  1.3019 -0.3859  0.5589
13218TIP3   OH261068   6.628   4.812   2.042  0.1476  0.6274 -0.2198
13218TIP3    H161069   6.645   4.902   2.069 -1.7941  1.0407 -0.2072
13218TIP3    H261070   6.616   4.818   1.947  0.3067  0.3376 -0.2571
13219TIP3   OH261071   6.210   2.959  13.970  0.1618  0.2277  0.4501
13219TIP3    H161072   6.203   3.053  13.986 -0.8569  0.5307 -1.4144
13219TIP3    H261073   6.123   2.924  13.990  0.0910 -0.0465 -0.2843
13220TIP3   OH261074   1.124   4.402  11.839 -0.7025  0.2494  0.3785
13220TIP3    H161075   1.090   4.426  11.753 -0.8197 -1.4971 -0.0926
13220TIP3    H261076   1.195   4.464  11.856  0.2255 -0.2208 -1.5755
13221TIP3   OH261077   6.160   5.259   3.122  0.4002  0.7133  0.2343
13221TIP3    H161078   6.235   5.281   3.066  1.6484 -0.2421  1.4522
13221TIP3    H261079   6.134   5.343   3.160  2.4478  0.8076  1.6364
13222TIP3   OH261080   1.383   2.018   6.749 -0.0042 -0.3054 -0.2144
13222TIP3    H161081   1.448   2.088   6.742 -1.1954  0.7451 -0.8673
13222TIP3    H261082   1.300   2.063   6.765 -0.3729 -1.6858  2.3765
13223TIP3   OH261083   5.063   6.342   5.305  0.3915  0.1107 -0.7257
13223TIP3    H161084   5.041   6.346   5.398  0.1042  1.1827 -0.8219
13223TIP3    H261085   4.979   6.333   5.260  0.5756 -1.0033 -0.8595
13224TIP3   OH261086   1.714   0.777   5.707  0.1255 -0.1446  0.4588
13224TIP3    H161087   1.739   0.870   5.711  2.5984 -0.7458  0.7823
13224TIP3    H261088   1.687   0.763   5.616  0.7253  0.6708  0.1478
13225TIP3   OH261089   4.015   1.771  12.680 -0.1922  0.1804  0.0648
13225TIP3    H161090   4.019   1.825  12.759  0.7473  0.2857 -0.0531
13225TIP3    H261091   4.103   1.735  12.670 -0.3718 -0.0542 -0.7818
13226TIP3   OH261092   0.195   2.813  14.680  0.3076  0.4122 -0.0741
13226TIP3    H161093   0.228   2.854  14.760  2.6003 -1.8917  0.3191
13226TIP3    H261094   0.264   2.829  14.615 -1.0608  1.3953 -1.3284
13227TIP3   OH261095   0.459   4.062  14.277  0.5145  0.4516 -0.5752
13227TIP3    H161096   0.467   4.157  14.277  1.6483  0.4326 -2.7037
13227TIP3    H261097   0.543   4.031  14.242  0.9886 -1.4748  1.9943
13228TIP3   OH261098   6.405   5.065  14.805 -0.0724 -0.1158  0.0087
13228TIP3    H161099   6.328   5.058  14.749 -0.9376  0.3775  1.1080
13228TIP3    H261100   6.472   5.014  14.759 -0.4712  1.0077 -1.9243
13229TIP3   OH261101   5.640   3.348   0.445  0.2546  0.5233  0.1013
13229TIP3    H161102   5.638   3.310   0.533  0.4340  1.5427  0.5565
13229TIP3    H261103   5.614   3.276   0.387  1.2298 -0.4807  0.8673
13230TIP3   OH261104   5.161   1.756   0.002 -0.2476 -0.2435  0.2235
13230TIP3    H161105   5.091   1.697   0.030  1.6572 -2.9852 -0.3281
13230TIP3    H261106   5.151   1.762  -0.093 -0.6255  0.5867  0.3161
13231TIP3   OH261107   0.696   3.833  14.416  0.0838 -0.3112 -0.4837
13231TIP3    H161108   0.681   3.788  14.499  0.2491 -1.5259 -1.0897
13231TIP3    H261109   0.647   3.781  14.352 -0.1127  0.6580 -1.1346
13232TIP3   OH261110   5.856   0.560  14.266 -0.2303  0.1487  0.3384
13232TIP3    H161111   5.887   0.537  14.354 -1.9981  0.7195  1.1697
13232TIP3    H261112   5.903   0.641  14.245 -0.5185  0.5678  1.2245
13233TIP3   OH261113   3.855   4.413   5.706 -0.7191  0.0668 -0.0595
13233TIP3    H161114   3.804   4.384   5.631 -0.5579 -1.6818  0.4543
13233TIP3    H261115   3.897   4.333   5.738  0.2724  1.0148  1.0794
13234TIP3   OH261116   0.717   6.654   4.233  0.2023  0.2662 -0.8178
13234TIP3    H161117   0.676   6.654   4.147 -0.9988 -0.1622 -0.2688
13234TIP3    H261118   0.745   6.744   4.247 -0.6493  0.5900 -1.1677
13235TIP3   OH261119   5.389   5.928  10.492  0.8200  0.3142  0.0729
13235TIP3    H161120   5.383   5.922  10.588  1.3272  1.3646  0.1767
13235TIP3    H261121   5.341   6.008  10.470 -3.4596 -2.1967 -1.0422
13236TIP3   OH261122   4.584   2.849  16.972 -0.6443  0.0378  0.1145
13236TIP3    H161123   4.619   2.939  16.971  1.1431 -0.6168 -0.5416
13236TIP3    H261124   4.621   2.810  17.051  0.8489 -0.8949 -0.9775
13237TIP3   OH261125   2.061   5.477   4.100  0.5339 -0.2314 -0.4403
13237TIP3    H161126   1.982   5.469   4.154 -0.7396  0.1359 -2.1592
13237TIP3    H261127   2.066   5.570   4.080 -0.6333 -0.6621 -3.1499
13238TIP3   OH261128   2.602   3.834  14.859  0.1183  0.4316 -0.2937
13238TIP3    H161129   2.572   3.811  14.947 -1.1377  0.4159 -0.7084
13238TIP3    H261130   2.602   3.751  14.811 -2.1237  0.8650 -1.1286
13239TIP3   OH261131   0.167   5.170   1.555  0.4638  0.2763 -0.2475
13239TIP3    H161132   0.215   5.178   1.637 -0.6385  1.8556  0.2860
13239TIP3    H261133   0.230   5.195   1.488  1.2208 -0.5256  0.1410
13240TIP3   OH261134   2.219   0.452   2.807 -0.6471  0.4404 -0.3646
13240TIP3    H161135   2.267   0.484   2.731 -3.5603  0.9430 -2.1125
13240TIP3    H261136   2.167   0.526   2.836 -1.0885 -0.3374  0.8974
13241TIP3   OH261137   1.855   5.247   6.479  0.6634  0.0445 -0.1375
13241TIP3    H161138   1.947   5.261   6.455  0.9699 -2.1439 -0.4953
13241TIP3    H261139   1.810   5.327   6.452  2.1620  0.4227 -1.6851
13242TIP3   OH261140   1.664   3.119  15.064 -0.1728  0.1418 -0.1707
13242TIP3    H161141   1.638   3.204  15.027 -0.2862  0.1207 -0.1418
13242TIP3    H261142   1.597   3.101  15.130 -1.8130 -1.2930 -2.0923
13243TIP3   OH261143   4.525   3.527  15.238 -0.2595 -0.0110 -0.2101
13243TIP3    H161144   4.464   3.594  15.209 -0.5761 -0.5734 -0.8672
13243TIP3    H261145   4.601   3.576  15.272 -1.8895  0.7802  2.6670
13244TIP3   OH261146   4.033   3.977   4.790 -0.1463  0.4237  0.3159
13244TIP3    H161147   4.030   3.882   4.793  1.5505  0.3427  0.7185
13244TIP3    H261148   4.120   3.997   4.754 -0.4701  1.8138  0.2385
13245TIP3   OH261149   1.375   4.991   0.367 -0.0083  0.1420 -0.5910
13245TIP3    H161150   1.423   5.073   0.360  0.2389  0.2425  1.6862
13245TIP3    H261151   1.429   4.927   0.320  0.5213  0.9694 -1.1183
13246TIP3   OH261152   0.283   1.010   5.903 -0.2168  0.7007  0.1334
13246TIP3    H161153   0.220   0.944   5.874 -2.1407  2.3735  0.3246
13246TIP3    H261154   0.276   1.008   5.999  1.2329 -0.1858  0.2514
13247TIP3   OH261155   5.050   4.081   5.167 -0.0186 -0.3493 -0.0839
13247TIP3    H161156   5.086   4.043   5.087  0.5231  1.0452 -0.5337
13247TIP3    H261157   5.125   4.122   5.210 -0.4990 -0.1545  0.5820
13248TIP3   OH261158   3.185   3.571   5.306 -0.2620  0.6871 -0.2059
13248TIP3    H161159   3.168   3.563   5.212 -0.8623  1.6233 -0.1899
13248TIP3    H261160   3.172   3.664   5.325  1.0070  0.7201  0.5872
13249TIP3   OH261161   4.685   5.156  14.365 -0.5060  0.3317  0.0341
13249TIP3    H161162   4.646   5.112  14.290  1.2825 -1.5741  0.1305
13249TIP3    H261163   4.735   5.229  14.327 -0.7317  0.2283 -0.4671
13250TIP3   OH261164   3.513   3.666  15.467 -0.0243  0.1955 -0.4027
13250TIP3    H161165   3.539   3.635  15.554  0.1285  0.6295 -0.2900
13250TIP3    H261166   3.479   3.588  15.423  1.0249 -0.2857 -0.3828
13251TIP3   OH261167   5.547   5.301  16.937 -0.1906 -0.2080  0.1151
13251TIP3    H161168   5.491   5.335  17.007 -0.1317 -1.8787  1.0140
13251TIP3    H261169   5.598   5.231  16.979  2.2294  0.8969 -0.7804
13252TIP3   OH261170   4.750   3.003  10.575 -0.4468 -0.0949 -0.3253
13252TIP3    H161171   4.844   2.984  10.569 -0.3689 -0.0517  0.5866
13252TIP3    H261172   4.745   3.098  10.562 -0.3324 -0.0593 -0.1201
13253TIP3   OH261173   6.003   3.370  14.402 -0.0713  0.9004  0.1651
13253TIP3    H161174   5.919   3.350  14.361 -0.1115  2.9623 -0.9134
13253TIP3    H261175   6.068   3.339  14.339 -0.0355  0.2910  0.4964
13254TIP3   OH261176   5.777   4.118   3.777 -0.3277  0.4187  0.0489
13254TIP3    H161177   5.866   4.133   3.745 -0.1249  1.2261  0.9345
13254TIP3    H261178   5.769   4.023   3.784 -0.1132  0.2557 -1.5920
13255TIP3   OH261179   0.090   5.464   3.918  0.1184  0.2070 -0.0957
13255TIP3    H161180   0.173   5.449   3.874  0.5356  0.2091  0.6643
13255TIP3    H261181   0.036   5.389   3.893  0.5083 -0.0318 -0.2342
13256TIP3   OH261182   6.676   1.346  12.686 -0.3530 -0.4840  0.3894
13256TIP3    H161183   6.730   1.425  12.689 -1.2689  0.3075 -1.9121
13256TIP3    H261184   6.737   1.275  12.709  0.2494  0.8773  3.6577
13257TIP3   OH261185   2.349   1.918   2.113 -0.3757 -0.5211 -0.0890
13257TIP3    H161186   2.256   1.938   2.128 -0.4439 -0.3579 -0.6968
13257TIP3    H261187   2.376   1.980   2.046  0.7065  0.7701  1.4482
13258TIP3   OH261188   0.739   1.994   1.032 -0.1643 -0.3005 -0.1978
13258TIP3    H161189   0.696   2.039   0.960 -1.8665  1.3699  1.7219
13258TIP3    H261190   0.808   2.054   1.060 -0.0331 -0.5754  0.0778
13259TIP3   OH261191   5.796   2.541  15.877 -0.0837  0.0459 -0.3207
13259TIP3    H161192   5.884   2.539  15.915 -0.4068  0.4405  0.4698
13259TIP3    H261193   5.784   2.632  15.850 -0.0290 -0.1358 -0.9691
13260TIP3   OH261194   5.952   2.026  15.963 -0.5462 -0.0942 -0.0194
13260TIP3    H161195   5.968   2.120  15.971  0.1335 -0.0334 -1.5606
13260TIP3    H261196   5.887   2.007  16.030  0.1377  1.2476  1.0913
13261TIP3   OH261197   3.842   2.191   5.682  0.0253  0.2767  0.4709
13261TIP3    H161198   3.833   2.276   5.725 -0.7013  0.2135  0.4525
13261TIP3    H261199   3.929   2.161   5.707  0.3545  1.0983  0.3421
13262TIP3   OH261200   5.081   0.359   1.867 -0.0656 -0.7953  0.9668
13262TIP3    H161201   5.070   0.400   1.953  0.5013 -2.4063  1.8532
13262TIP3    H261202   5.162   0.309   1.875  0.2235 -0.6500 -0.6719
13263TIP3   OH261203   4.434   1.807   1.087 -0.4914 -0.3677 -0.0376
13263TIP3    H161204   4.346   1.844   1.087  0.0489  1.1717  2.5855
13263TIP3    H261205   4.433   1.742   1.157  0.2922 -0.8295 -0.4383
13264TIP3   OH261206   0.114   4.673   5.846 -0.4307 -0.5524 -0.7524
13264TIP3    H161207   0.169   4.653   5.922 -3.0822 -3.9661  0.5484
13264TIP3    H261208   0.175   4.698   5.777  2.3610 -0.5769  1.5450
13265TIP3   OH261209   2.762   1.523   3.465  0.0280  0.1198  0.3331
13265TIP3    H161210   2.822   1.596   3.453 -1.7460  1.7569  0.8780
13265TIP3    H261211   2.709   1.521   3.385 -0.8112  0.3089  0.8711
13266TIP3   OH261212   4.020   3.124   5.105 -0.2277  0.2575 -0.9583
13266TIP3    H161213   3.970   3.205   5.116 -0.9047 -0.3946  1.5127
13266TIP3    H261214   4.110   3.149   5.124 -0.5651  0.3172  0.7278
13267TIP3   OH261215   6.128   5.783   0.104  0.3360  0.0411 -0.3009
13267TIP3    H161216   6.091   5.776   0.016  1.4525 -2.1171 -0.6475
13267TIP3    H261217   6.169   5.698   0.121  3.8761  1.7469  0.6141
13268TIP3   OH261218   3.231   4.186   0.412  0.8265  0.5555 -0.2217
13268TIP3    H161219   3.166   4.241   0.369 -1.5803 -0.3374  1.9753
13268TIP3    H261220   3.283   4.247   0.465 -1.2889  0.9131  1.5685
13269TIP3   OH261221   3.292   0.202   0.662  0.0892 -0.4478  0.2767
13269TIP3    H161222   3.198   0.206   0.643  0.0703 -0.1713  0.4301
13269TIP3    H261223   3.314   0.109   0.655 -0.2147 -0.5237  0.3289
13270TIP3   OH261224   3.547   2.436  12.087  0.2038  0.7072  0.1712
13270TIP3    H161225   3.618   2.374  12.068 -0.2070  0.2134  0.2186
13270TIP3    H261226   3.489   2.430  12.010 -0.3123  0.3497  0.5803
13271TIP3   OH261227   6.368   0.507  16.143 -0.6626 -0.6556  0.0270
13271TIP3    H161228   6.396   0.546  16.226 -0.7798 -1.5680  0.4975
13271TIP3    H261229   6.335   0.582  16.093 -1.0670 -0.1632  0.9939
13272TIP3   OH261230   2.353   5.883   4.855  0.4078 -0.3690  0.2733
13272TIP3    H161231   2.342   5.978   4.867 -1.2865 -0.5894  0.8121
13272TIP3    H261232   2.447   5.871   4.842  0.4145  1.7737 -3.1694
13273TIP3   OH261233   2.094   1.254  14.583  0.2749  0.1656 -0.2074
13273TIP3    H161234   2.084   1.167  14.543  0.3592  0.5862 -1.1850
13273TIP3    H261235   2.129   1.237  14.670  0.3174 -0.7800 -0.3983
13274TIP3   OH261236   4.775   1.030  15.625 -0.1835 -0.4975  0.3402
13274TIP3    H161237   4.720   1.105  15.601 -0.6873 -0.9530  0.0352
13274TIP3    H261238   4.837   1.065  15.689 -0.5527  0.1290  0.3657
13275TIP3   OH261239   1.928   1.558   5.411 -0.2428  0.4012  0.4717
13275TIP3    H161240   1.953   1.467   5.394  0.8017  1.0868 -2.1622
13275TIP3    H261241   2.006   1.609   5.388 -1.6075  2.1100 -0.6341
13276TIP3   OH261242   0.178   2.906  15.078 -0.4930  0.5978 -0.3864
13276TIP3    H161243   0.244   2.903  15.010  0.7351 -0.6459  0.7889
13276TIP3    H261244   0.136   2.991  15.068 -0.7088  0.2565 -2.9744
13277TIP3   OH261245   6.228   1.810  16.646 -0.0688 -0.0145 -0.7046
13277TIP3    H161246   6.171   1.765  16.708 -1.8087  2.3823 -0.4216
13277TIP3    H261247   6.211   1.903  16.662  2.3939  0.7565 -2.0908
13278TIP3   OH261248   1.795   2.606  15.785  0.3413  0.6940  0.1343
13278TIP3    H161249   1.718   2.551  15.770 -0.2028  1.2856  0.6726
13278TIP3    H261250   1.769   2.692  15.752  0.3750  1.1601  1.2914
13279TIP3   OH261251   3.543   2.931  16.838  0.1887  0.0633  0.1566
13279TIP3    H161252   3.621   2.882  16.812  0.5340  0.5622  0.2477
13279TIP3    H261253   3.484   2.923  16.763 -0.0611 -1.1082  0.4500
13280TIP3   OH261254   0.571   5.926  15.414  0.0015 -0.1750  1.1570
13280TIP3    H161255   0.506   5.929  15.343 -0.1259  2.5146  1.2512
13280TIP3    H261256   0.573   6.016  15.446  1.5988 -0.8801  3.1924
13281TIP3   OH261257   4.118   6.504  17.053 -0.1964  0.1240  0.0852
13281TIP3    H161258   4.088   6.541  16.970  0.0275 -0.6516 -0.3490
13281TIP3    H261259   4.154   6.579  17.101  0.9605  0.3627 -1.0963
13282TIP3   OH261260   3.181   4.315  16.994 -0.7004 -0.0442  0.3830
13282TIP3    H161261   3.239   4.240  16.993  0.3877  0.7751 -0.3751
13282TIP3    H261262   3.098   4.282  16.958  0.0260 -0.6813 -0.7564
13283TIP3   OH261263   6.253   4.476  13.372  0.3783  0.7069 -0.2371
13283TIP3    H161264   6.206   4.459  13.454  2.6041  0.9708  1.1984
13283TIP3    H261265   6.209   4.551  13.334 -0.4002  0.9104  1.0111
13284TIP3   OH261266   6.690   4.369  16.910 -0.6185  0.5223  0.1450
13284TIP3    H161267   6.768   4.315  16.905 -0.4311  0.8833 -1.8554
13284TIP3    H261268   6.683   4.394  17.002  2.4952  1.7162  0.1821
13285TIP3   OH261269   2.828   3.215  13.174 -0.2439  0.1169  0.0298
13285TIP3    H161270   2.881   3.212  13.254  0.3364 -2.6212 -0.3474
13285TIP3    H261271   2.890   3.199  13.103 -1.1781 -0.5577 -0.6561
13286TIP3   OH261272   5.510   3.114   3.170  0.5744 -0.7184  0.1075
13286TIP3    H161273   5.526   3.205   3.194 -0.7760 -1.0153  2.3550
13286TIP3    H261274   5.420   3.114   3.137  0.7131 -1.1962 -0.2866
13287TIP3   OH261275   2.010   1.698   5.147  0.0686 -0.0101  0.5598
13287TIP3    H161276   2.074   1.650   5.199  1.0468 -0.0215 -0.5978
13287TIP3    H261277   2.051   1.783   5.132 -1.2316  0.8913  1.7808
13288TIP3   OH261278   5.575   5.532   4.344 -0.4783  0.2797  0.0511
13288TIP3    H161279   5.656   5.553   4.391 -0.1935  0.9917 -0.7360
13288TIP3    H261280   5.537   5.459   4.393 -0.1507  0.9439  1.3308
13289TIP3   OH261281   3.420   0.026   3.035 -0.3007 -0.4918  0.3648
13289TIP3    H161282   3.437   0.119   3.045  0.8261 -0.7252  0.8045
13289TIP3    H261283   3.422   0.011   2.941 -0.4770 -0.0762  0.2928
13290TIP3   OH261284   4.441   0.389  14.593 -0.7378  0.1624 -0.2864
13290TIP3    H161285   4.392   0.467  14.568 -1.6285 -0.8665 -1.9410
13290TIP3    H261286   4.374   0.323  14.611  0.0023 -0.4496  0.3112
13291TIP3   OH261287   4.566   3.317  15.448  0.5626  0.2413 -0.2125
13291TIP3    H161288   4.531   3.392  15.400  1.4247 -0.0281 -1.3084
13291TIP3    H261289   4.661   3.326  15.441  0.7798  0.7887  2.4252
13292TIP3   OH261290   3.566   0.232  12.637 -0.4169 -0.6659 -0.1255
13292TIP3    H161291   3.567   0.170  12.565 -0.0406 -0.9554  0.1235
13292TIP3    H261292   3.645   0.211  12.688 -0.8285 -0.6621  0.5241
13293TIP3   OH261293   0.505   1.303   1.242 -0.1559 -0.4215  0.1006
13293TIP3    H161294   0.429   1.269   1.194 -1.4636  1.6636  0.5676
13293TIP3    H261295   0.471   1.321   1.329  1.0238  0.0921  0.4598
13294TIP3   OH261296   2.893   6.202   4.920 -0.1036  0.3000  0.2597
13294TIP3    H161297   2.894   6.298   4.918  2.0601  0.3157 -0.3840
13294TIP3    H261298   2.891   6.180   5.013  0.0942  0.9799  0.4288
13295TIP3   OH261299   5.320   5.751  13.888  0.9762  0.2243  0.5013
13295TIP3    H161300   5.343   5.659  13.886 -0.0584 -0.0632  1.1510
13295TIP3    H261301   5.255   5.759  13.958  0.6583  1.3503  0.1105
13296TIP3   OH261302   2.567   0.911   5.018 -0.1091 -0.5406  0.2954
13296TIP3    H161303   2.491   0.969   5.006 -0.6283 -1.2887 -0.0790
13296TIP3    H261304   2.587   0.880   4.930  0.4521 -0.5776  0.4377
13297TIP3   OH261305   6.268   6.445  16.937 -0.1489  0.2599 -0.0807
13297TIP3    H161306   6.191   6.434  16.993 -0.6240  2.4930 -0.1843
13297TIP3    H261307   6.342   6.421  16.993 -0.8270 -0.6393  0.4505
13298TIP3   OH261308   1.069   2.133  12.651 -0.0699 -0.4844  0.1762
13298TIP3    H161309   1.019   2.197  12.601  0.2159  0.3034  0.8687
13298TIP3    H261310   1.018   2.120  12.731  1.0017  0.6549  1.0873
13299TIP3   OH261311   2.763   6.286   1.037 -0.6975  0.2913  0.5615
13299TIP3    H161312   2.761   6.190   1.034 -2.1616  0.2906 -2.6040
13299TIP3    H261313   2.679   6.310   1.077 -1.4752  0.2109 -0.9722
13300TIP3   OH261314   5.297   4.808   4.693  0.3295  0.2287  0.1113
13300TIP3    H161315   5.336   4.782   4.609  3.0849  0.3638  1.2314
13300TIP3    H261316   5.262   4.727   4.730  1.5437 -0.3774 -0.0104
13301TIP3   OH261317   6.508   3.667   0.310 -0.1887 -0.2889 -0.3850
13301TIP3    H161318   6.508   3.688   0.403 -0.8742  1.1800 -0.6918
13301TIP3    H261319   6.535   3.575   0.306 -0.8210 -0.5728  1.2983
13302TIP3   OH261320   5.131   5.092  11.224  0.4843  0.0538 -0.2072
13302TIP3    H161321   5.088   5.132  11.147 -0.4265 -0.3607  0.0737
13302TIP3    H261322   5.210   5.052  11.189  1.5758  2.2944 -0.4696
13303TIP3   OH261323   4.805   1.367  13.505 -0.3207  0.6810  0.0395
13303TIP3    H161324   4.817   1.274  13.488  0.6958 -0.0720  3.7951
13303TIP3    H261325   4.890   1.396  13.539 -1.2071  2.4412  0.8881
13304TIP3   OH261326   1.985   5.862  13.122 -0.1531  0.7882 -0.0545
13304TIP3    H161327   2.060   5.903  13.164 -0.7529  0.6768  1.1727
13304TIP3    H261328   2.022   5.817  13.046  0.8706  1.5071 -0.0043
13305TIP3   OH261329   3.729   3.846   2.818 -0.0802 -0.2897 -0.2946
13305TIP3    H161330   3.717   3.811   2.730  2.2329  1.2482 -1.2836
13305TIP3    H261331   3.821   3.871   2.823 -0.1896 -0.0604  2.4917
13306TIP3   OH261332   2.357   1.892   4.971 -0.4336  0.2528 -0.7263
13306TIP3    H161333   2.440   1.850   4.994 -0.3746  0.0151 -1.3403
13306TIP3    H261334   2.363   1.980   5.008  0.7024  0.7258 -1.9586
13307TIP3   OH261335   4.309   4.533   2.340  0.0326  0.1716  0.3219
13307TIP3    H161336   4.226   4.549   2.386 -0.7263 -0.1666 -0.8998
13307TIP3    H261337   4.373   4.521   2.411 -0.5214  2.4714  1.3064
13308TIP3   OH261338   3.267   6.322  11.737  0.1655  0.2445 -0.7048
13308TIP3    H161339   3.343   6.325  11.795 -0.3909 -0.7391  0.0853
13308TIP3    H261340   3.302   6.348  11.651  1.0325  1.5096 -0.0029
13309TIP3   OH261341   5.515   5.616   6.390  0.1210  0.4228 -0.5162
13309TIP3    H161342   5.572   5.543   6.411  0.5425  0.8840 -0.0151
13309TIP3    H261343   5.434   5.576   6.359  0.8867 -0.2453 -1.7425
13310TIP3   OH261344   2.502   3.733   2.044 -0.3588  0.6156 -0.0978
13310TIP3    H161345   2.475   3.824   2.029 -1.1642  0.6740  1.5347
13310TIP3    H261346   2.442   3.681   1.991  0.0914  1.0059 -1.0232
13311TIP3   OH261347   2.780   4.507  16.941 -0.7669 -0.0511 -0.4497
13311TIP3    H161348   2.822   4.585  16.977 -1.8381 -1.2295  3.9454
13311TIP3    H261349   2.847   4.439  16.946 -1.9629 -1.2334  3.8617
13312TIP3   OH261350   6.299   1.434  16.314  0.4014  0.4231 -0.6356
13312TIP3    H161351   6.222   1.443  16.370  0.0426 -1.1452 -0.8516
13312TIP3    H261352   6.264   1.429  16.225  0.7109 -0.7367 -0.7003
13313TIP3   OH261353   0.526   2.544   1.475 -0.0341 -0.8041 -0.4384
13313TIP3    H161354   0.530   2.490   1.396 -0.6883 -2.0440  0.3472
13313TIP3    H261355   0.440   2.526   1.512 -0.0435  0.3667  0.1516
13314TIP3   OH261356   1.275   0.895   1.442  0.2128  0.1762  0.7910
13314TIP3    H161357   1.260   0.846   1.361 -1.1620  3.9885 -1.5451
13314TIP3    H261358   1.364   0.930   1.434 -0.1231  1.0137  0.6332
13315TIP3   OH261359   3.443   5.258   1.404 -0.1904  0.7541 -0.5967
13315TIP3    H161360   3.369   5.298   1.448 -0.3912  0.9196 -1.0750
13315TIP3    H261361   3.411   5.237   1.316  0.2886  0.7193 -0.7691
13316TIP3   OH261362   2.631   3.658  13.809  0.0665  0.3963  0.1714
13316TIP3    H161363   2.633   3.735  13.753 -0.8465 -0.8524 -1.6680
13316TIP3    H261364   2.684   3.593  13.763 -1.4546 -0.9624  0.2566
13317TIP3   OH261365   5.315   0.853   2.307  0.4036  0.0822  0.1775
13317TIP3    H161366   5.246   0.904   2.265 -0.6958 -1.2072  0.3495
13317TIP3    H261367   5.295   0.859   2.400  2.8771  2.9995  0.6914
13318TIP3   OH261368   2.676   6.219   3.356 -0.0369 -0.3094  0.4990
13318TIP3    H161369   2.651   6.129   3.376 -1.6055  0.5282  2.6805
13318TIP3    H261370   2.605   6.273   3.391  1.4680  1.8590  0.4873
13319TIP3   OH261371   0.971   0.365  15.590 -0.1038 -0.9114 -0.0223
13319TIP3    H161372   0.935   0.334  15.673 -1.0691 -0.7595 -0.3639
13319TIP3    H261373   0.903   0.343  15.526 -0.3118  0.8564 -0.4474
13320TIP3   OH261374   3.777   1.744   3.239 -0.5400 -0.0877 -0.1050
13320TIP3    H161375   3.833   1.820   3.225  0.0032 -0.5463 -0.4879
13320TIP3    H261376   3.701   1.760   3.183  0.4362 -0.6807 -1.6848
13321TIP3   OH261377   0.549   6.083   5.188 -0.2943  0.3418 -0.4684
13321TIP3    H161378   0.494   6.020   5.235 -0.3596  0.9880  0.3373
13321TIP3    H261379   0.610   6.028   5.138 -0.3091 -0.3700  0.2648
13322TIP3   OH261380   4.397   1.096  15.584 -0.2508  0.5797 -0.2216
13322TIP3    H161381   4.433   1.007  15.593 -1.6702  0.1478  2.0400
13322TIP3    H261382   4.474   1.151  15.565  0.7800 -0.9930 -0.8428
13323TIP3   OH261383   4.689   1.318   2.945  0.2134 -0.7694 -0.3654
13323TIP3    H161384   4.613   1.295   2.891 -1.3422 -0.1625  1.4574
13323TIP3    H261385   4.661   1.301   3.035  2.8902 -2.2287  0.3136
13324TIP3   OH261386   5.496   2.274  12.494 -0.0779 -0.0420 -0.1556
13324TIP3    H161387   5.554   2.223  12.438  0.4847  1.3443 -0.8957
13324TIP3    H261388   5.409   2.258  12.458  0.3167  1.1861 -1.8052
13325TIP3   OH261389   6.420   0.287   1.233 -0.1727  0.0466 -0.1735
13325TIP3    H161390   6.434   0.322   1.321  2.8252  0.3273 -0.6426
13325TIP3    H261391   6.372   0.356   1.187  1.1308  1.3690  0.3722
13326TIP3   OH261392   5.651   3.429   2.882  0.5708  0.8144  0.1807
13326TIP3    H161393   5.624   3.337   2.879 -3.0448  1.6905  0.5135
13326TIP3    H261394   5.692   3.445   2.797 -1.7424 -0.3963 -1.2607
13327TIP3   OH261395   1.889   4.950   0.721  0.0451  0.1733  0.2135
13327TIP3    H161396   1.971   4.910   0.750 -0.1523  0.3854  1.1244
13327TIP3    H261397   1.830   4.876   0.707  0.1202  0.0630  0.4638
13328TIP3   OH261398   3.508   6.125  13.486 -0.2436  0.1540  0.8268
13328TIP3    H161399   3.422   6.159  13.461 -0.7213 -1.7910 -0.3621
13328TIP3    H261400   3.569   6.196  13.465 -1.2428  0.4819 -1.1600
13329TIP3   OH261401   6.611   0.860  15.924  0.0250  0.2144 -0.2455
13329TIP3    H161402   6.664   0.780  15.927  1.1145  0.9326  0.4533
13329TIP3    H261403   6.673   0.929  15.901 -0.7243  0.9985  0.0434
13330TIP3   OH261404   4.539   1.376   0.012  0.1396  0.1004 -0.7977
13330TIP3    H161405   4.537   1.425   0.095  0.4975 -0.9431 -0.1519
13330TIP3    H261406   4.625   1.396  -0.025  0.5829 -0.5877 -0.1752
13331TIP3   OH261407   4.380   0.402   4.396 -0.7114 -0.3317 -0.4983
13331TIP3    H161408   4.346   0.326   4.443  1.0113  0.0308  1.4726
13331TIP3    H261409   4.448   0.366   4.339 -0.8044 -0.4245 -0.5509
13332TIP3   OH261410   2.655   5.775   2.307  0.2006  0.3058 -0.1284
13332TIP3    H161411   2.671   5.685   2.337  0.8066 -0.0708 -1.5090
13332TIP3    H261412   2.645   5.825   2.388 -1.7826 -1.2569  0.6714
13333TIP3   OH261413   0.304   5.446  16.563  0.1439  0.0566 -0.4767
13333TIP3    H161414   0.277   5.528  16.522  1.1735  0.1722 -0.9601
13333TIP3    H261415   0.223   5.396  16.573 -0.3925  0.8413 -0.8330
13334TIP3   OH261416   1.079   6.029  12.708 -0.9015  0.5039  0.0792
13334TIP3    H161417   1.165   6.071  12.714 -0.8718  0.8720 -2.1324
13334TIP3    H261418   1.076   5.971  12.785  1.2814  0.5262  0.2662
13335TIP3   OH261419   3.856   4.311  11.289  0.3000  0.0343 -0.4690
13335TIP3    H161420   3.874   4.253  11.215  1.5831  0.9074 -0.8660
13335TIP3    H261421   3.942   4.334  11.324 -0.2867 -1.1974  2.0035
13336TIP3   OH261422   0.687   5.053  12.233  0.3823  0.2933  0.3058
13336TIP3    H161423   0.732   5.122  12.281  3.3277 -0.5501 -1.0224
13336TIP3    H261424   0.735   5.045  12.151 -3.0483  0.1219 -1.8769
13337TIP3   OH261425   3.531   3.812   4.135  0.0732  0.1053 -1.1121
13337TIP3    H161426   3.529   3.907   4.128  1.6792  0.5283  2.1549
13337TIP3    H261427   3.617   3.786   4.104  0.3057 -0.0329 -0.3890
13338TIP3   OH261428   0.204   3.514  13.502 -0.2154 -0.5216 -0.1986
13338TIP3    H161429   0.270   3.476  13.445 -0.4698 -1.4684  0.1228
13338TIP3    H261430   0.126   3.521  13.447  0.2001  0.8790 -0.6693
13339TIP3   OH261431   1.496   6.340  13.221 -0.0071  0.0413  0.3301
13339TIP3    H161432   1.434   6.287  13.270  1.4985 -2.3189 -0.1872
13339TIP3    H261433   1.526   6.284  13.150  1.7355  1.5360 -0.2084
13340TIP3   OH261434   4.460   4.985  13.284 -0.1953  0.3816 -0.3490
13340TIP3    H161435   4.378   5.010  13.242 -1.2897 -0.6794  1.0648
13340TIP3    H261436   4.494   4.913  13.230 -1.7620 -1.2081  0.6588
13341TIP3   OH261437   0.460   0.027   3.291 -0.6545  0.6816 -0.2049
13341TIP3    H161438   0.486   0.053   3.379 -0.7204 -1.1621  0.3997
13341TIP3    H261439   0.392  -0.039   3.305 -2.0356  1.6914 -1.6870
13342TIP3   OH261440   5.991   3.449  14.924  0.5598  0.2506 -0.4581
13342TIP3    H161441   5.971   3.436  15.016 -0.0518 -1.4648 -0.7989
13342TIP3    H261442   5.911   3.488  14.887  0.5363  0.2454 -0.4123
13343TIP3   OH261443   1.065   3.227  11.673 -0.1117 -0.3202 -0.1538
13343TIP3    H161444   0.971   3.230  11.689 -0.1313 -1.2461 -0.0062
13343TIP3    H261445   1.079   3.145  11.626  0.7527 -0.7803  0.8457
13344TIP3   OH261446   4.277   4.097   4.284 -0.2481 -0.3505  0.1453
13344TIP3    H161447   4.271   4.165   4.351 -1.0457 -0.3817  0.1139
13344TIP3    H261448   4.247   4.140   4.204 -0.1170 -0.5558 -0.0134
13345TIP3   OH261449   5.650   2.417  13.719 -0.0639 -0.0288  0.0909
13345TIP3    H161450   5.572   2.383  13.676  0.8950 -1.7297 -0.4093
13345TIP3    H261451   5.709   2.342  13.723  2.1992  1.5730 -1.0679
13346TIP3   OH261452   5.065   3.051   5.256 -0.6451  0.5930  0.1869
13346TIP3    H161453   5.004   2.981   5.231 -0.8577  1.0446 -0.6152
13346TIP3    H261454   5.100   3.023   5.340 -0.0462 -0.9227 -0.5170
13347TIP3   OH261455   0.788   2.431  12.722 -0.1660  0.2537  0.6565
13347TIP3    H161456   0.883   2.446  12.713  0.1274  0.0312  2.7855
13347TIP3    H261457   0.770   2.448  12.814 -1.9094 -1.2841  0.6653
13348TIP3   OH261458   1.953   1.547   5.817  0.2686  0.3200  0.3226
13348TIP3    H161459   2.002   1.600   5.754  2.0190 -0.2733  1.1097
13348TIP3    H261460   1.986   1.576   5.902  0.8029 -1.5491  0.7870
13349TIP3   OH261461   3.251   1.777   1.063 -0.2755  0.4346  0.5616
13349TIP3    H161462   3.310   1.724   1.009 -0.4730  0.3672  0.4093
13349TIP3    H261463   3.191   1.713   1.102 -1.3179  0.6555 -0.6173
13350TIP3   OH261464   1.045   6.617   4.250 -0.2718 -0.2047 -0.0748
13350TIP3    H161465   0.952   6.613   4.231  0.0060 -1.1979 -1.3459
13350TIP3    H261466   1.061   6.542   4.308 -0.1159 -0.5372 -0.5468
13351TIP3   OH261467   1.814   3.788  13.909  0.3948 -0.2367  0.1200
13351TIP3    H161468   1.812   3.858  13.975  1.0211 -0.1415  0.0438
13351TIP3    H261469   1.819   3.834  13.825 -4.3003 -0.1826 -0.3866
13352TIP3   OH261470   5.876   2.683   2.375 -0.0311  0.0476  0.2791
13352TIP3    H161471   5.897   2.676   2.282 -1.4339 -0.7892 -0.0079
13352TIP3    H261472   5.852   2.593   2.401 -2.3428  0.7161  0.7383
13353TIP3   OH261473   3.664   5.101   1.929  0.6909 -0.2025  0.4984
13353TIP3    H161474   3.702   5.184   1.900  1.9777 -0.9075  0.0387
13353TIP3    H261475   3.602   5.078   1.860  0.9005  0.0066  0.2352
13354TIP3   OH261476   2.121   4.468   4.693 -0.3946  0.2550 -0.0717
13354TIP3    H161477   2.159   4.549   4.729  0.5879 -0.2804  0.1122
13354TIP3    H261478   2.059   4.440   4.760  1.3749 -0.6972  1.2394
13355TIP3   OH261479   0.411   0.980   0.390  0.0915 -0.0983  0.2997
13355TIP3    H161480   0.449   0.995   0.304 -0.5792 -0.4109 -0.0629
13355TIP3    H261481   0.319   0.959   0.372  0.0785 -0.7248  1.0505
13356TIP3   OH261482   2.917   1.248   1.875  0.1400 -0.2488  0.0206
13356TIP3    H161483   2.915   1.343   1.862 -1.3055  0.1734  2.6708
13356TIP3    H261484   2.998   1.232   1.923 -0.0766 -0.2184  0.3978
13357TIP3   OH261485   4.450   4.050  11.874 -0.4786 -0.5387 -0.0770
13357TIP3    H161486   4.470   4.131  11.920 -0.1542  0.5110 -1.9868
13357TIP3    H261487   4.371   4.070  11.823 -0.2701 -1.3460 -0.7466
13358TIP3   OH261488   3.764   3.904   1.234 -0.0344 -0.5554 -1.3331
13358TIP3    H161489   3.817   3.845   1.181 -1.2337 -1.1493 -1.9211
13358TIP3    H261490   3.749   3.856   1.316  2.0085  0.4546 -0.3024
13359TIP3   OH261491   1.211   1.574   4.214 -0.3664 -0.3672  0.1557
13359TIP3    H161492   1.257   1.539   4.290  0.7927  0.4387 -0.1389
13359TIP3    H261493   1.163   1.500   4.178 -1.2303 -0.6777  1.8612
13360TIP3   OH261494   3.334   3.905  12.652 -0.0388 -0.6983  0.2236
13360TIP3    H161495   3.399   3.937  12.590  0.6862 -0.8235  0.9080
13360TIP3    H261496   3.268   3.861  12.598 -1.3539  2.3115 -0.8360
13361TIP3   OH261497   3.621   4.561  12.619  0.1248 -0.2920  0.3695
13361TIP3    H161498   3.539   4.532  12.660 -0.2426 -1.3461 -1.0467
13361TIP3    H261499   3.600   4.647  12.582 -0.2710 -0.4544  0.2142
13362TIP3   OH261500   5.928   3.554  11.315 -0.1337  0.0476 -0.0093
13362TIP3    H161501   5.851   3.526  11.266 -0.9342  0.3850  1.0220
13362TIP3    H261502   5.940   3.646  11.291 -0.3009  0.1077  0.1350
13363TIP3   OH261503   0.128   1.766   3.679 -0.6042  0.3147 -0.0383
13363TIP3    H161504   0.089   1.759   3.592 -0.2239  1.4643 -0.3225
13363TIP3    H261505   0.055   1.783   3.737 -0.7764  0.2887 -0.2463
13364TIP3   OH261506   0.080   4.456   5.115  0.0057  0.6215 -0.1846
13364TIP3    H161507  -0.008   4.470   5.079 -0.1787 -0.2394 -0.0824
13364TIP3    H261508   0.096   4.534   5.169 -1.4825 -0.0697  1.3582
13365TIP3   OH261509   3.579   2.420  10.597  0.3059 -0.7093 -0.5261
13365TIP3    H161510   3.661   2.451  10.636 -1.3101  1.1457  1.7192
13365TIP3    H261511   3.569   2.474  10.519  0.5130  0.1262  0.0074
13366TIP3   OH261512   0.910   5.748   2.736 -0.2969 -0.1588  0.2472
13366TIP3    H161513   0.998   5.764   2.703 -0.6746 -0.0887 -0.7387
13366TIP3    H261514   0.897   5.654   2.725 -1.0782  0.1283 -1.4805
13367TIP3   OH261515   2.712   1.053  16.996 -0.1639 -0.0772 -0.2937
13367TIP3    H161516   2.736   0.971  17.041  1.7686  0.8604  0.5049
13367TIP3    H261517   2.683   1.025  16.909 -3.2454 -1.8988  1.1486
13368TIP3   OH261518   5.885   0.746  15.961  0.4612 -0.6663  0.0258
13368TIP3    H161519   5.859   0.700  16.041 -0.5543  1.4912  1.0302
13368TIP3    H261520   5.960   0.800  15.988  0.2939 -0.1421 -0.5330
13369TIP3   OH261521   5.062   1.862  14.805 -0.0632  0.3497 -0.4483
13369TIP3    H161522   5.114   1.942  14.812 -0.1001  0.2854  0.8793
13369TIP3    H261523   5.125   1.794  14.780 -0.0144  0.7590 -1.4656
13370TIP3   OH261524   4.238   0.913  17.226  0.5263 -0.2482  0.2032
13370TIP3    H161525   4.169   0.887  17.287  1.6513 -1.9025  0.8469
13370TIP3    H261526   4.280   0.988  17.267  0.5496 -0.6470  0.9334
13371TIP3   OH261527   1.143   4.190  12.930  0.1763  0.0399  0.3415
13371TIP3    H161528   1.130   4.259  12.996  1.6376  0.8423 -0.1473
13371TIP3    H261529   1.234   4.201  12.902  0.4171 -2.0298  0.1425
13372TIP3   OH261530   3.464   5.514  15.972 -0.1510  0.2557 -0.7888
13372TIP3    H161531   3.453   5.585  16.035  1.2880  0.5821 -0.8506
13372TIP3    H261532   3.540   5.465  16.004 -0.1714 -0.3244 -1.5792
13373TIP3   OH261533   0.540   2.854  11.228  0.0990 -0.1155  0.0237
13373TIP3    H161534   0.454   2.876  11.263  1.1107  0.9055  2.0029
13373TIP3    H261535   0.601   2.914  11.271  1.6962 -0.0039 -2.2017
13374TIP3   OH261536   0.006   0.383  12.939 -0.0720  0.0529 -0.0439
13374TIP3    H161537   0.007   0.326  12.862 -0.4616 -1.6519  1.1445
13374TIP3    H261538  -0.086   0.407  12.949  0.1045  1.0099 -0.5928
13375TIP3   OH261539   4.608   1.233  16.677 -0.3579 -0.5681 -0.6718
13375TIP3    H161540   4.610   1.210  16.584  2.0065  1.0006 -1.0952
13375TIP3    H261541   4.609   1.329  16.678  0.7711 -0.5514  0.9452
13376TIP3   OH261542   4.958   5.769  13.307  0.1998  0.1688 -0.6461
13376TIP3    H161543   4.926   5.788  13.395 -0.3542  0.4987 -0.9164
13376TIP3    H261544   5.045   5.731  13.321 -0.6383 -1.6154  0.1630
13377TIP3   OH261545   4.877   2.947   3.252  0.2915  0.4444 -0.0969
13377TIP3    H161546   4.969   2.928   3.270  0.2487 -1.4009 -1.4710
13377TIP3    H261547   4.867   2.927   3.158 -1.3406  1.3601 -0.1544
13378TIP3   OH261548   1.505   1.075  13.003  0.1139  0.2497  0.1496
13378TIP3    H161549   1.499   1.071  12.907 -0.0206  0.6927  0.1383
13378TIP3    H261550   1.429   1.126  13.029 -0.0875 -0.2367  0.5280
13379TIP3   OH261551   3.757   0.104  16.125 -0.3154 -0.4917  0.1649
13379TIP3    H161552   3.663   0.124  16.123 -0.3222 -0.4142  0.8471
13379TIP3    H261553   3.764   0.018  16.082 -0.9035 -1.2049  1.4332
13380TIP3   OH261554   3.252   5.381  15.852 -0.3212  0.1745 -0.0207
13380TIP3    H161555   3.331   5.421  15.887  0.4120 -1.3421  0.1433
13380TIP3    H261556   3.180   5.424  15.899  0.4310  1.0622  0.3473
13381TIP3   OH261557   4.495   5.363  14.535  0.2275 -0.4032  0.6861
13381TIP3    H161558   4.564   5.341  14.598  0.4986  0.5652  0.7452
13381TIP3    H261559   4.501   5.295  14.468 -1.0915 -2.4107  2.4497
13382TIP3   OH261560   3.850   2.040  16.824  0.2509  0.5822 -0.0420
13382TIP3    H161561   3.798   1.992  16.888  2.0511 -0.0942  0.9924
13382TIP3    H261562   3.861   2.127  16.862  0.2887  0.5716 -0.0298
13383TIP3   OH261563   3.738   1.236   5.846  0.1271 -0.4838 -0.0280
13383TIP3    H161564   3.723   1.227   5.940 -0.2368 -0.4161 -0.0784
13383TIP3    H261565   3.821   1.284   5.840 -0.0304 -0.1684  0.2623
13384TIP3   OH261566   1.780   4.543   6.878  0.0124  0.0654 -0.2099
13384TIP3    H161567   1.726   4.590   6.814 -0.5615 -0.2768  0.0193
13384TIP3    H261568   1.797   4.606   6.947  1.4028  0.7277 -1.1205
13385TIP3   OH261569   4.518   4.127   5.567 -0.1472 -0.5940  0.2544
13385TIP3    H161570   4.542   4.120   5.475 -0.9488 -0.4887  0.0312
13385TIP3    H261571   4.586   4.078   5.614  0.7534  0.0852 -0.3122
13386TIP3   OH261572   5.493   2.057   2.624  0.3326 -0.3381 -0.6867
13386TIP3    H161573   5.428   2.071   2.693  1.0110 -0.5629  0.0126
13386TIP3    H261574   5.525   1.968   2.638  0.5366 -0.3603 -1.2483
13387TIP3   OH261575   6.081   1.177  15.973 -0.6182 -0.0519 -0.6965
13387TIP3    H161576   6.140   1.193  16.047  1.7628  1.6275 -2.8145
13387TIP3    H261577   6.038   1.262  15.958 -0.1339 -0.0182 -1.9859
13388TIP3   OH261578   6.224   6.701   4.944  0.2385 -0.5161 -0.6069
13388TIP3    H161579   6.258   6.640   4.878 -0.7515 -2.6071  0.7041
13388TIP3    H261580   6.301   6.736   4.987  0.8451 -0.4512 -1.7073
13389TIP3   OH261581   0.741   3.867   0.221  0.6160  0.3010  0.2988
13389TIP3    H161582   0.783   3.947   0.254 -0.1826  1.7624 -2.0130
13389TIP3    H261583   0.795   3.841   0.146 -1.2084  0.9173 -1.3108
13390TIP3   OH261584   2.653   0.503  12.760 -0.2053 -0.1895  0.4962
13390TIP3    H161585   2.677   0.434  12.698 -2.4203 -0.0814 -0.5595
13390TIP3    H261586   2.737   0.532  12.797  1.0203 -1.4471 -1.1557
13391TIP3   OH261587   1.244   3.474   5.813  0.2276  0.1388 -0.3653
13391TIP3    H161588   1.265   3.429   5.895 -0.1768  3.2427  1.5858
13391TIP3    H261589   1.174   3.420   5.775 -0.7462 -0.5605  2.1751
13392TIP3   OH261590   1.485   3.234   4.224  0.2666 -0.5932 -0.5782
13392TIP3    H161591   1.417   3.250   4.159 -0.3116  2.4525  0.6223
13392TIP3    H261592   1.561   3.283   4.193  0.7294 -0.9916 -0.0919
13393TIP3   OH261593   0.268   2.137  16.419 -0.0605 -0.1376  0.6993
13393TIP3    H161594   0.260   2.137  16.324 -1.4749  0.5344  0.8053
13393TIP3    H261595   0.269   2.044  16.443  0.4228 -0.3109  0.0356
13394TIP3   OH261596   4.979   2.842   0.313  0.0473  0.4417 -0.0010
13394TIP3    H161597   4.887   2.824   0.333 -0.2093  0.6601 -0.9336
13394TIP3    H261598   4.979   2.932   0.282  0.2014 -0.2475 -2.1816
13395TIP3   OH261599   3.536   4.362  12.417  0.4988  0.3362 -0.7535
13395TIP3    H161600   3.537   4.435  12.479 -0.0997  1.1081 -1.6308
13395TIP3    H261601   3.509   4.286  12.469 -2.9815  1.5196 -0.6029
13396TIP3   OH261602   0.773   5.515   3.304 -0.1506  0.8438  0.1380
13396TIP3    H161603   0.821   5.494   3.224 -0.5678  0.3669  0.0119
13396TIP3    H261604   0.750   5.608   3.294  2.6194  1.7515  1.1761
13397TIP3   OH261605   3.502   0.426   0.571 -0.0952  0.6024 -0.3232
13397TIP3    H161606   3.444   0.349   0.577  0.1793  0.0259 -3.4194
13397TIP3    H261607   3.561   0.417   0.646 -0.6854 -1.6873 -0.0452
13398TIP3   OH261608   1.449   0.661  12.986  0.1246 -0.2932 -0.3331
13398TIP3    H161609   1.385   0.728  12.961  0.1898  0.1911  0.7326
13398TIP3    H261610   1.425   0.584  12.935 -0.1650  0.4355 -1.3336
13399TIP3   OH261611   0.373   4.088   4.457  0.2744 -0.7765  0.3486
13399TIP3    H161612   0.294   4.083   4.403  0.1865 -0.3729  0.4404
13399TIP3    H261613   0.413   4.001   4.448 -0.9782 -1.5162  1.5255
13400TIP3   OH261614   2.130   0.294  11.492 -0.5654  0.4758  0.5135
13400TIP3    H161615   2.159   0.289  11.583  2.1772 -0.1857 -0.3028
13400TIP3    H261616   2.209   0.279  11.441 -2.2382 -0.4207 -2.0111
13401TIP3   OH261617   6.420   4.136   0.415 -0.6231  0.4290 -0.4493
13401TIP3    H161618   6.418   4.141   0.319 -1.1771 -0.1120 -0.4734
13401TIP3    H261619   6.378   4.053   0.435 -1.5081  1.0424  0.3081
13402TIP3   OH261620   1.245   3.880  11.723 -0.3358  0.3008  0.5353
13402TIP3    H161621   1.317   3.925  11.768 -0.5646  2.0998 -0.8023
13402TIP3    H261622   1.287   3.805  11.681  1.2303  2.3077 -1.7393
13403TIP3   OH261623   2.161   1.676   2.882 -0.0440  0.1305  0.3486
13403TIP3    H161624   2.213   1.737   2.829 -0.3520  0.5431  0.5149
13403TIP3    H261625   2.112   1.625   2.818  1.4345 -1.0853  0.1217
13404TIP3   OH261626   6.278   5.806  14.682 -0.0697  0.0334 -0.3638
13404TIP3    H161627   6.349   5.820  14.743  0.8162 -2.3922 -0.6996
13404TIP3    H261628   6.205   5.777  14.737 -0.0852  0.3273 -0.2281
13405TIP3   OH261629   0.743   0.822   3.299  0.2524  0.4309 -0.6222
13405TIP3    H161630   0.673   0.832   3.363 -0.1573 -0.7497 -0.8669
13405TIP3    H261631   0.748   0.907   3.255 -1.8411  0.1794 -1.4387
13406TIP3   OH261632   4.167   6.533  11.157  0.6350  0.2768 -0.5705
13406TIP3    H161633   4.099   6.465  11.160  1.3591 -0.4206  0.7055
13406TIP3    H261634   4.169   6.559  11.065 -0.4734 -0.5969 -0.8726
13407TIP3   OH261635   6.260   4.923  12.198 -0.2505 -0.0045 -0.4833
13407TIP3    H161636   6.335   4.865  12.209 -0.5282 -0.6125 -1.6412
13407TIP3    H261637   6.223   4.899  12.113 -1.2458  0.8737 -0.3236
13408TIP3   OH261638   6.558   0.835  17.050  0.4096  0.2427 -0.0515
13408TIP3    H161639   6.567   0.789  16.967  0.1288 -0.3903  0.2606
13408TIP3    H261640   6.608   0.916  17.039 -0.2881  0.5502 -1.1126
13409TIP3   OH261641   6.029   1.324   1.321  0.1295 -0.1053  0.1138
13409TIP3    H161642   5.970   1.399   1.327 -0.6988 -0.7994  0.9905
13409TIP3    H261643   5.975   1.255   1.281  0.5440 -0.5537  0.3139
13410TIP3   OH261644   3.562   4.306  15.335 -0.9027  0.8546  0.1557
13410TIP3    H161645   3.653   4.313  15.307 -0.3959  0.6201  1.6461
13410TIP3    H261646   3.523   4.244  15.273  0.3784 -0.3159  0.4709
13411TIP3   OH261647   3.932   4.748  16.698 -0.2600 -0.5998 -0.1195
13411TIP3    H161648   3.983   4.788  16.768 -0.5149  1.9695 -1.2986
13411TIP3    H261649   3.887   4.674  16.740 -0.2631  0.7187  2.3607
13412TIP3   OH261650   0.112   2.616   4.224 -0.2642  0.5810  0.3305
13412TIP3    H161651   0.147   2.671   4.293  1.3158  1.0309 -0.7848
13412TIP3    H261652   0.168   2.539   4.223  1.0240  1.4642 -1.7006
13413TIP3   OH261653   2.263   3.023   4.536  0.1881  0.1171  0.3337
13413TIP3    H161654   2.252   2.939   4.492 -0.8741  1.6246 -2.5807
13413TIP3    H261655   2.175   3.050   4.560  0.4084  0.7291  0.4904
13414TIP3   OH261656   3.553   6.294  13.756 -0.7021 -0.4572  0.4335
13414TIP3    H161657   3.535   6.259  13.843 -0.3607  0.2607  0.8042
13414TIP3    H261658   3.522   6.226  13.696 -3.1593  0.0532  1.0445
13415TIP3   OH261659   3.430   0.802   0.226  0.8453 -0.4983 -0.7824
13415TIP3    H161660   3.421   0.896   0.211 -0.8174 -0.4882  0.0216
13415TIP3    H261661   3.379   0.761   0.155 -0.3467 -0.6869  0.1440
13416TIP3   OH261662   0.724   5.334  11.594  0.2435  0.1039 -0.0345
13416TIP3    H161663   0.641   5.356  11.636 -0.0963  0.3592 -0.8343
13416TIP3    H261664   0.713   5.360  11.503  1.0145 -0.3485 -0.2651
13417TIP3   OH261665   2.736   6.082   0.027 -0.0944 -0.1518  0.2648
13417TIP3    H161666   2.750   5.989   0.045 -0.2366 -0.1709  0.2767
13417TIP3    H261667   2.700   6.117   0.109 -1.3269 -0.3606 -0.1764
13418TIP3   OH261668   2.356   2.654   6.862 -0.0691  0.5506 -0.1395
13418TIP3    H161669   2.400   2.583   6.909  0.7771 -0.2897 -2.0763
13418TIP3    H261670   2.367   2.631   6.769 -1.9407  1.9444 -0.7579
13419TIP3   OH261671   3.392   5.596  13.887 -0.3556 -0.1275 -0.4373
13419TIP3    H161672   3.431   5.654  13.822 -1.4128  0.4600 -0.5674
13419TIP3    H261673   3.406   5.508  13.851  1.5637 -0.0218 -0.0661
13420TIP3   OH261674   4.170   2.909  12.132  0.1606 -0.0915  0.0762
13420TIP3    H161675   4.262   2.932  12.145 -0.0954  0.7365  0.5257
13420TIP3    H261676   4.146   2.950  12.049  0.9937 -2.8960 -1.6788
13421TIP3   OH261677   1.530   5.178   4.974  0.3735 -0.0024 -0.0283
13421TIP3    H161678   1.593   5.222   4.917 -1.0233 -0.2274 -1.8444
13421TIP3    H261679   1.447   5.183   4.927 -0.7732 -0.6077  1.8100
13422TIP3   OH261680   2.337   2.483  10.952  0.1233  0.6093  0.3958
13422TIP3    H161681   2.288   2.564  10.965  0.2795  0.7874 -0.1177
13422TIP3    H261682   2.429   2.509  10.955  0.2192  0.9522 -2.5434
13423TIP3   OH261683   4.713   1.560   5.650 -0.5100 -0.4989 -0.2312
13423TIP3    H161684   4.807   1.574   5.642 -0.1814 -3.0095 -1.5219
13423TIP3    H261685   4.683   1.545   5.561 -1.8188 -1.4508  0.3373
13424TIP3   OH261686   5.613   0.807   0.608  0.6993  0.0450  0.4421
13424TIP3    H161687   5.537   0.749   0.594 -0.6356  1.6959  0.5594
13424TIP3    H261688   5.597   0.882   0.552  1.3451  1.2490  1.8151
13425TIP3   OH261689   4.818   2.619  14.960  0.4773 -0.0140 -0.4570
13425TIP3    H161690   4.913   2.614  14.965  0.6151  2.4075  0.6036
13425TIP3    H261691   4.791   2.533  14.927  2.6934 -2.4391  3.3588
13426TIP3   OH261692   0.174   0.307  17.233 -0.3802  0.1961  0.1769
13426TIP3    H161693   0.195   0.290  17.141 -1.8656  1.8072 -0.5075
13426TIP3    H261694   0.250   0.355  17.266 -0.4545  0.8810 -0.6218
13427TIP3   OH261695   1.398   6.106   0.541 -0.3534 -0.0615  0.2208
13427TIP3    H161696   1.337   6.059   0.484 -2.1520  0.1822  1.8448
13427TIP3    H261697   1.478   6.114   0.490 -1.0905 -1.9815 -1.3250
13428TIP3   OH261698   1.390   0.505  11.125  0.3007 -0.5527  0.2995
13428TIP3    H161699   1.369   0.598  11.138 -1.0897 -0.5349 -1.5961
13428TIP3    H261700   1.419   0.499  11.034  0.0510 -2.0183  0.2866
13429TIP3   OH261701   4.843   3.120  10.895  0.2236 -0.1751 -0.2947
13429TIP3    H161702   4.870   3.056  10.830 -0.3672 -0.1737 -0.5550
13429TIP3    H261703   4.898   3.103  10.971  0.6887 -0.3966 -0.6790
13430TIP3   OH261704   6.110   3.551   0.934  0.1696  0.0040  0.1561
13430TIP3    H161705   6.017   3.552   0.955  0.4822  1.1695  1.7651
13430TIP3    H261706   6.146   3.625   0.983  2.1141 -1.0425  0.4351
13431TIP3   OH261707   4.205   3.096  12.935  0.7627  0.5343  0.1048
13431TIP3    H161708   4.278   3.155  12.954  0.9902  0.7496 -1.3378
13431TIP3    H261709   4.154   3.094  13.016  3.8322 -1.8499  2.2056
13432TIP3   OH261710   5.573   6.523   0.160 -0.1108  0.2223 -0.0308
13432TIP3    H161711   5.533   6.470   0.092 -0.8715  0.3587  0.3060
13432TIP3    H261712   5.665   6.497   0.159 -0.5449 -1.4579  0.4522
13433TIP3   OH261713   1.358   1.899  15.900 -0.1700  0.2447 -0.3366
13433TIP3    H161714   1.290   1.940  15.846 -0.0394  0.7567 -0.1098
13433TIP3    H261715   1.419   1.862  15.836 -0.6629 -0.2368 -0.5427
13434TIP3   OH261716   3.326   5.455  12.888 -0.0764  0.6602  0.1540
13434TIP3    H161717   3.268   5.407  12.829  1.5279  0.6166 -1.4996
13434TIP3    H261718   3.331   5.400  12.967 -0.6940 -0.3207 -0.4646
13435TIP3   OH261719   3.803   3.052   1.637 -0.3646 -0.2000  1.0647
13435TIP3    H161720   3.898   3.052   1.623 -0.4190 -0.9617  0.6161
13435TIP3    H261721   3.785   2.969   1.681 -1.0768 -1.1279 -0.8623
13436TIP3   OH261722   4.812   6.610   2.184 -0.1405  0.0593  0.2275
13436TIP3    H161723   4.848   6.692   2.218  1.0681 -1.2184  2.3032
13436TIP3    H261724   4.733   6.595   2.237  1.2903 -1.5258  2.0650
13437TIP3   OH261725   1.993   4.133   1.763 -0.5779  0.4682  0.4109
13437TIP3    H161726   1.963   4.051   1.723  1.6123  0.0711 -0.5686
13437TIP3    H261727   1.980   4.121   1.857  0.0745 -1.1897  0.3189
13438TIP3   OH261728   2.781   0.827   2.685 -0.1718 -0.2200  0.2928
13438TIP3    H161729   2.822   0.834   2.599  0.6171  0.2461  0.6946
13438TIP3    H261730   2.721   0.753   2.677  0.5410 -0.7432 -0.3937
13439TIP3   OH261731   4.810   1.240   0.143  0.1996  0.5099 -0.2936
13439TIP3    H161732   4.800   1.206   0.054 -0.7468  1.6277 -0.6288
13439TIP3    H261733   4.821   1.161   0.197 -1.3519 -0.3208 -1.1268
13440TIP3   OH261734   2.003   0.417   0.114  0.3114  0.2011 -0.0710
13440TIP3    H161735   2.059   0.466   0.054  0.4420  1.2755  0.9108
13440TIP3    H261736   2.062   0.355   0.157  0.4954  0.4466  0.0282
13441TIP3   OH261737   2.624   2.169   2.100  0.5282 -0.2052 -0.0353
13441TIP3    H161738   2.562   2.135   2.035  0.9407 -0.3961 -0.3312
13441TIP3    H261739   2.684   2.097   2.116 -1.7641 -1.5778  3.4656
13442TIP3   OH261740   4.660   3.399  12.299 -0.2800 -0.1963  0.0535
13442TIP3    H161741   4.734   3.433  12.249  1.0111 -0.2877  1.8230
13442TIP3    H261742   4.660   3.305  12.281  0.0879 -0.2120  0.1354
13443TIP3   OH261743   6.022   0.347   2.588  0.1153 -0.0411  0.1256
13443TIP3    H161744   5.949   0.375   2.533  0.5705  0.0729 -0.4337
13443TIP3    H261745   5.990   0.358   2.678 -0.1679  1.0884 -0.0982
13444TIP3   OH261746   5.053   3.291  12.696  0.4122  0.0167  0.1652
13444TIP3    H161747   5.003   3.285  12.778 -1.1346  0.2596 -0.7205
13444TIP3    H261748   5.032   3.378  12.662  1.2938  0.0377 -0.3380
13445TIP3   OH261749   1.463   3.570   5.261  0.0716 -0.1665 -0.4584
13445TIP3    H161750   1.500   3.487   5.292 -2.1494 -0.1187  2.9168
13445TIP3    H261751   1.515   3.638   5.305 -0.1555  0.1182 -0.6229
13446TIP3   OH261752   3.778   6.564   1.726 -0.2360  0.7276  0.2886
13446TIP3    H161753   3.844   6.570   1.795 -0.2879  0.0132  0.4065
13446TIP3    H261754   3.695   6.582   1.770 -0.7012 -2.8483  1.1572
13447TIP3   OH261755   3.036   0.079   3.657  0.4716 -0.5299  0.1441
13447TIP3    H161756   3.031  -0.014   3.680 -0.7792 -1.0987 -2.0962
13447TIP3    H261757   3.119   0.088   3.611 -0.0232 -0.8779 -0.8449
13448TIP3   OH261758   5.265   0.522  11.962  0.1861  0.0860 -0.2724
13448TIP3    H161759   5.212   0.579  11.906 -2.8480 -1.7636  0.4636
13448TIP3    H261760   5.249   0.555  12.051 -0.6566 -1.1120  0.0522
13449TIP3   OH261761   0.959   3.953   3.526 -0.2366  0.3675 -0.2433
13449TIP3    H161762   0.925   4.019   3.466  0.1612  1.1726  0.3980
13449TIP3    H261763   1.004   4.003   3.595 -0.1450 -0.5548  0.3936
13450TIP3   OH261764   3.981   1.708  16.343  0.4160 -0.0025  0.1676
13450TIP3    H161765   3.889   1.718  16.317 -0.3042 -0.4976  2.3016
13450TIP3    H261766   4.023   1.670  16.266 -0.9314  1.1023 -1.2047
13451TIP3   OH261767   0.514   5.495   0.056 -0.7299 -0.2479 -0.2306
13451TIP3    H161768   0.481   5.490  -0.034  0.4251 -0.8052 -0.6500
13451TIP3    H261769   0.463   5.430   0.104 -3.3905  2.0112  0.2554
13452TIP3   OH261770   4.858   0.659  11.393  0.1644  0.2268 -0.1317
13452TIP3    H161771   4.829   0.584  11.445 -1.4952 -0.5414 -2.0275
13452TIP3    H261772   4.787   0.722  11.400  0.5405  0.6876 -0.3704
13453TIP3   OH261773   6.665   2.031   1.618  0.0842 -0.4665 -0.2108
13453TIP3    H161774   6.688   1.939   1.612  0.1743 -0.4093 -0.7222
13453TIP3    H261775   6.689   2.068   1.534  1.1214  0.2623  0.3865
13454TIP3   OH261776   3.046   0.740   3.883  0.5810 -0.3534 -0.9747
13454TIP3    H161777   2.968   0.685   3.877  0.7228 -0.7775  0.5500
13454TIP3    H261778   3.079   0.725   3.972  0.6636  2.1327 -0.5027
13455TIP3   OH261779   1.236   4.909  10.670 -0.2040  0.4952  0.0461
13455TIP3    H161780   1.262   4.823  10.701  0.3518  0.2098 -1.1507
13455TIP3    H261781   1.151   4.896  10.629  0.6833  0.1071 -1.7715
13456TIP3   OH261782   1.460   3.148  12.986 -0.4639  0.2676  0.3688
13456TIP3    H161783   1.400   3.084  13.026  2.9228 -3.3350  0.1987
13456TIP3    H261784   1.466   3.121  12.895  1.8087  0.1251  0.5246
13457TIP3   OH261785   0.989   2.613  12.415 -0.0570  0.3962  0.3304
13457TIP3    H161786   0.911   2.566  12.385 -1.2486  1.8299  1.0566
13457TIP3    H261787   1.061   2.554  12.395 -1.2883 -0.8691 -0.6184
13458TIP3   OH261788   4.867   1.632   4.019 -0.3985 -0.3238 -0.5495
13458TIP3    H161789   4.825   1.684   3.951  1.2959 -1.4572 -2.6027
13458TIP3    H261790   4.904   1.557   3.972  1.8138 -0.6049  1.4542
13459TIP3   OH261791   4.652   2.996  12.496 -0.3212 -0.1403  0.1244
13459TIP3    H161792   4.624   2.985  12.587 -1.2532  1.5033  0.0798
13459TIP3    H261793   4.737   3.040  12.502 -0.9636  1.1393  0.2254
13460TIP3   OH261794   1.357   0.118   5.553  0.0993 -0.1708 -0.0845
13460TIP3    H161795   1.333   0.053   5.619  1.0854  0.8730  1.3700
13460TIP3    H261796   1.354   0.202   5.599  0.0731  0.6869 -1.5763
13461TIP3   OH261797   3.765   2.805  16.736 -0.5191  0.4833 -0.3625
13461TIP3    H161798   3.850   2.814  16.778  0.0116  3.1507 -1.7696
13461TIP3    H261799   3.771   2.723  16.686  1.5452  0.9882 -1.0245
13462TIP3   OH261800   5.374   0.359  12.601  0.2795 -0.3644 -0.3210
13462TIP3    H161801   5.364   0.435  12.658 -1.0097 -1.0192  0.3856
13462TIP3    H261802   5.427   0.390  12.528  1.5414  0.6378  0.9658
13463TIP3   OH261803   1.720   4.149  16.907  0.1575 -0.1067 -0.3818
13463TIP3    H161804   1.681   4.165  16.821 -1.7678  0.3826  0.5237
13463TIP3    H261805   1.807   4.188  16.901 -0.3157  0.8403 -1.7881
13464TIP3   OH261806   0.351   3.795   4.793 -0.7339  0.4869  0.6092
13464TIP3    H161807   0.365   3.841   4.875  0.5914 -0.3730  0.8768
13464TIP3    H261808   0.255   3.792   4.784 -0.8864  0.9921  1.8646
13465TIP3   OH261809   5.948   4.337   3.388  1.2584 -0.5090 -0.3563
13465TIP3    H161810   5.952   4.416   3.333 -2.4013  0.4165  0.4514
13465TIP3    H261811   5.941   4.265   3.326  1.8729  0.0659 -1.1083
13466TIP3   OH261812   1.942   3.172   5.745  0.0166 -0.3191  0.7133
13466TIP3    H161813   2.003   3.230   5.699  0.4939 -0.4406  1.1808
13466TIP3    H261814   1.995   3.097   5.771 -0.4050 -0.5705  0.8571
13467TIP3   OH261815   5.086   2.858  14.818  0.0558 -0.0633  0.2334
13467TIP3    H161816   5.075   2.828  14.909 -0.6875 -1.3152 -0.2397
13467TIP3    H261817   5.177   2.838  14.798 -0.0609 -0.7839  0.3745
13468TIP3   OH261818   6.593   6.666  13.665 -0.2527  0.4064 -0.0705
13468TIP3    H161819   6.635   6.682  13.750  0.0449 -0.4886 -0.0434
13468TIP3    H261820   6.563   6.576  13.670  0.1484  0.2098 -1.0836
13469TIP3   OH261821   6.551   1.571  11.470 -0.9851 -0.1240 -0.2832
13469TIP3    H161822   6.639   1.545  11.496  0.3747  1.9203 -2.3904
13469TIP3    H261823   6.509   1.598  11.551  0.2886 -1.2220  0.7819
13470TIP3   OH261824   1.543   5.806   5.392  0.3260  0.0305  0.0515
13470TIP3    H161825   1.485   5.744   5.436 -0.9329  2.5258  2.2127
13470TIP3    H261826   1.630   5.787   5.427 -0.3241  0.5557  2.1018
13471TIP3   OH261827   1.119   0.697   5.299 -0.1043 -0.0235  0.3478
13471TIP3    H161828   1.058   0.625   5.289 -0.2441  0.2108 -0.5717
13471TIP3    H261829   1.066   0.776   5.285 -0.0243  0.2854  1.6608
13472TIP3   OH261830   2.755   4.119   2.876  0.0452 -0.7155  0.0644
13472TIP3    H161831   2.692   4.168   2.930  0.7399  0.5732 -0.2401
13472TIP3    H261832   2.705   4.047   2.840 -0.8850 -0.5665  1.0004
13473TIP3   OH261833   1.309   5.305  13.450  0.2374  0.0743  0.1184
13473TIP3    H161834   1.341   5.217  13.431  2.0664  0.5510  0.7969
13473TIP3    H261835   1.241   5.291  13.516  2.6467 -0.6855  2.6141
13474TIP3   OH261836   2.893   5.698  11.034  0.3415  0.2061 -0.2363
13474TIP3    H161837   2.879   5.753  11.111  2.3648 -0.6776  0.8484
13474TIP3    H261838   2.810   5.652  11.022 -0.1828  0.7472  1.1037
13475TIP3   OH261839   2.585   1.318  14.571 -0.4557 -0.3962  0.5822
13475TIP3    H161840   2.631   1.343  14.651 -0.8772 -0.2353  0.7764
13475TIP3    H261841   2.649   1.333  14.501 -0.1178 -0.4459  0.8756
13476TIP3   OH261842   1.235   6.026  12.066 -0.1552  0.0664 -0.3036
13476TIP3    H161843   1.283   6.091  12.015  0.8598  0.3031  0.8927
13476TIP3    H261844   1.161   6.001  12.010  0.0654  1.4052 -1.2462
13477TIP3   OH261845   4.766   0.483  17.287  0.2179  0.1367 -0.2143
13477TIP3    H161846   4.760   0.516  17.197  1.2189 -0.4720 -0.5315
13477TIP3    H261847   4.758   0.388  17.278 -1.2237  0.1717  0.5236
13478TIP3   OH261848   4.299   5.328   3.816 -0.3753 -0.3287 -0.6526
13478TIP3    H161849   4.379   5.380   3.813  1.2740 -2.6947 -1.0906
13478TIP3    H261850   4.250   5.355   3.738 -0.8447  2.2742  0.4480
13479TIP3   OH261851   2.446   3.042  15.243 -0.0446 -0.1478 -0.1768
13479TIP3    H161852   2.458   3.097  15.320 -1.7533  0.0138  0.0187
13479TIP3    H261853   2.449   2.953  15.276  0.1619 -0.1013 -0.0716
13480TIP3   OH261854   2.112   2.226   1.188 -0.1907  0.4853  0.0359
13480TIP3    H161855   2.099   2.246   1.281  1.3634 -1.1989  0.6930
13480TIP3    H261856   2.030   2.186   1.160  0.8147 -3.6901  2.1780
13481TIP3   OH261857   1.594   3.634   1.867 -0.3170 -0.0431  0.5066
13481TIP3    H161858   1.644   3.556   1.840  1.0949  1.4554 -1.5034
13481TIP3    H261859   1.661   3.697   1.894 -1.3976  0.7115  1.5269
13482TIP3   OH261860   4.775   2.326  12.662  0.1339 -0.3503 -0.0105
13482TIP3    H161861   4.847   2.383  12.689  0.0498  0.2473 -1.0122
13482TIP3    H261862   4.812   2.237  12.666  0.5046 -0.1754  0.7750
13483TIP3   OH261863   4.548   6.313  13.909  0.6146 -0.3247  0.3160
13483TIP3    H161864   4.472   6.338  13.962  1.0029  3.6279 -0.6432
13483TIP3    H261865   4.512   6.294  13.822  0.5496  0.2188  0.2161
13484TIP3   OH261866   1.731   0.083   1.111 -0.5561 -0.6459  0.0991
13484TIP3    H161867   1.649   0.034   1.109 -0.0058 -1.5985 -1.7761
13484TIP3    H261868   1.793   0.028   1.062  0.9837  0.4132  0.7855
13485TIP3   OH261869   5.890   2.623   3.245  0.1043  0.2391 -0.3863
13485TIP3    H161870   5.951   2.571   3.192 -0.5512 -0.2378 -0.6914
13485TIP3    H261871   5.818   2.643   3.185 -1.2842 -1.4010  0.6417
13486TIP3   OH261872   5.452   0.030  13.167 -0.4545 -0.0688  0.2128
13486TIP3    H161873   5.467  -0.040  13.103  3.3029  0.4743  0.2458
13486TIP3    H261874   5.405  -0.012  13.238 -5.3690 -0.5856 -2.8702
13487TIP3   OH261875   0.927   2.871   6.606 -0.1703  0.3235  0.1530
13487TIP3    H161876   0.861   2.906   6.665  0.1026 -0.8801  1.1906
13487TIP3    H261877   0.877   2.832   6.534 -0.5973 -0.4419  0.8507
13488TIP3   OH261878   4.508   6.545   5.301 -0.4772 -0.4670  0.0938
13488TIP3    H161879   4.575   6.525   5.367  1.1623  1.2884 -0.9241
13488TIP3    H261880   4.482   6.635   5.321 -0.3818 -0.1184 -1.2582
13489TIP3   OH261881   4.403   5.832   4.452  0.1107  0.5093  0.2566
13489TIP3    H161882   4.436   5.801   4.536  1.5010  1.4404  0.0832
13489TIP3    H261883   4.330   5.891   4.475 -1.1224 -1.1120  0.6675
13490TIP3   OH261884   5.203   5.624  10.655 -0.2675  0.1411  0.1221
13490TIP3    H161885   5.183   5.628  10.748 -0.1237  1.6539  0.1128
13490TIP3    H261886   5.299   5.626  10.651 -0.2821  1.2907 -0.0696
13491TIP3   OH261887   3.377   4.126  12.467 -0.0742 -0.0342 -0.0141
13491TIP3    H161888   3.299   4.170  12.500 -0.7026  1.5417 -3.1534
13491TIP3    H261889   3.358   4.111  12.374  3.4531  0.8070 -1.0233
13492TIP3   OH261890   1.089   4.473  15.928 -0.1365  0.6665 -0.2121
13492TIP3    H161891   1.095   4.513  15.842  0.9299  1.4850  0.2267
13492TIP3    H261892   1.105   4.380  15.912  1.6117  1.0219 -0.7312
13493TIP3   OH261893   3.336   3.811  11.445 -0.5054 -0.2108 -0.0777
13493TIP3    H161894   3.287   3.849  11.517  0.0078 -0.4711  0.4218
13493TIP3    H261895   3.425   3.846  11.456 -0.5487  0.1846 -0.9105
13494TIP3   OH261896   3.117   6.702  13.087  0.6286  0.8774  0.2368
13494TIP3    H161897   3.026   6.731  13.087 -0.0798 -1.0840 -1.7361
13494TIP3    H261898   3.127   6.654  13.005  2.3845 -2.1047  1.9877
13495TIP3   OH261899   0.478   0.260   6.286  0.3375 -0.2320 -0.1271
13495TIP3    H161900   0.513   0.204   6.217  0.0677 -0.7727  0.1744
13495TIP3    H261901   0.456   0.200   6.357  1.5608  0.4097  0.8413
13496TIP3   OH261902   4.330   4.892  14.257  0.0566  0.2547  0.1979
13496TIP3    H161903   4.362   4.899  14.347 -0.5372  0.2719  0.4072
13496TIP3    H261904   4.236   4.909  14.263 -0.5525 -2.6022 -0.0049
13497TIP3   OH261905   0.538   2.905  15.816  0.1311  0.6742 -0.2195
13497TIP3    H161906   0.457   2.920  15.767  0.4935  2.1602 -0.4108
13497TIP3    H261907   0.510   2.879  15.903 -0.6328  3.1333  0.3434
13498TIP3   OH261908   3.199   5.953   0.464 -0.5267 -0.2145 -0.4110
13498TIP3    H161909   3.191   6.040   0.502  0.6126  0.1066 -0.8527
13498TIP3    H261910   3.271   5.912   0.512 -0.1883 -0.4218 -1.0783
13499TIP3   OH261911   3.000   6.150  14.400  0.0295 -0.0788 -0.2787
13499TIP3    H161912   3.079   6.176  14.448 -0.2482  3.7770 -1.5760
13499TIP3    H261913   2.934   6.138  14.469  0.6381  1.3148  0.6039
13500TIP3   OH261914   1.638   3.296  15.390 -0.0569  0.3623 -0.4029
13500TIP3    H161915   1.566   3.358  15.401  0.9307  1.2010  2.1997
13500TIP3    H261916   1.711   3.349  15.359  0.5875  0.3912  1.1022
13501TIP3   OH261917   4.023   2.704   1.433  0.2766  0.1210  0.0349
13501TIP3    H161918   4.109   2.748   1.435  0.3458  0.0120 -0.4246
13501TIP3    H261919   3.985   2.723   1.518  1.2806 -0.8663  0.7377
13502TIP3   OH261920   1.162   5.113   6.739  0.3682 -0.2089 -0.0839
13502TIP3    H161921   1.100   5.158   6.681 -0.3654  0.0194  0.8630
13502TIP3    H261922   1.247   5.131   6.700 -0.0951  0.0626 -1.0131
13503TIP3   OH261923   1.508   6.466  16.551  0.6250 -0.3519  0.1080
13503TIP3    H161924   1.542   6.377  16.557  0.7188 -0.2946  0.4796
13503TIP3    H261925   1.530   6.495  16.463  0.2725 -0.8237 -0.1393
13504TIP3   OH261926   4.053   1.922   2.862 -0.1371 -0.0418 -0.1578
13504TIP3    H161927   4.100   1.968   2.793  1.7924 -0.3749  0.8776
13504TIP3    H261928   4.000   1.990   2.905  1.3135  0.8830  0.2182
13505TIP3   OH261929   0.691   6.324   1.273  0.1771  0.1611  0.1407
13505TIP3    H161930   0.642   6.324   1.355  1.4778  2.2976  1.0172
13505TIP3    H261931   0.701   6.231   1.251 -0.8159 -0.4458  2.0263
13506TIP3   OH261932   3.920   1.872  10.840  0.1730  0.5971 -0.2763
13506TIP3    H161933   3.922   1.849  10.747 -0.0079 -3.0391  0.4772
13506TIP3    H261934   4.010   1.893  10.862  0.3031  0.9833 -1.1517
13507TIP3   OH261935   2.514   4.037   0.462  0.2456  0.2407  0.0650
13507TIP3    H161936   2.544   3.957   0.504  0.9880 -0.1705 -1.2200
13507TIP3    H261937   2.475   4.088   0.534 -0.2848 -1.2637  0.8942
13508TIP3   OH261938   1.781   3.663  12.792 -0.2796  0.8046  0.0264
13508TIP3    H161939   1.838   3.605  12.844 -2.4271 -0.5916  0.9726
13508TIP3    H261940   1.789   3.748  12.834 -0.0193  0.2837  1.0824
13509TIP3   OH261941   2.288   1.056  15.029  0.2397  0.0523  0.5143
13509TIP3    H161942   2.213   1.112  15.049 -0.8412 -0.7473 -1.0839
13509TIP3    H261943   2.347   1.112  14.978 -0.4689  0.0079 -0.3914
13510TIP3   OH261944   4.931   1.154  15.085 -0.4545  0.4051  0.2716
13510TIP3    H161945   5.014   1.172  15.040 -0.8724  1.3686 -0.1330
13510TIP3    H261946   4.915   1.231  15.139 -0.3455 -0.4189  1.5125
13511TIP3   OH261947   2.415   3.144   2.498  0.3661  0.3295 -0.1579
13511TIP3    H161948   2.447   3.150   2.408  1.9826 -0.8030  0.2940
13511TIP3    H261949   2.407   3.235   2.526 -0.2300  0.7007 -1.4479
13512TIP3   OH261950   4.215   3.863   0.026  0.3246 -0.3881 -0.5793
13512TIP3    H161951   4.239   3.952   0.049  0.1788 -0.5434  0.1897
13512TIP3    H261952   4.189   3.868  -0.066 -1.9732  0.8505  0.0641
13513TIP3   OH261953   4.253   1.657  13.690 -0.5857  0.1634 -0.2566
13513TIP3    H161954   4.303   1.654  13.772 -0.4886 -1.0188 -0.3460
13513TIP3    H261955   4.192   1.729  13.703  0.4119  0.9442  0.2751
13514TIP3   OH261956   5.746   3.153  16.681 -0.6998  0.2786 -0.3875
13514TIP3    H161957   5.663   3.142  16.728 -0.8179 -0.2024 -0.7047
13514TIP3    H261958   5.813   3.138  16.748 -0.8256  2.9414  0.4327
13515TIP3   OH261959   4.518   2.910  15.334  0.4733 -0.7850 -0.2974
13515TIP3    H161960   4.480   2.838  15.283 -2.8127 -0.3858  1.3120
13515TIP3    H261961   4.560   2.966  15.268 -1.9385 -1.2362 -2.3920
13516TIP3   OH261962   2.712   6.252   5.464  0.5039  0.2357 -0.6393
13516TIP3    H161963   2.731   6.342   5.488  1.7243 -0.1790  0.0786
13516TIP3    H261964   2.627   6.233   5.504  1.0691  0.5296  0.7556
13517TIP3   OH261965   0.720   0.180   2.393  0.0713 -0.6485 -0.2873
13517TIP3    H161966   0.782   0.123   2.348  0.2362 -1.1292  0.5231
13517TIP3    H261967   0.759   0.193   2.480 -1.1308 -1.2338  0.3610
13518TIP3   OH261968   5.630   3.476   1.497 -0.0636  0.1113  0.2409
13518TIP3    H161969   5.687   3.541   1.455  3.4233 -2.5089  0.5524
13518TIP3    H261970   5.563   3.529   1.541  2.5775  3.5485  0.5882
13519TIP3   OH261971   1.959   4.425   4.905 -0.1223  0.0328  0.1390
13519TIP3    H161972   1.873   4.391   4.880  0.5732 -3.7185  2.0284
13519TIP3    H261973   1.960   4.419   5.001  1.8797  1.0162  0.2326
13520TIP3   OH261974   3.283   6.368  14.514 -0.0088  0.3495 -0.1204
13520TIP3    H161975   3.265   6.277  14.490 -2.3829  0.6214  0.2985
13520TIP3    H261976   3.196   6.409  14.515  0.7951  2.1510  1.5450
13521TIP3   OH261977   5.519   0.166  11.497  0.2452  0.1959  0.3281
13521TIP3    H161978   5.604   0.128  11.521  0.5478  1.2367  1.0095
13521TIP3    H261979   5.530   0.260  11.513 -0.2840  0.6789 -1.8547
13522TIP3   OH261980   1.846   6.318   4.020 -0.5087 -0.6887 -0.0054
13522TIP3    H161981   1.941   6.308   4.029 -0.7001 -3.2122 -0.0855
13522TIP3    H261982   1.824   6.390   4.080  1.2217 -1.2770  1.4359
13523TIP3   OH261983   2.581   1.166   3.000  0.0767  0.3794  0.0897
13523TIP3    H161984   2.577   1.222   2.922 -0.6633 -0.9613 -0.8685
13523TIP3    H261985   2.674   1.143   3.007  0.3034  1.2779  0.1865
13524TIP3   OH261986   1.348   1.260   6.445 -0.0578 -0.1815  0.4036
13524TIP3    H161987   1.274   1.320   6.441 -0.3290 -0.5222  0.2949
13524TIP3    H261988   1.312   1.178   6.481  0.1243 -0.5517 -0.2404
13525TIP3   OH261989   1.090   4.185   1.867  0.0670 -0.1046 -0.2665
13525TIP3    H161990   1.060   4.192   1.776  1.4343  0.0421 -0.7453
13525TIP3    H261991   1.184   4.206   1.862 -0.2347  1.9810  1.4973
13526TIP3   OH261992   2.619   4.807   1.192  0.0348  0.3036  0.2219
13526TIP3    H161993   2.713   4.820   1.182  0.2087 -1.3298 -0.4918
13526TIP3    H261994   2.583   4.816   1.104 -0.0542 -1.9156 -0.0333
13527TIP3   OH261995   2.773   0.125  15.854  0.0274 -0.2762 -0.2478
13527TIP3    H161996   2.864   0.152  15.856  0.0080  0.1068 -2.3097
13527TIP3    H261997   2.734   0.176  15.784 -2.9096  2.7541  3.1459
13528TIP3   OH261998   0.736   0.328  11.400 -0.7884 -0.1193  0.5923
13528TIP3    H161999   0.686   0.406  11.425 -0.3937  0.4231 -0.2576
13528TIP3    H262000   0.681   0.284  11.335 -2.0820 -1.8373  2.6873
13529TIP3   OH262001   1.849   0.006   1.582 -0.0873  0.3100 -0.0481
13529TIP3    H162002   1.934   0.045   1.604  0.5287 -1.8224  1.5916
13529TIP3    H262003   1.865  -0.088   1.582 -1.7747 -0.0948 -2.8549
13530TIP3   OH262004   2.384   5.040  13.014 -0.0208  0.1610  0.0454
13530TIP3    H162005   2.470   5.079  13.030  0.2789 -1.0856  1.6637
13530TIP3    H262006   2.403   4.960  12.965 -0.1679 -0.4795  1.0056
13531TIP3   OH262007   1.846   2.827  12.303 -0.6552  0.3914  0.1078
13531TIP3    H162008   1.862   2.761  12.236  0.0435 -1.0537  1.6418
13531TIP3    H262009   1.773   2.879  12.268 -1.6475 -1.5649 -0.8932
13532TIP3   OH262010   2.315   4.058   2.843  0.1287 -0.5015  0.1371
13532TIP3    H162011   2.341   4.052   2.751  0.1125 -3.1752  0.2185
13532TIP3    H262012   2.222   4.081   2.840 -0.0730 -1.3280 -0.5843
13533TIP3   OH262013   5.320   3.489  11.019  0.4393  0.2061 -0.5825
13533TIP3    H162014   5.271   3.409  11.038  1.7893 -0.7796 -1.0761
13533TIP3    H262015   5.259   3.543  10.968 -0.8786  0.0072  0.7365
13534TIP3   OH262016   1.894   2.075  13.776  0.3456 -0.4597 -0.0332
13534TIP3    H162017   1.918   2.148  13.832  0.7408  0.3618 -1.2301
13534TIP3    H262018   1.906   1.997  13.830  1.3645  0.2549  0.7974
13535TIP3   OH262019   1.922   5.175  11.878 -0.4923  0.0150  0.2367
13535TIP3    H162020   1.935   5.107  11.944  0.5200 -1.1557 -1.0921
13535TIP3    H262021   1.828   5.174  11.861 -0.5469 -0.7679  0.5458
13536TIP3   OH262022   6.046   0.527  13.500 -0.1329  0.0952  0.1171
13536TIP3    H162023   5.957   0.493  13.493 -0.4365  1.0254 -0.7070
13536TIP3    H262024   6.035   0.614  13.537  0.4066  0.3433 -0.3006
13537TIP3   OH262025   3.220   2.982   0.932 -0.3863  0.8621  0.1059
13537TIP3    H162026   3.285   2.956   0.997  1.4197  0.5869 -1.7187
13537TIP3    H262027   3.205   3.075   0.949  1.3285  1.2048 -0.0988
13538TIP3   OH262028   4.606   5.802  14.743 -1.0586 -0.0508 -0.5221
13538TIP3    H162029   4.544   5.826  14.675 -0.8796  1.9722 -0.0381
13538TIP3    H262030   4.552   5.777  14.818 -1.2796  0.1908 -0.6020
13539TIP3   OH262031   5.222   4.077  11.135 -0.2032  0.5973 -0.5216
13539TIP3    H162032   5.272   3.996  11.122  0.7247  0.9725  0.5315
13539TIP3    H262033   5.256   4.113  11.217 -1.0932  1.7039 -0.6151
13540TIP3   OH262034   4.232   3.839  14.084 -0.5074 -0.4975 -0.4693
13540TIP3    H162035   4.181   3.780  14.140  0.3207 -1.8962 -1.1361
13540TIP3    H262036   4.201   3.927  14.107 -1.0374 -1.1089  1.3071
13541TIP3   OH262037   1.710   2.160   5.440 -0.2981  0.1215  0.2139
13541TIP3    H162038   1.615   2.151   5.435 -0.1702 -0.6129 -1.8969
13541TIP3    H262039   1.728   2.246   5.403 -0.0508 -0.6488 -1.5831
13542TIP3   OH262040   3.784   4.087  15.013 -0.1362  0.4001 -0.0507
13542TIP3    H162041   3.716   4.152  15.030 -0.8757 -0.2074 -0.6283
13542TIP3    H262042   3.738   4.004  15.010  0.3644  0.1289 -2.0049
13543TIP3   OH262043   2.290   3.687  16.656  0.4453 -0.2576  0.4095
13543TIP3    H162044   2.196   3.701  16.669  0.2975  0.8771 -1.5350
13543TIP3    H262045   2.326   3.775  16.643  1.3555 -0.8266 -1.2161
13544TIP3   OH262046   3.768   3.567  14.315  0.2970 -0.4266  0.7127
13544TIP3    H162047   3.679   3.541  14.293  0.0541  1.6089 -1.0286
13544TIP3    H262048   3.815   3.566  14.231  0.8907  2.1151  0.9384
13545TIP3   OH262049   3.067   2.622  12.001  0.3261 -0.1244 -0.0026
13545TIP3    H162050   3.136   2.684  11.976  1.4153 -0.8887  1.0049
13545TIP3    H262051   2.988   2.657  11.961  1.0114  1.6241  0.0728
13546TIP3   OH262052   2.674   3.635  12.355 -0.3273  0.1798  0.8709
13546TIP3    H162053   2.655   3.557  12.303 -0.1014 -0.3164  1.5239
13546TIP3    H262054   2.610   3.700  12.324 -0.5718 -0.2812  0.3813
13547TIP3   OH262055   3.142   6.105   4.627  0.5461 -0.3334  0.4730
13547TIP3    H162056   3.169   6.118   4.718  0.7423  0.8356  0.2529
13547TIP3    H262057   3.177   6.180   4.580  0.6360 -1.0372 -0.6253
13548TIP3   OH262058   1.086   6.718  11.443 -0.1242  0.0138  0.0563
13548TIP3    H162059   1.082   6.662  11.520  2.1789  0.4970  0.5826
13548TIP3    H262060   1.018   6.783  11.457 -0.5623 -0.6386  1.0561
13549TIP3   OH262061   4.398   0.733   2.794 -0.1726 -0.3487 -0.1045
13549TIP3    H162062   4.438   0.810   2.837  3.9685 -1.8823 -0.7147
13549TIP3    H262063   4.407   0.751   2.700  0.9867 -1.5637 -0.2542
13550TIP3   OH262064   2.583   3.126  13.609  0.2196  0.0962 -0.5084
13550TIP3    H162065   2.583   3.080  13.524 -0.4075 -0.6704 -0.1145
13550TIP3    H262066   2.623   3.064  13.670  1.9633  1.1789 -0.4803
13551TIP3   OH262067   1.491   3.423   1.326  0.0968  0.2323  0.0964
13551TIP3    H162068   1.536   3.420   1.241  0.4813  1.1978  0.2551
13551TIP3    H262069   1.436   3.344   1.326  0.9585 -0.3934 -0.5568
13552TIP3   OH262070   6.424   3.162  13.481  0.0979  0.0123  0.2389
13552TIP3    H162071   6.520   3.163  13.488  0.2799 -0.8869 -1.4255
13552TIP3    H262072   6.402   3.247  13.444  0.0764  0.8384  2.0838
13553TIP3   OH262073   0.534   4.302   4.984 -0.0463 -0.5991  0.5736
13553TIP3    H162074   0.478   4.273   4.912  0.7831  1.3160 -0.9386
13553TIP3    H262075   0.475   4.345   5.045 -0.5036 -0.4385  0.0261
13554TIP3   OH262076   6.255   1.195  11.025  0.5470  0.0835 -0.6398
13554TIP3    H162077   6.314   1.271  11.031  1.1925 -0.4967  0.8477
13554TIP3    H262078   6.202   1.200  11.104  1.1055 -1.4211 -0.1468
13555TIP3   OH262079   6.143   1.032   1.040  0.0135 -0.0860 -0.2364
13555TIP3    H162080   6.092   1.022   1.120 -0.4735  0.6084 -0.4484
13555TIP3    H262081   6.194   0.951   1.033 -0.4004 -0.4098  0.4439
13556TIP3   OH262082   3.814   5.524  16.214 -0.5492  0.0683 -0.0436
13556TIP3    H162083   3.758   5.597  16.240 -0.8222  0.2571 -1.0995
13556TIP3    H262084   3.895   5.537  16.263 -0.1542  1.7655 -1.0537
13557TIP3   OH262085   5.037   5.777   1.585  0.4529  0.3446 -0.1352
13557TIP3    H162086   5.032   5.775   1.680 -1.0619  1.6057 -0.1450
13557TIP3    H262087   5.064   5.867   1.564 -1.6580  0.8746 -0.9036
13558TIP3   OH262088   4.633   1.731  12.417  0.0963  0.6714  0.4750
13558TIP3    H162089   4.547   1.731  12.377 -0.1847  0.2121  1.0596
13558TIP3    H262090   4.628   1.799  12.485  0.7737  1.9076 -0.6481
13559TIP3   OH262091   5.439   6.051   2.053 -0.1973  0.4345 -0.3726
13559TIP3    H162092   5.496   6.126   2.069 -0.0891  0.4438 -0.7977
13559TIP3    H262093   5.425   6.012   2.140 -0.8080  1.3456 -0.0501
13560TIP3   OH262094   4.721   2.336  11.498  0.2660 -0.0712  0.1826
13560TIP3    H162095   4.661   2.307  11.566  0.7174  0.3506  0.7702
13560TIP3    H262096   4.668   2.391  11.440  0.3829  1.4838  1.4949
13561TIP3   OH262097   1.675   1.108  12.605 -0.0191  0.5845 -0.0262
13561TIP3    H162098   1.662   1.202  12.591  1.4232  0.7544 -0.4870
13561TIP3    H262099   1.756   1.089  12.557 -0.3741 -0.9293 -0.0652
13562TIP3   OH262100   6.174   2.856  16.655 -0.2198 -1.0152 -0.6670
13562TIP3    H162101   6.165   2.807  16.737  1.9799 -0.6474 -0.1584
13562TIP3    H262102   6.089   2.900  16.645 -0.1487 -0.0381  2.1068
13563TIP3   OH262103   5.066   2.015   3.304 -0.3353 -0.2401 -0.0329
13563TIP3    H162104   5.112   1.936   3.334 -0.2450 -0.3116 -0.3661
13563TIP3    H262105   4.984   2.014   3.354 -0.9152 -1.2364 -0.9565
13564TIP3   OH262106   6.476   0.854  11.743  0.4915 -0.2277  0.4152
13564TIP3    H162107   6.415   0.780  11.740  0.4125 -0.1346 -2.2175
13564TIP3    H262108   6.563   0.814  11.749  0.3762 -0.4579  0.5549
13565TIP3   OH262109   5.023   0.303  16.272 -0.1355 -0.3095 -0.0378
13565TIP3    H162110   5.080   0.324  16.345 -0.3064 -1.3732  0.4111
13565TIP3    H262111   4.974   0.226  16.300 -0.9245 -0.1392 -0.8833
13566TIP3   OH262112   3.647   2.640  11.873 -0.2707  1.4287  0.4052
13566TIP3    H162113   3.594   2.587  11.814 -0.1532  0.0436  1.4721
13566TIP3    H262114   3.631   2.730  11.846 -2.5913  1.0311  0.2229
13567TIP3   OH262115   0.141   5.717   5.533  0.1716  0.3112 -0.2927
13567TIP3    H162116   0.190   5.759   5.603 -0.0666 -0.9569  0.6639
13567TIP3    H262117   0.205   5.707   5.462  1.1794 -0.7770  0.7164
13568TIP3   OH262118   6.652   5.232  13.086 -0.3032 -0.5581  0.0006
13568TIP3    H162119   6.597   5.192  13.019  1.9704 -1.3210 -1.5361
13568TIP3    H262120   6.712   5.162  13.112 -0.0337  0.2306  1.6035
13569TIP3   OH262121   4.780   2.684   1.551 -0.1636  0.2494 -0.2385
13569TIP3    H162122   4.712   2.668   1.617 -0.8704  0.2396 -0.9530
13569TIP3    H262123   4.755   2.767   1.511  1.5638  1.4766  1.0779
13570TIP3   OH262124   0.044   3.641  17.208  0.2692 -0.1470 -0.4634
13570TIP3    H162125  -0.034   3.593  17.237  2.3944 -2.3190  2.3476
13570TIP3    H262126   0.083   3.585  17.142  1.3633 -1.0874  0.9150
13571TIP3   OH262127   5.380   4.040   0.247 -0.0688 -0.3879 -0.0473
13571TIP3    H162128   5.375   3.964   0.189 -2.0145  0.1660 -0.6844
13571TIP3    H262129   5.414   4.110   0.192  0.0168 -0.3626  0.0380
13572TIP3   OH262130   2.505   2.793   2.998 -0.1993 -0.0214 -0.0323
13572TIP3    H162131   2.525   2.815   2.907 -0.8507  1.0443  0.0709
13572TIP3    H262132   2.573   2.730   3.023 -0.0608 -0.3730 -1.2700
13573TIP3   OH262133   0.708   4.254  14.927 -0.0212 -0.3667  0.6988
13573TIP3    H162134   0.723   4.160  14.919 -0.1116 -0.4796  1.7535
13573TIP3    H262135   0.731   4.289  14.841  1.2745 -1.1901  0.6716
13574TIP3   OH262136   2.653   6.173  12.302 -0.3369 -0.4842 -0.0644
13574TIP3    H162137   2.692   6.254  12.269 -1.8152  1.1534  1.9101
13574TIP3    H262138   2.583   6.153  12.240 -0.6435  0.3895 -0.0181
13575TIP3   OH262139   6.297   1.740  14.174 -0.1214 -0.3257  0.5744
13575TIP3    H162140   6.285   1.661  14.227 -0.1704 -0.2493  0.6757
13575TIP3    H262141   6.311   1.810  14.237  2.0139 -0.5881  0.4705
13576TIP3   OH262142   4.003   5.147  13.336 -0.2733  0.4714  0.0425
13576TIP3    H162143   4.000   5.154  13.431  0.5759 -1.0433  0.2065
13576TIP3    H262144   4.053   5.067  13.319 -1.8584 -0.2314 -1.6500
13577TIP3   OH262145   2.211   6.558   1.323 -0.5341  0.0251  0.5859
13577TIP3    H162146   2.278   6.623   1.300 -0.4474 -0.4821 -0.6642
13577TIP3    H262147   2.232   6.533   1.413 -0.2510  1.3283  0.9017
13578TIP3   OH262148   2.934   1.435   0.673 -0.5889  0.2589  0.2420
13578TIP3    H162149   2.888   1.501   0.622  0.8329  1.2444  0.2042
13578TIP3    H262150   3.027   1.456   0.664 -0.1321 -1.3257  0.8040
13579TIP3   OH262151   4.920   0.935   3.934 -0.4301 -0.0109  0.4428
13579TIP3    H162152   4.999   0.903   3.979  0.0181 -1.8016 -1.4311
13579TIP3    H262153   4.866   0.857   3.923 -2.5089  1.1944  1.6624
13580TIP3   OH262154   4.775   3.667  14.934 -0.2192  0.8195  0.6415
13580TIP3    H162155   4.787   3.628  15.021  0.6318 -0.1161  0.1323
13580TIP3    H262156   4.785   3.593  14.874 -0.6607  1.4810 -0.2641
13581TIP3   OH262157   4.336   2.594  11.578 -0.3988 -0.8262  0.3914
13581TIP3    H162158   4.286   2.676  11.572  1.1201  0.0838 -0.4134
13581TIP3    H262159   4.336   2.560  11.489  0.6692 -0.6317  0.3017
13582TIP3   OH262160   1.756   1.121   0.562 -0.2354 -0.6698  0.0145
13582TIP3    H162161   1.699   1.088   0.631  1.6340  2.4325  3.4177
13582TIP3    H262162   1.714   1.203   0.534 -0.0274 -0.9838 -1.2715
13583TIP3   OH262163   5.542   1.189  12.791  0.2353  0.2191 -0.2817
13583TIP3    H162164   5.515   1.220  12.877 -0.2691  0.4121 -0.4996
13583TIP3    H262165   5.629   1.227  12.777  0.5500 -0.2654  0.3669
13584TIP3   OH262166   0.657   5.221   1.532  0.0822  0.7266  0.2623
13584TIP3    H162167   0.717   5.213   1.607 -0.5419 -2.3289  0.5750
13584TIP3    H262168   0.696   5.289   1.477  3.0610 -0.1304  1.1422
13585TIP3   OH262169   3.384   4.530  12.996  0.0453 -0.1113 -0.3253
13585TIP3    H162170   3.469   4.528  13.039 -0.3745  0.1264  0.5551
13585TIP3    H262171   3.396   4.481  12.915  0.7319 -1.0689  0.3331
13586TIP3   OH262172   5.939   2.300   2.808 -0.2004 -0.2537 -0.4645
13586TIP3    H162173   5.982   2.215   2.801 -0.7881 -0.6175  0.1665
13586TIP3    H262174   5.963   2.346   2.728  2.7580  0.2194  0.5803
13587TIP3   OH262175   1.093   3.917   5.363  0.3624  0.5340 -0.6499
13587TIP3    H162176   1.048   3.833   5.365  0.4563  0.4715 -0.9592
13587TIP3    H262177   1.097   3.946   5.454  1.1694 -0.2497 -0.4236
13588TIP3   OH262178   5.954   5.563  12.017 -0.1590 -0.4999 -0.1208
13588TIP3    H162179   6.007   5.584  11.940  0.0346  0.0759  0.1692
13588TIP3    H262180   5.996   5.611  12.089  0.2679 -1.8150  0.5463
13589TIP3   OH262181   3.927   0.481  12.557 -0.3955  0.0193 -0.1428
13589TIP3    H162182   3.832   0.490  12.563 -0.4902 -0.0806 -1.2908
13589TIP3    H262183   3.959   0.512  12.641 -1.3499  1.3831 -0.2456
13590TIP3   OH262184   2.492   5.020  14.993 -0.3386 -0.2088  0.8621
13590TIP3    H162185   2.533   4.965  15.060 -0.4585 -1.3184  0.0469
13590TIP3    H262186   2.401   4.991  14.990 -0.5860  0.5361  0.9160
13591TIP3   OH262187   5.392   0.348  13.406  0.7073 -0.4535 -0.3385
13591TIP3    H162188   5.416   0.324  13.317 -2.1641 -1.4075 -0.9736
13591TIP3    H262189   5.297   0.363  13.402  0.9114  2.4421  1.9496
13592TIP3   OH262190   3.008   0.742  10.884  0.2558 -0.3463 -0.0408
13592TIP3    H162191   3.008   0.778  10.973  1.2309  2.0619 -0.9302
13592TIP3    H262192   3.099   0.752  10.854 -0.2105 -0.4353 -1.5741
13593TIP3   OH262193   5.119   1.998  15.431  1.1084  0.0482 -0.0859
13593TIP3    H162194   5.115   1.930  15.498  0.0784  0.5244  0.3606
13593TIP3    H262195   5.089   2.078  15.476 -3.7578 -0.3382 -1.9513
13594TIP3   OH262196   1.566   1.229   4.511 -0.0922  0.0415  0.2488
13594TIP3    H162197   1.531   1.318   4.508 -2.5655 -0.8848 -0.9140
13594TIP3    H262198   1.504   1.180   4.564  1.0432 -1.0977  0.5867
13595TIP3   OH262199   1.384   0.534   0.974 -0.2430 -0.6950 -0.3549
13595TIP3    H162200   1.358   0.622   1.001 -1.0399 -1.1885  0.5297
13595TIP3    H262201   1.444   0.548   0.901 -0.6569  0.5680 -0.4687
13596TIP3   OH262202   3.298   1.185  15.452  0.2629  0.7291 -0.4079
13596TIP3    H162203   3.248   1.158  15.375  1.9671 -1.1751 -0.9616
13596TIP3    H262204   3.234   1.189  15.523 -0.6385 -2.6168 -0.8464
13597TIP3   OH262205   5.020   5.715  13.769 -0.1202  0.0594 -0.0899
13597TIP3    H162206   5.053   5.626  13.783  2.9122  1.1399  0.4324
13597TIP3    H262207   5.047   5.736  13.679  0.6753  0.9855  0.3501
13598TIP3   OH262208   2.648   5.254  13.160 -0.3672 -0.2071 -0.5347
13598TIP3    H162209   2.649   5.184  13.094 -0.0204 -1.1885  0.4729
13598TIP3    H262210   2.727   5.305  13.142 -0.1694 -0.5877 -0.7631
13599TIP3   OH262211   5.488   4.271   2.849  0.1150  0.3196 -0.0695
13599TIP3    H162212   5.512   4.183   2.879  0.1227  0.9001  1.6848
13599TIP3    H262213   5.544   4.286   2.773  0.9590 -0.7242  0.3213
13600TIP3   OH262214   4.591   2.596  15.657 -0.5486 -0.1232  0.4957
13600TIP3    H162215   4.547   2.527  15.606 -0.4368 -0.4163  0.7882
13600TIP3    H262216   4.537   2.604  15.736  0.4053 -1.1255  1.2858
13601TIP3   OH262217   2.727   4.951   0.792 -0.4438  0.1578  0.6097
13601TIP3    H162218   2.686   5.010   0.855  0.8073  1.0755  0.6020
13601TIP3    H262219   2.700   4.984   0.707 -0.7918 -0.0739  0.6288
13602TIP3   OH262220   5.805   1.170   0.593  0.7587  0.4452 -0.1904
13602TIP3    H162221   5.732   1.200   0.647  0.4922 -0.0289 -0.2807
13602TIP3    H262222   5.882   1.214   0.629  0.5077  0.5268  0.2498
13603TIP3   OH262223   4.837   6.190  11.650 -0.8874  0.1192 -0.1266
13603TIP3    H162224   4.845   6.145  11.566  0.1267 -1.4444  0.7791
13603TIP3    H262225   4.757   6.154  11.689 -1.6875  1.2744 -0.6328
13604TIP3   OH262226   6.131   3.627  14.155  0.6105 -0.4705  0.1230
13604TIP3    H162227   6.153   3.694  14.220  0.5956  0.2871 -0.6322
13604TIP3    H262228   6.060   3.666  14.104  1.7342 -0.3487 -1.4105
13605TIP3   OH262229   3.847   0.555   5.761  0.0366 -0.3437  0.0854
13605TIP3    H162230   3.782   0.623   5.778  0.5193  0.2062 -0.2330
13605TIP3    H262231   3.881   0.532   5.847 -2.5319 -2.6459  0.6042
13606TIP3   OH262232   5.901   0.292  16.591 -0.0690 -0.4335 -0.4397
13606TIP3    H162233   5.987   0.276  16.553 -0.8352  0.2823 -2.6201
13606TIP3    H262234   5.914   0.282  16.685  2.0001 -2.0245 -0.8291
13607TIP3   OH262235   1.299   4.924  15.937  0.6095  0.3424  0.4636
13607TIP3    H162236   1.259   4.841  15.961  0.8247 -0.1347 -0.7595
13607TIP3    H262237   1.226   4.985  15.928  0.4902  0.4278  1.8399
13608TIP3   OH262238   0.400   0.908   3.066  0.2667  0.7276 -0.9017
13608TIP3    H162239   0.368   0.991   3.031 -0.9473  0.3516 -0.7078
13608TIP3    H262240   0.494   0.910   3.049  0.0002  1.3862 -2.4548
13609TIP3   OH262241   3.207   5.398   3.187  0.2335  0.1205  0.1105
13609TIP3    H162242   3.245   5.348   3.258 -2.2757 -1.6902  0.3178
13609TIP3    H262243   3.270   5.390   3.115  2.0886  0.7111  1.6182
13610TIP3   OH262244   0.634   2.282   1.960  0.0496  0.5740  0.0984
13610TIP3    H162245   0.568   2.351   1.958  1.2122  1.7363  0.4032
13610TIP3    H262246   0.608   2.225   2.032 -2.2846 -0.7509 -1.6719
13611TIP3   OH262247   0.026   5.003  14.317 -0.2874 -0.1010 -0.1751
13611TIP3    H162248  -0.002   5.049  14.396  2.1713 -2.1139  2.0969
13611TIP3    H262249   0.044   5.072  14.254 -1.8961  1.6407  1.1548
13612TIP3   OH262250   0.643   6.340   3.718 -0.4282 -0.1086 -0.2300
13612TIP3    H162251   0.551   6.364   3.708 -0.3062 -0.3093 -2.5334
13612TIP3    H262252   0.648   6.294   3.801 -2.0070  1.6424  0.8934
13613TIP3   OH262253   2.492   3.163  14.230  0.9226 -0.1199  0.5423
13613TIP3    H162254   2.479   3.097  14.299 -1.7730  0.8352  1.0600
13613TIP3    H262255   2.432   3.137  14.161 -0.7417  2.0907  1.0493
13614TIP3   OH262256   0.643   1.396   0.468 -0.4001  0.0372  0.0575
13614TIP3    H162257   0.588   1.433   0.399 -1.0696  0.2825  0.7242
13614TIP3    H262258   0.723   1.449   0.465 -0.1678 -0.3308 -0.9167
13615TIP3   OH262259   3.601   0.657   1.377 -0.4686 -0.1223  0.4470
13615TIP3    H162260   3.552   0.726   1.332  3.2832  2.3762 -0.2342
13615TIP3    H262261   3.564   0.656   1.466 -2.6437  0.5167 -0.3751
13616TIP3   OH262262   1.502   0.994   5.813 -0.1811  0.1294 -0.1038
13616TIP3    H162263   1.556   1.005   5.891 -0.8450 -1.1602  0.5752
13616TIP3    H262264   1.437   1.064   5.818 -0.4166 -0.1449  0.6713
13617TIP3   OH262265   2.273   2.043  10.905  0.4280 -0.2097 -0.6296
13617TIP3    H162266   2.230   2.123  10.876  0.9030 -0.7825 -3.1451
13617TIP3    H262267   2.366   2.059  10.892  0.7459 -0.3398  1.1940
13618TIP3   OH262268   6.579   6.490   5.695  0.1073  0.2354  0.1109
13618TIP3    H162269   6.533   6.558   5.744 -2.9123 -2.1271  0.8229
13618TIP3    H262270   6.576   6.413   5.752  0.7915 -1.3165 -1.8453
13619TIP3   OH262271   0.048   0.370  13.458  0.1115  0.0201  0.0352
13619TIP3    H162272   0.019   0.311  13.528  0.2549  1.8820  1.7651
13619TIP3    H262273   0.019   0.327  13.377  0.6417 -2.6187  1.1274
13620TIP3   OH262274   1.542   6.553  12.707 -0.6035 -0.5731  0.7144
13620TIP3    H162275   1.456   6.580  12.675  0.9199 -0.4634 -4.2388
13620TIP3    H262276   1.550   6.462  12.678  0.7468 -0.7696  1.6133
13621TIP3   OH262277   1.435   2.317  12.641 -0.3280 -0.0873  0.5339
13621TIP3    H162278   1.437   2.368  12.722 -0.4697 -0.8653  1.0363
13621TIP3    H262279   1.451   2.382  12.571 -3.1005  1.1260  0.8957
13622TIP3   OH262280   6.630   4.980   3.119 -0.2050 -0.0971 -0.5831
13622TIP3    H162281   6.715   4.988   3.074  0.8486  0.3574  1.3902
13622TIP3    H262282   6.651   4.991   3.212 -2.3229 -0.8490  0.0360
13623TIP3   OH262283   3.753   6.562  12.341 -0.1634 -0.3396 -0.3789
13623TIP3    H162284   3.791   6.616  12.411  1.2057  1.5250 -2.4154
13623TIP3    H262285   3.769   6.472  12.368 -1.5253  0.2015  2.6350
13624TIP3   OH262286   6.450   3.338  12.471 -0.1635 -0.0843  0.0584
13624TIP3    H162287   6.416   3.248  12.466  2.1339 -1.2760  2.7863
13624TIP3    H262288   6.395   3.381  12.536  0.0035 -0.1974  0.2771
13625TIP3   OH262289   4.529   3.662   3.621  0.3249 -0.6599  0.4385
13625TIP3    H162290   4.444   3.647   3.580  0.3751 -0.7724  0.3746
13625TIP3    H262291   4.590   3.608   3.570  0.7959  1.0066 -0.8516
13626TIP3   OH262292   6.586   1.273   0.756 -0.5627 -0.0708  0.1496
13626TIP3    H162293   6.557   1.316   0.675 -1.2633  0.4054  0.6351
13626TIP3    H262294   6.521   1.205   0.771  0.7271 -1.5802 -0.7961
13627TIP3   OH262295   4.293   6.549  12.335 -0.8972  0.3417 -0.5865
13627TIP3    H162296   4.341   6.625  12.304  1.5291 -0.7987  0.1759
13627TIP3    H262297   4.311   6.545  12.429 -2.6070 -0.0787 -0.2434
13628TIP3   OH262298   6.309   0.557   0.549 -0.1413 -0.3277 -0.1388
13628TIP3    H162299   6.305   0.624   0.617  0.3195 -1.5337  1.1470
13628TIP3    H262300   6.227   0.566   0.501 -0.2840  0.8484  0.2811
13629TIP3   OH262301   1.573   0.412  17.287 -0.4294 -0.1100  0.3492
13629TIP3    H162302   1.602   0.404  17.378 -0.4826  1.8883  0.5939
13629TIP3    H262303   1.481   0.437  17.293  0.1200  2.2512 -0.1275
13630TIP3   OH262304   4.985   3.277  15.483  0.0409  0.3115 -0.1917
13630TIP3    H162305   4.953   3.287  15.573 -2.7141 -1.1719 -0.8921
13630TIP3    H262306   5.000   3.182  15.473  2.3997  0.6747 -0.7174
13631TIP3   OH262307   5.359   2.809  14.908 -0.5911  0.1893  0.0819
13631TIP3    H162308   5.304   2.821  14.985  0.9674 -1.2383  1.5012
13631TIP3    H262309   5.378   2.715  14.906  1.2142  0.5288 -0.7182
13632TIP3   OH262310   1.985   5.116   0.276 -0.8054  0.4891 -0.2798
13632TIP3    H162311   1.924   5.153   0.340  0.8361 -0.7222  2.1379
13632TIP3    H262312   1.984   5.022   0.294 -0.6181  0.0193 -2.4182
13633TIP3   OH262313   1.930   0.522   0.808 -0.1384 -0.1595 -0.0435
13633TIP3    H162314   1.850   0.476   0.833 -0.1761  0.0098  0.1574
13633TIP3    H262315   1.970   0.468   0.740  0.7866 -1.4771  1.4913
13634TIP3   OH262316   4.481   3.627  17.110 -0.4581 -0.0086  0.4571
13634TIP3    H162317   4.478   3.704  17.054 -0.6213 -0.4535 -0.1530
13634TIP3    H262318   4.423   3.564  17.068  1.2586 -1.2193 -0.2097
13635TIP3   OH262319   5.790   5.316  15.589  0.1661  0.0332 -0.5213
13635TIP3    H162320   5.702   5.293  15.560  0.5418 -2.3920  0.0610
13635TIP3    H262321   5.778   5.349  15.678 -0.3491  1.8666 -1.2309
13636TIP3   OH262322   2.759   6.613  15.021  0.1292 -0.4953 -0.5190
13636TIP3    H162323   2.786   6.590  14.932  2.1575  0.1281 -0.1250
13636TIP3    H262324   2.693   6.682  15.009 -0.9394 -1.6505 -1.5367
13637TIP3   OH262325   4.241   5.528   5.552  0.5046 -0.4748  0.1481
13637TIP3    H162326   4.316   5.474   5.525  1.2876  0.7951 -0.3093
13637TIP3    H262327   4.276   5.587   5.618  0.0514  0.5040 -0.4632
13638TIP3   OH262328   1.024   4.991   1.764  0.3838  0.0603  0.1000
13638TIP3    H162329   1.038   4.920   1.827  0.2221  0.0572  0.1339
13638TIP3    H262330   1.015   5.070   1.817 -1.3882 -0.1745  0.2061
13639TIP3   OH262331   1.864   6.225  15.683 -0.3569  0.3843  0.3044
13639TIP3    H162332   1.793   6.241  15.745 -1.1782 -1.3528 -0.1272
13639TIP3    H262333   1.823   6.227  15.597  0.2799  0.2536 -0.0133
13640TIP3   OH262334   3.855   5.286  13.567  0.2658 -0.5394 -0.5554
13640TIP3    H162335   3.857   5.202  13.613 -1.1943 -0.2323  0.1210
13640TIP3    H262336   3.918   5.340  13.615 -0.5049 -0.5405  0.4904
13641TIP3   OH262337   5.305   4.017  15.606  0.1449  0.0174  0.3953
13641TIP3    H162338   5.247   3.948  15.576  1.3025  0.0186 -2.1241
13641TIP3    H262339   5.254   4.067  15.670 -1.1554 -2.3287  1.3093
13642TIP3   OH262340   2.798   6.510   3.541 -0.1924 -0.5060  0.1039
13642TIP3    H162341   2.843   6.456   3.606 -1.9984 -2.1624  0.0569
13642TIP3    H262342   2.737   6.450   3.497 -2.4489  1.5592  0.1719
13643TIP3   OH262343   1.598   2.681   1.358  0.1623  0.6100 -0.3362
13643TIP3    H162344   1.596   2.755   1.419 -1.3884  0.7715 -0.5364
13643TIP3    H262345   1.554   2.714   1.280  0.9650 -0.0137 -1.0715
13644TIP3   OH262346   0.034   3.783  12.618  0.1959 -0.0809 -0.2930
13644TIP3    H162347   0.069   3.741  12.696 -0.2375 -0.3514 -0.2383
13644TIP3    H262348  -0.018   3.715  12.576  2.8340 -0.9100 -2.4656
13645TIP3   OH262349   6.485   0.998  11.511 -0.2088  0.4710  0.7522
13645TIP3    H162350   6.472   0.930  11.577 -0.6995  0.1116  0.2956
13645TIP3    H262351   6.446   1.076  11.550 -0.9019  0.1526  0.7029
13646TIP3   OH262352   2.780   5.452  15.104  0.2536  0.3501  0.1265
13646TIP3    H162353   2.705   5.395  15.083  0.0978  0.5849  0.0458
13646TIP3    H262354   2.796   5.437  15.197  0.0876  0.3213  0.1511
13647TIP3   OH262355   4.081   3.944  15.168 -0.5710  0.0102  0.2602
13647TIP3    H162356   4.025   3.967  15.093 -0.0758 -0.9645 -0.4339
13647TIP3    H262357   4.154   4.005  15.163  0.3224 -1.1172 -1.0847
13648TIP3   OH262358   1.860   2.920  13.770  0.4279 -0.1361 -0.3303
13648TIP3    H162359   1.894   2.950  13.685  0.1759  1.1544  0.0021
13648TIP3    H262360   1.935   2.923  13.829  0.4678 -0.4639 -0.3601
13649TIP3   OH262361   0.393   1.831  16.318 -0.6023 -0.0719  0.0305
13649TIP3    H162362   0.433   1.907  16.276 -1.8392  0.6503  0.1078
13649TIP3    H262363   0.340   1.791  16.249 -1.4576  0.2481  0.5020
13650TIP3   OH262364   3.033   5.716   5.195 -0.5399  0.2249  0.1130
13650TIP3    H162365   3.109   5.659   5.182 -0.2143  0.2148  1.7746
13650TIP3    H262366   2.960   5.667   5.159 -0.0126 -0.5142  0.0170
13651TIP3   OH262367   2.384   3.021   3.507  0.1387 -0.1744 -0.5305
13651TIP3    H162368   2.351   3.061   3.426 -1.0337 -2.0241 -1.0230
13651TIP3    H262369   2.425   2.940   3.479  0.5350 -0.4109  0.6623
13652TIP3   OH262370   2.310   6.003   0.992 -0.0057  0.0186 -0.1925
13652TIP3    H162371   2.283   6.046   0.911  0.4892  0.4084 -0.1574
13652TIP3    H262372   2.351   6.073   1.043  0.9695 -0.5251 -0.2086
13653TIP3   OH262373   1.104   6.207  17.330 -0.1922 -0.2568  0.7063
13653TIP3    H162374   1.173   6.200  17.396 -0.3201  0.0217  0.8759
13653TIP3    H262375   1.023   6.217  17.381 -0.1264  1.5259  0.5257
13654TIP3   OH262376   4.843   6.385   5.084 -0.0220  0.2105 -0.0774
13654TIP3    H162377   4.766   6.329   5.092  1.8598 -2.6655 -0.5492
13654TIP3    H262378   4.874   6.372   4.994  1.5553  0.5460  0.3840
13655TIP3   OH262379   3.326   6.350   5.496 -0.5515  0.2956  0.2127
13655TIP3    H162380   3.346   6.388   5.582 -1.0989 -0.8479  0.8700
13655TIP3    H262381   3.380   6.271   5.492 -0.5572  0.3210 -0.4860
13656TIP3   OH262382   6.112   0.300  16.418 -0.3701  0.1285 -0.2108
13656TIP3    H162383   6.089   0.355  16.344 -1.7125 -1.2307 -0.8836
13656TIP3    H262384   6.205   0.281  16.407 -0.3116  0.8077 -0.9456
13657TIP3   OH262385   5.206   2.212  12.451 -0.4952 -0.0825  0.7550
13657TIP3    H162386   5.168   2.297  12.473 -0.1568  0.2974 -0.0865
13657TIP3    H262387   5.231   2.174  12.536 -2.1518 -0.0731  1.2838
13658TIP3   OH262388   3.416   3.961   0.455 -0.4813 -0.0153  0.3964
13658TIP3    H162389   3.336   4.006   0.431 -0.2264  0.3004  0.1297
13658TIP3    H262390   3.486   4.021   0.428 -0.1367 -0.6322 -0.0999
13659TIP3   OH262391   4.150   3.877   3.922 -0.3123 -0.3161 -0.1201
13659TIP3    H162392   4.185   3.794   3.889 -0.5072 -0.2532 -0.4949
13659TIP3    H262393   4.112   3.919   3.845  1.6262  1.0969 -0.3806
13660TIP3   OH262394   4.810   1.579  15.988 -0.0112 -0.0151  0.0631
13660TIP3    H162395   4.765   1.559  16.070  0.3429 -0.6643  0.0981
13660TIP3    H262396   4.758   1.650  15.949 -0.6522 -0.2705  0.4485
13661TIP3   OH262397   4.874   4.394  15.626  0.1469  0.1972 -0.4076
13661TIP3    H162398   4.847   4.307  15.656 -1.3627  1.1909  1.2904
13661TIP3    H262399   4.944   4.377  15.563 -0.1894 -2.2429 -0.2084
13662TIP3   OH262400   1.255   4.701   0.164 -0.0468  0.7146 -0.6200
13662TIP3    H162401   1.326   4.751   0.124  1.0718 -0.5395 -0.2876
13662TIP3    H262402   1.193   4.686   0.093  0.7740  0.5102 -1.3063
13663TIP3   OH262403   0.789   3.303   2.942  0.1161  0.1030  0.2507
13663TIP3    H162404   0.868   3.274   2.986 -0.1592  0.7383  1.1991
13663TIP3    H262405   0.784   3.397   2.959 -1.6793 -0.1798  1.6388
13664TIP3   OH262406   1.699   2.963  12.140 -0.2798  0.5526 -0.1968
13664TIP3    H162407   1.661   3.050  12.125  0.7270  1.0618  0.1135
13664TIP3    H262408   1.765   2.954  12.072 -1.5701 -0.7412 -1.3559
13665TIP3   OH262409   4.314   1.117   4.399 -0.0083 -0.1341 -0.9614
13665TIP3    H162410   4.399   1.121   4.442  0.6634 -1.7894 -2.0454
13665TIP3    H262411   4.292   1.024   4.397 -1.5409  0.2005 -1.3136
13666TIP3   OH262412   1.615   3.626   4.709 -0.2603  0.3474 -0.3020
13666TIP3    H162413   1.600   3.717   4.682  2.2635  1.0529  0.4004
13666TIP3    H262414   1.593   3.625   4.802 -1.4517 -0.1111 -0.5688
13667TIP3   OH262415   3.608   1.363  13.116  0.4339 -0.4154  0.1298
13667TIP3    H162416   3.597   1.449  13.155  0.9160 -0.5806  0.6409
13667TIP3    H262417   3.682   1.373  13.056  1.5889 -0.8692  1.4287
13668TIP3   OH262418   5.797   1.123   5.455  1.1412 -0.2376  0.5419
13668TIP3    H162419   5.770   1.115   5.547  0.4524 -0.3901  0.3293
13668TIP3    H262420   5.749   1.199   5.423 -1.8714 -2.4861 -0.8061
13669TIP3   OH262421   6.154   5.417  13.025 -0.3001  0.0741  0.8771
13669TIP3    H162422   6.119   5.486  12.968 -0.2381 -1.0348 -0.5721
13669TIP3    H262423   6.249   5.424  13.016 -0.3027 -1.3177 -0.7604
13670TIP3   OH262424   4.188   1.019   5.113  0.1261  0.4534  0.1013
13670TIP3    H162425   4.206   0.925   5.105 -2.0908  0.0211 -0.6778
13670TIP3    H262426   4.273   1.059   5.125  1.2837 -1.5244 -0.9532
13671TIP3   OH262427   5.924   2.734  17.326  0.1041  0.6431 -0.5088
13671TIP3    H162428   6.019   2.734  17.334  0.0374  1.8074  0.7846
13671TIP3    H262429   5.893   2.778  17.405 -1.4843  0.8668 -1.2020
13672TIP3   OH262430   3.245   5.007   3.036 -0.3659  0.4736  0.4785
13672TIP3    H162431   3.312   5.075   3.035 -0.9126  1.0268  0.4904
13672TIP3    H262432   3.163   5.054   3.054 -1.0074  0.0336 -1.0896
13673TIP3   OH262433   1.746   6.584   5.990 -0.2682  0.0024  0.0694
13673TIP3    H162434   1.831   6.612   5.957  0.0651 -1.9649 -0.9115
13673TIP3    H262435   1.756   6.585   6.086  0.6973  0.2737 -0.0272
13674TIP3   OH262436   2.596   1.632  15.250 -0.3202  0.8151 -0.6380
13674TIP3    H162437   2.634   1.693  15.314 -0.1104  0.3004 -0.2606
13674TIP3    H262438   2.626   1.664  15.165  0.5964  0.6809 -0.3779
13675TIP3   OH262439   3.608   1.164   5.222  0.1092  0.4069  0.4896
13675TIP3    H162440   3.548   1.113   5.277 -0.6747  0.8564  0.0707
13675TIP3    H262441   3.550   1.211   5.162  0.9495 -0.4801 -1.0891
13676TIP3   OH262442   0.179   4.663   0.279  0.5547 -0.3776  0.3353
13676TIP3    H162443   0.164   4.671   0.373 -0.0996  0.1943  0.1882
13676TIP3    H262444   0.093   4.676   0.240  0.5973 -1.8099 -0.2927
13677TIP3   OH262445   1.872   5.157  15.898  0.5723 -0.1781  0.4069
13677TIP3    H162446   1.860   5.065  15.875 -0.8807  0.3868 -1.2700
13677TIP3    H262447   1.797   5.179  15.952  1.7739 -0.3557  2.2465
13678TIP3   OH262448   4.479   0.327  15.059 -0.1138 -0.0907  0.4088
13678TIP3    H162449   4.492   0.421  15.076 -1.8094  0.4600 -1.0728
13678TIP3    H262450   4.538   0.308  14.986  0.2409 -0.2094  0.7185
13679TIP3   OH262451   5.436   2.805   4.548 -0.0081  0.4788 -0.2362
13679TIP3    H162452   5.399   2.778   4.464  0.6019  0.1125 -0.3928
13679TIP3    H262453   5.378   2.765   4.613 -1.4603  2.1112 -0.4487
13680TIP3   OH262454   2.235   1.260   3.339 -0.7961  0.5103 -0.0024
13680TIP3    H162455   2.277   1.310   3.409 -1.9470  1.4559  0.0333
13680TIP3    H262456   2.286   1.282   3.261 -0.1180  0.2208  0.3418
13681TIP3   OH262457   2.217   3.696  15.042  0.5345 -0.7532  0.1166
13681TIP3    H162458   2.140   3.719  15.095  0.3578 -1.7249  0.2982
13681TIP3    H262459   2.186   3.627  14.983  0.6967  0.3973 -1.3603
13682TIP3   OH262460   2.565   2.615   0.959 -0.1678  0.2430  0.0379
13682TIP3    H162461   2.630   2.546   0.974  0.3875  0.1863 -2.1883
13682TIP3    H262462   2.616   2.696   0.956 -0.4386  0.4120 -0.0098
13683TIP3   OH262463   4.508   4.383   0.040  0.6537  0.0340  0.3382
13683TIP3    H162464   4.451   4.388  -0.037 -1.0720 -0.2433  1.5328
13683TIP3    H262465   4.524   4.474   0.064 -0.4182  0.1257  0.7614
13684TIP3   OH262466   3.506   2.722   1.505 -0.6841  0.1211  0.3232
13684TIP3    H162467   3.573   2.653   1.506  0.4026  1.1107  2.4752
13684TIP3    H262468   3.539   2.785   1.441 -0.6812 -0.3859 -0.1940
13685TIP3   OH262469   2.625   5.610   5.077  0.0445 -0.1631 -0.0850
13685TIP3    H162470   2.615   5.558   5.157  0.9628 -0.4221 -0.1276
13685TIP3    H262471   2.557   5.578   5.019  1.3745 -2.2548 -0.5982
13686TIP3   OH262472   4.316   1.936   1.878 -0.4693 -0.1768  0.1765
13686TIP3    H162473   4.260   1.902   1.809 -1.6300  2.1590 -0.1329
13686TIP3    H262474   4.398   1.959   1.834 -0.7989  0.2513 -0.2286
13687TIP3   OH262475   6.310   0.847  14.525 -0.6765  0.1084 -0.4749
13687TIP3    H162476   6.364   0.780  14.481  0.2461  0.2593  0.3961
13687TIP3    H262477   6.231   0.800  14.550  1.3906 -1.7810  3.3799
13688TIP3   OH262478   2.882   5.716   6.113  0.1836  0.1462  0.0110
13688TIP3    H162479   2.877   5.765   6.195 -0.6186  1.1491 -0.6170
13688TIP3    H262480   2.934   5.638   6.135  1.1565  1.0663  1.1251
13689TIP3   OH262481   2.470   2.650  17.162  0.1156  0.2012  0.3590
13689TIP3    H162482   2.472   2.681  17.072  0.3097  0.8859  0.5976
13689TIP3    H262483   2.438   2.724  17.213  0.4378 -0.0309  0.9123
13690TIP3   OH262484   3.641   5.544  17.304 -0.0609  0.7805  0.6311
13690TIP3    H162485   3.598   5.468  17.343  0.9880 -0.6245 -0.8284
13690TIP3    H262486   3.731   5.515  17.288 -0.2105  1.5331 -1.9840
13691TIP3   OH262487   4.926   3.194  14.162 -0.5171 -0.3326  0.1630
13691TIP3    H162488   4.958   3.270  14.210 -0.5863 -0.3500  0.2353
13691TIP3    H262489   5.005   3.142  14.146 -0.7394 -1.2333  1.8375
13692TIP3   OH262490   5.492   3.646  11.560  0.3760 -0.0152  0.4963
13692TIP3    H162491   5.576   3.603  11.576  0.8424  0.2525 -1.0597
13692TIP3    H262492   5.431   3.575  11.543  1.1492 -0.1470 -2.0943
13693TIP3   OH262493   4.412   2.222  14.121 -0.4530 -0.0968  0.0168
13693TIP3    H162494   4.433   2.167  14.045  0.8268  0.2326  0.0981
13693TIP3    H262495   4.322   2.250  14.106 -0.6665 -1.1167 -0.7076
13694TIP3   OH262496   5.043   5.435  15.886  0.1041 -0.8975  0.0947
13694TIP3    H162497   5.039   5.513  15.941  0.2543 -0.7742 -0.0684
13694TIP3    H262498   5.058   5.468  15.797 -0.5024 -1.0751 -0.0807
13695TIP3   OH262499   2.604   5.850   6.039  0.5581  0.2303 -0.3671
13695TIP3    H162500   2.654   5.856   6.121  1.2102  2.4619 -0.8609
13695TIP3    H262501   2.515   5.832   6.067  0.9590 -0.1050  0.7753
13696TIP3   OH262502   5.162   3.721  16.543 -0.1842  0.1737  0.2770
13696TIP3    H162503   5.253   3.748  16.539  0.4924 -2.0442 -0.8585
13696TIP3    H262504   5.138   3.728  16.636  0.2017  3.4471  0.2211
13697TIP3   OH262505   4.703   5.826   3.406 -0.0870 -0.5832  0.0875
13697TIP3    H162506   4.693   5.906   3.354 -1.7634 -1.1573 -0.5378
13697TIP3    H262507   4.730   5.857   3.493 -1.0810  0.6980 -0.0409
13698TIP3   OH262508   3.391   5.154  12.314  0.2367 -0.1806 -0.3095
13698TIP3    H162509   3.322   5.111  12.263 -2.1502  3.0195 -0.1346
13698TIP3    H262510   3.473   5.121  12.278 -1.3417 -2.9647 -1.6736
13699TIP3   OH262511   4.268   4.075  11.112 -0.2390 -0.1859 -0.1897
13699TIP3    H162512   4.266   4.087  11.207 -0.3358  1.5062 -0.3804
13699TIP3    H262513   4.300   4.158  11.078 -0.6620 -0.6047 -1.6730
13700TIP3   OH262514   5.394   4.704  12.232  0.1035  0.4465 -0.2351
13700TIP3    H162515   5.487   4.710  12.250  0.1670  2.5335 -0.9322
13700TIP3    H262516   5.359   4.790  12.257 -1.5978 -0.2230 -0.1755
13701TIP3   OH262517   4.729   2.211  13.343  0.0707 -0.6489 -0.7485
13701TIP3    H162518   4.825   2.215  13.343  0.0524  2.1851 -0.5399
13701TIP3    H262519   4.707   2.163  13.422  1.3599  0.4547  0.3339
13702TIP3   OH262520   4.965   2.492   1.237  0.1691  0.7400 -0.3302
13702TIP3    H162521   4.956   2.429   1.165  1.5948  1.4686 -1.2086
13702TIP3    H262522   5.058   2.517   1.235 -0.3081  2.7153  0.0938
13703TIP3   OH262523   0.201   2.405  16.068  0.0639  0.2115  0.4930
13703TIP3    H162524   0.252   2.459  16.007  2.2971 -1.2281  0.9611
13703TIP3    H262525   0.259   2.392  16.142 -0.8598 -1.8210  0.9246
13704TIP3   OH262526   0.128   5.265   0.057  0.2454 -0.2194  0.1346
13704TIP3    H162527   0.162   5.320  -0.013 -1.0754  0.7039  0.1879
13704TIP3    H262528   0.144   5.175   0.028 -0.9653  0.1268 -1.7205
13705TIP3   OH262529   4.649   4.603   3.247 -0.6915 -0.0881  0.0735
13705TIP3    H162530   4.558   4.631   3.235 -0.3430  0.2947 -1.9756
13705TIP3    H262531   4.696   4.684   3.269 -0.8531 -0.3322  1.4280
13706TIP3   OH262532   2.417   2.237  12.433  0.1670 -0.0158  0.3228
13706TIP3    H162533   2.495   2.206  12.480 -0.0526 -0.6372  0.2863
13706TIP3    H262534   2.451   2.304  12.373  0.6716 -0.2426  0.3431
13707TIP3   OH262535   2.432   5.524  16.552 -0.3561  0.3047  0.3472
13707TIP3    H162536   2.425   5.496  16.461 -0.4930  0.4373  0.3166
13707TIP3    H262537   2.410   5.617  16.550  1.2403  0.7106  0.2782
13708TIP3   OH262538   4.919   3.645   6.115  0.3684 -0.0505  0.4199
13708TIP3    H162539   4.964   3.705   6.174  0.6382  0.7222 -0.5420
13708TIP3    H262540   4.967   3.562   6.124  1.4794  0.5264  0.0439
13709TIP3   OH262541   6.502   5.125  12.877  0.2885 -0.1860  0.0204
13709TIP3    H162542   6.418   5.093  12.843 -0.7682  0.3440  2.0320
13709TIP3    H262543   6.529   5.193  12.814 -0.3865 -0.8676 -1.0404
13710TIP3   OH262544   4.356   4.673  11.660  0.5045  0.2792 -0.4347
13710TIP3    H162545   4.438   4.698  11.617  0.0095  2.9386  0.0055
13710TIP3    H262546   4.301   4.751  11.656 -0.9635 -0.5331  1.7414
13711TIP3   OH262547   1.930   5.060   1.825 -0.3305 -0.4299 -0.0922
13711TIP3    H162548   1.846   5.018   1.842 -0.1956 -1.4240 -1.6519
13711TIP3    H262549   1.989   4.987   1.803  0.3571  0.4226 -1.1995
13712TIP3   OH262550   3.557   1.155   2.064 -0.1224  0.2249  0.9043
13712TIP3    H162551   3.604   1.152   1.981 -1.2032  0.4902  0.2711
13712TIP3    H262552   3.567   1.067   2.101  1.0050  0.3319  0.8673
13713TIP3   OH262553   2.554   5.972  11.790  0.2082  0.7025  0.5568
13713TIP3    H162554   2.609   5.909  11.837  0.0698  0.7871  0.8349
13713TIP3    H262555   2.547   5.937  11.701 -0.8076 -0.2718  1.0032
13714TIP3   OH262556   4.697   1.636  13.069 -0.0087  0.7951 -0.4494
13714TIP3    H162557   4.740   1.578  13.131  0.8152  1.6964 -0.1451
13714TIP3    H262558   4.751   1.632  12.990 -1.2812 -0.6658 -1.2912
13715TIP3   OH262559   2.444   0.150   5.153  0.2737 -0.0285  0.2069
13715TIP3    H162560   2.460   0.133   5.246 -0.6042  1.4546  0.6613
13715TIP3    H262561   2.428   0.244   5.148 -3.2113 -0.5259 -0.8956
13716TIP3   OH262562   6.074   5.210   3.615 -0.2148  0.4256  0.4772
13716TIP3    H162563   5.992   5.197   3.567 -0.9889  1.3580  1.4925
13716TIP3    H262564   6.142   5.197   3.549 -1.2096  0.8462 -0.6831
13717TIP3   OH262565   4.585   1.203   6.295 -0.1691 -0.3169 -0.4822
13717TIP3    H162566   4.646   1.230   6.226  1.4162 -0.8195  0.6704
13717TIP3    H262567   4.609   1.113   6.315 -0.2199 -0.0089  1.0941
13718TIP3   OH262568   0.913   1.801   6.569  0.4641 -0.0052  0.3489
13718TIP3    H162569   0.932   1.826   6.659  0.1969 -0.5424  0.5559
13718TIP3    H262570   0.833   1.749   6.574 -0.0842  0.7448 -0.3174
13719TIP3   OH262571   2.055   0.472   3.941 -0.4001 -0.2090 -0.2925
13719TIP3    H162572   1.999   0.547   3.960  2.2557  1.8275  0.0031
13719TIP3    H262573   2.088   0.444   4.026  0.6890  0.0184 -0.6258
13720TIP3   OH262574   6.369   4.137  15.877  0.1587 -0.0227  0.0190
13720TIP3    H162575   6.361   4.178  15.790  0.0151 -1.2253 -0.5556
13720TIP3    H262576   6.376   4.044  15.859 -0.8968 -0.3901  1.3526
13721TIP3   OH262577   1.273   4.805   1.841 -0.0155  0.4195 -0.0087
13721TIP3    H162578   1.342   4.869   1.862 -0.2124  0.9911 -1.0200
13721TIP3    H262579   1.192   4.848   1.869 -0.1342  0.5585 -0.5614
13722TIP3   OH262580   5.062   2.343  16.441  0.3014 -0.0916  0.4257
13722TIP3    H162581   5.136   2.330  16.382  0.6825  0.0472  0.8658
13722TIP3    H262582   4.985   2.320  16.389  0.6215  0.1753 -0.1668
13723TIP3   OH262583   3.035   6.360   1.001 -0.0366 -1.0965  0.3005
13723TIP3    H162584   2.951   6.378   1.043  0.5266 -0.5962  1.2350
13723TIP3    H262585   3.081   6.303   1.063  1.9597  1.9314  1.8432
13724TIP3   OH262586   6.551   1.374  13.311  0.4065  0.1289  0.4897
13724TIP3    H162587   6.554   1.462  13.350 -0.2932 -0.3827  1.7670
13724TIP3    H262588   6.641   1.342  13.317  0.1873 -0.2577  2.5644
13725TIP3   OH262589   1.246   2.829   3.120 -0.6645  0.0801 -0.1567
13725TIP3    H162590   1.163   2.834   3.168 -0.3252 -0.5986  0.5287
13725TIP3    H262591   1.224   2.787   3.037 -1.3555  1.7265 -0.8695
13726TIP3   OH262592   2.111   4.134  11.052  0.2419 -0.1891 -0.1353
13726TIP3    H162593   2.109   4.072  10.979 -0.7995  0.0495 -0.3236
13726TIP3    H262594   2.096   4.081  11.130  1.1617 -0.4170 -0.1027
13727TIP3   OH262595   3.795   5.259  13.205 -0.1005 -0.4877  0.3116
13727TIP3    H162596   3.873   5.234  13.255  0.8638 -2.6321 -2.0741
13727TIP3    H262597   3.761   5.177  13.170 -1.4045  0.7761 -1.5903
13728TIP3   OH262598   4.940   1.536   4.413  0.1645  0.6250  0.1619
13728TIP3    H162599   4.942   1.559   4.506 -0.8413  2.1317 -0.1408
13728TIP3    H262600   4.927   1.620   4.368  0.0466 -0.1414 -1.3028
13729TIP3   OH262601   3.591   6.180   4.103 -0.0559 -0.6917  0.4087
13729TIP3    H162602   3.613   6.130   4.023  0.2777 -0.9911  0.6837
13729TIP3    H262603   3.498   6.162   4.116  0.0057 -1.0640  0.3743
13730TIP3   OH262604   5.976   1.813  17.151  0.4939  0.4748  0.0007
13730TIP3    H162605   5.939   1.772  17.073 -0.4098  1.8717 -0.3319
13730TIP3    H262606   5.984   1.906  17.128  2.3515  0.5548  0.7770
13731TIP3   OH262607   2.348   4.725  15.849 -0.1745 -0.1445 -0.0783
13731TIP3    H162608   2.398   4.692  15.774 -1.0827  2.9659 -2.2765
13731TIP3    H262609   2.409   4.723  15.922  1.6797 -0.7115 -1.5647
13732TIP3   OH262610   0.263   0.065  14.430 -0.6216 -0.1096  0.3971
13732TIP3    H162611   0.241   0.091  14.520  2.3835  1.6291  0.7853
13732TIP3    H262612   0.349   0.022  14.438  0.6015  1.7103 -1.7665
13733TIP3   OH262613   2.305   5.307   4.283  0.2581 -0.6423 -0.0675
13733TIP3    H162614   2.340   5.381   4.234  1.8558 -1.9679 -1.0326
13733TIP3    H262615   2.283   5.343   4.368  1.3322  0.8727 -0.3874
13734TIP3   OH262616   1.871   4.325   5.612 -0.4823 -0.8410  0.0732
13734TIP3    H162617   1.946   4.311   5.669 -1.6280 -0.6962  1.6873
13734TIP3    H262618   1.865   4.420   5.603 -1.4192 -0.7512  1.3388
13735TIP3   OH262619   5.990   3.928   0.743 -0.3853  0.0124  0.4620
13735TIP3    H162620   5.989   3.936   0.648 -0.4946 -1.0058  0.3650
13735TIP3    H262621   5.963   4.014   0.775  0.2986  0.5717 -0.4055
13736TIP3   OH262622   5.596   1.863  15.930 -0.3689 -0.1502  0.2324
13736TIP3    H162623   5.614   1.770  15.942 -3.2064 -0.5625  2.4689
13736TIP3    H262624   5.503   1.867  15.909 -0.2523  2.1992 -0.1341
13737TIP3   OH262625   5.787   2.987  11.304  0.3212 -0.4467 -0.1096
13737TIP3    H162626   5.725   2.990  11.377 -0.2981 -1.0925 -0.5953
13737TIP3    H262627   5.818   3.077  11.296 -0.9998  0.0236 -0.2230
13738TIP3   OH262628   0.878   5.695  10.497  0.2995 -0.1518  0.6550
13738TIP3    H162629   0.960   5.696  10.546  1.3037 -1.8125 -0.8833
13738TIP3    H262630   0.829   5.771  10.530  2.6046  1.1099  1.3336
13739TIP3   OH262631   1.202   5.919   3.071  0.0498  0.5095 -0.1209
13739TIP3    H162632   1.286   5.963   3.085  0.0983  0.4082 -0.0929
13739TIP3    H262633   1.225   5.827   3.061 -0.0261  0.5263 -0.4457
13740TIP3   OH262634   3.637   1.952  14.041 -0.0147  0.0809  0.3743
13740TIP3    H162635   3.634   1.869  14.089  1.3025 -0.2256 -0.0200
13740TIP3    H262636   3.628   2.018  14.109  1.1916 -0.3644  1.0118
13741TIP3   OH262637   0.404   6.177   4.761 -0.1300  0.0055 -0.2488
13741TIP3    H162638   0.336   6.219   4.814  0.0020 -0.1129  0.0139
13741TIP3    H262639   0.486   6.195   4.808 -0.0642 -0.4803 -0.1782
13742TIP3   OH262640   1.088   2.672  14.697 -0.1012  0.6721 -0.0339
13742TIP3    H162641   1.164   2.672  14.755 -0.6275  1.8051  0.7076
13742TIP3    H262642   1.065   2.765  14.689 -1.5515  0.3342 -0.0402
13743TIP3   OH262643   6.616   1.443   0.517  0.7023 -0.0666 -0.3794
13743TIP3    H162644   6.688   1.507   0.517  0.4461  0.3154  2.3889
13743TIP3    H262645   6.537   1.497   0.517  0.4806 -0.2487  2.8619
13744TIP3   OH262646   0.742   6.557  11.391  0.1505 -0.5905 -0.3126
13744TIP3    H162647   0.648   6.556  11.409  0.1634  1.0339  0.0777
13744TIP3    H262648   0.749   6.592  11.302  0.3839 -0.6146 -0.3042
13745TIP3   OH262649   0.571   4.034  17.281  0.1465 -0.2659 -0.2812
13745TIP3    H162650   0.556   4.048  17.374 -3.1827 -1.2597 -0.5340
13745TIP3    H262651   0.645   3.973  17.277  2.5331  2.2515  1.4545
13746TIP3   OH262652   1.581   5.962  12.391 -0.1436  0.1250 -0.5830
13746TIP3    H162653   1.602   6.055  12.398 -2.5664  0.7141 -0.3684
13746TIP3    H262654   1.499   5.959  12.342  0.1622 -1.9551 -1.0736
13747TIP3   OH262655   6.128   0.285   6.152 -0.5874 -0.6526  0.3717
13747TIP3    H162656   6.133   0.370   6.195 -3.0358 -0.6801  0.8532
13747TIP3    H262657   6.199   0.234   6.190  2.8780  1.9238 -1.9926
13748TIP3   OH262658   2.790   3.035   2.151 -0.2231  0.0179  0.0691
13748TIP3    H162659   2.794   3.118   2.103 -0.1334  0.7112  1.2244
13748TIP3    H262660   2.736   3.055   2.228 -1.8006 -1.5048 -0.5653
13749TIP3   OH262661   3.218   3.498   4.787  0.0453  0.3103  0.7414
13749TIP3    H162662   3.271   3.521   4.711 -0.9432  2.1660  0.5623
13749TIP3    H262663   3.274   3.439   4.838  2.0721  1.7521  0.3008
13750TIP3   OH262664   3.584   5.479   0.595  0.1008  0.3915  0.7691
13750TIP3    H162665   3.568   5.453   0.504 -0.8579 -0.6155  1.2014
13750TIP3    H262666   3.662   5.534   0.590  1.8002 -1.9286 -0.3450
13751TIP3   OH262667   1.619   5.852   2.483 -0.1254  0.3348  0.2034
13751TIP3    H162668   1.626   5.943   2.453 -2.3975  0.0986 -1.2744
13751TIP3    H262669   1.633   5.800   2.404 -0.4242 -0.5391  0.7164
13752TIP3   OH262670   4.430   0.039   0.325  0.3676  0.3403  0.3154
13752TIP3    H162671   4.451   0.132   0.326  0.5690  0.3084 -0.4382
13752TIP3    H262672   4.334   0.036   0.329 -0.0807  0.7983 -4.4191
13753TIP3   OH262673   5.636   1.567  12.171 -0.1826  0.4517 -0.3286
13753TIP3    H162674   5.610   1.608  12.254 -0.7183  2.7707 -1.5582
13753TIP3    H262675   5.728   1.541  12.185 -0.4162  0.3151  1.1358
13754TIP3   OH262676   0.686   0.074   0.720 -0.2862  0.0866  0.4309
13754TIP3    H162677   0.655  -0.009   0.757  0.2214 -0.1990  0.2332
13754TIP3    H262678   0.606   0.122   0.699 -0.5881 -0.3331  0.5995
13755TIP3   OH262679   0.355   4.928  13.804  0.0478 -0.0574 -0.4934
13755TIP3    H162680   0.383   4.905  13.892 -1.5384 -0.6807 -0.1286
13755TIP3    H262681   0.407   5.005  13.782  3.3313 -2.0551 -0.5566
13756TIP3   OH262682   1.973   4.180  12.035  0.1507  0.1267 -0.6785
13756TIP3    H162683   1.878   4.184  12.049 -0.0635 -1.7949 -1.2927
13756TIP3    H262684   1.987   4.230  11.955 -0.4745 -0.2403 -1.0276
13757TIP3   OH262685   0.027   6.582  16.969 -0.4610 -0.0667  0.2166
13757TIP3    H162686   0.032   6.565  17.063  1.0367  0.5344  0.2741
13757TIP3    H262687   0.117   6.599  16.943 -1.1649  2.6741 -0.7663
13758TIP3   OH262688   2.556   4.442  14.332  0.0061 -0.3563  0.3233
13758TIP3    H162689   2.616   4.371  14.309  1.4372  0.9557 -0.2325
13758TIP3    H262690   2.612   4.520  14.337 -1.5279  0.7839  0.6965
13759TIP3   OH262691   4.551   3.849  12.065 -0.8837  0.2488 -0.5846
13759TIP3    H162692   4.587   3.929  12.029  0.6587 -0.5953 -0.9834
13759TIP3    H262693   4.461   3.845  12.031 -0.8868  1.6467 -0.7735
13760TIP3   OH262694   0.357   3.226  11.942 -0.2418  0.1616  0.3262
13760TIP3    H162695   0.405   3.259  12.018 -0.5469  0.4718  0.3840
13760TIP3    H262696   0.303   3.300  11.913  0.1209  0.1530 -0.3945
13761TIP3   OH262697   2.971   6.162  11.750  0.5135  0.4470 -0.2143
13761TIP3    H162698   3.012   6.111  11.820  2.5281  2.3287  0.0849
13761TIP3    H262699   2.885   6.185  11.784 -0.0170 -1.7558  0.0700
13762TIP3   OH262700   1.848   0.063   5.013  0.2454 -0.2994  0.0666
13762TIP3    H162701   1.941   0.047   4.995  0.0044 -1.2262 -0.4081
13762TIP3    H262702   1.845   0.081   5.107  1.0545  0.9935 -0.1217
13763TIP3   OH262703   2.947   0.030  15.167  0.1046  0.0588  0.1686
13763TIP3    H162704   2.914  -0.043  15.115 -1.4167  0.6341  0.2833
13763TIP3    H262705   2.990   0.087  15.102 -0.4491  0.0301 -0.2319
13764TIP3   OH262706   6.576   2.864   4.996 -0.2003 -0.0353 -0.2160
13764TIP3    H162707   6.541   2.797   4.937 -0.5155 -0.0258 -0.0487
13764TIP3    H262708   6.659   2.891   4.957 -0.1437 -0.4174 -0.3649
13765TIP3   OH262709   4.849   1.573  11.558 -0.5005  0.0417  0.5517
13765TIP3    H162710   4.915   1.634  11.592  0.1767 -0.3622 -0.0145
13765TIP3    H262711   4.843   1.504  11.624  1.2030 -1.0229 -0.3566
13766TIP3   OH262712   4.432   4.987  12.317 -0.0045 -0.3523 -0.2211
13766TIP3    H162713   4.439   4.949  12.230  1.4569 -1.6247  0.4154
13766TIP3    H262714   4.363   4.936  12.360 -0.4465  0.0143 -0.4830
13767TIP3   OH262715   4.578   3.134  10.989  0.7622  0.6440  0.1794
13767TIP3    H162716   4.587   3.087  11.071 -1.2695 -1.0310 -0.4807
13767TIP3    H262717   4.664   3.125  10.946  1.1789 -0.2948  1.1629
13768TIP3   OH262718   3.132   1.303  13.514  0.0817 -0.3027  0.3579
13768TIP3    H162719   3.224   1.279  13.523 -0.7382 -3.7737  1.0865
13768TIP3    H262720   3.120   1.319  13.421  1.3074 -0.3519  0.1790
13769TIP3   OH262721   3.957   0.162   4.444 -0.4878 -0.3724 -0.2580
13769TIP3    H162722   3.976   0.069   4.452  0.9748  0.0312  1.7364
13769TIP3    H262723   3.898   0.180   4.518 -0.6589  0.3001 -0.5525
13770TIP3   OH262724   3.872   3.189   5.682  0.2116 -0.2937 -0.6792
13770TIP3    H162725   3.966   3.177   5.696  0.7141  2.6343 -0.7455
13770TIP3    H262726   3.865   3.208   5.588 -0.4677 -0.7002 -0.7079
13771TIP3   OH262727   2.017   5.700  16.018 -0.3436  0.1586  0.4944
13771TIP3    H162728   1.999   5.780  15.968 -1.1925 -0.0964  0.3849
13771TIP3    H262729   2.111   5.684  16.004 -0.2487  0.9137  0.2023
13772TIP3   OH262730   6.587   5.383   1.684  0.2294 -0.3346  0.0068
13772TIP3    H162731   6.644   5.458   1.667 -0.7097  1.0492  2.5110
13772TIP3    H262732   6.644   5.319   1.728 -0.0653  1.1921  2.8536
13773TIP3   OH262733   4.079   5.239  15.326 -0.9146  0.3126  0.8998
13773TIP3    H162734   4.160   5.189  15.336 -0.3883  1.0403  0.3877
13773TIP3    H262735   4.092   5.289  15.246 -1.3648  1.3633  1.4640
13774TIP3   OH262736   1.418   3.436  11.633  0.5819 -0.1443  0.7130
13774TIP3    H162737   1.380   3.402  11.714  2.6101 -1.1152  1.3292
13774TIP3    H262738   1.513   3.426  11.645  0.9331 -1.1139 -2.1081
13775TIP3   OH262739   4.438   3.782   0.208  0.1958 -0.0028  0.1511
13775TIP3    H162740   4.502   3.741   0.149  1.5020  2.8930 -0.6195
13775TIP3    H262741   4.353   3.765   0.167  0.7790 -0.8812 -0.7332
13776TIP3   OH262742   1.531   2.847  11.839 -0.4002 -0.4215 -0.2596
13776TIP3    H162743   1.517   2.925  11.892 -0.1816 -0.2728 -0.4169
13776TIP3    H262744   1.466   2.784  11.871 -0.9298  0.0032 -0.4963
13777TIP3   OH262745   2.636   2.451   2.175 -0.3936 -0.1389  1.2919
13777TIP3    H162746   2.621   2.365   2.136 -0.9304  0.7992 -0.7014
13777TIP3    H262747   2.731   2.459   2.181 -0.3270 -0.5990  0.8634
13778TIP3   OH262748   3.451   3.524   3.904 -0.1781  0.1628  0.2522
13778TIP3    H162749   3.524   3.499   3.961 -1.1687 -0.4396  1.3048
13778TIP3    H262750   3.460   3.619   3.894  0.9380  0.0547  0.0688
13779TIP3   OH262751   4.319   5.693  16.518  0.2558  0.8660 -0.4187
13779TIP3    H162752   4.380   5.758  16.553 -0.4429  1.7463 -0.7899
13779TIP3    H262753   4.316   5.624  16.585  0.9523  1.2466  0.0164
13780TIP3   OH262754   0.077   5.344   0.580  0.5364 -0.2388  0.1267
13780TIP3    H162755   0.070   5.316   0.489  2.1841 -0.7515  0.1310
13780TIP3    H262756   0.041   5.433   0.580  1.4741  0.1654 -1.2376
13781TIP3   OH262757   2.031   0.093   6.702  0.7076 -0.0925  0.2001
13781TIP3    H162758   1.947   0.096   6.656  1.1843 -1.8647 -0.8701
13781TIP3    H262759   2.039   0.180   6.743 -1.6061  0.1389  0.3111
13782TIP3   OH262760   3.727   0.491   1.178  0.7144  0.2617  0.2131
13782TIP3    H162761   3.720   0.546   1.099  1.3049 -0.0766 -0.0876
13782TIP3    H262762   3.666   0.530   1.240  2.7110  2.6815  0.8457
13783TIP3   OH262763   5.343   4.104   6.043 -0.3585  0.6005 -0.4553
13783TIP3    H162764   5.436   4.108   6.021 -0.3729 -0.5113 -0.7567
13783TIP3    H262765   5.323   4.011   6.046 -1.4539  0.8303 -0.3384
13784TIP3   OH262766   6.499   0.028   1.235  0.0659  0.4667 -0.2486
13784TIP3    H162767   6.422  -0.020   1.205  1.7718 -0.4885 -3.5542
13784TIP3    H262768   6.472   0.120   1.232 -1.0532  0.1436 -1.0268
13785TIP3   OH262769   2.086   6.310   3.193 -0.1793  0.2119 -0.6808
13785TIP3    H162770   2.015   6.312   3.257 -0.0656  1.7589 -0.5844
13785TIP3    H262771   2.069   6.385   3.136  0.5333 -0.3020 -1.5958
13786TIP3   OH262772   4.381   6.301  16.364 -0.2121 -0.2462  0.5858
13786TIP3    H162773   4.357   6.362  16.435  0.5151  1.2271 -0.3802
13786TIP3    H262774   4.316   6.231  16.370 -1.9616  1.3171  0.8682
13787TIP3   OH262775   3.843   5.408   4.037  0.3851  0.6877  0.9972
13787TIP3    H162776   3.902   5.456   4.095 -2.0930  2.3765  2.3166
13787TIP3    H262777   3.878   5.423   3.949  1.9849  1.4514  1.7223
13788TIP3   OH262778   3.755   4.319   1.021  0.5175 -0.6257  0.3090
13788TIP3    H162779   3.714   4.241   1.057 -0.0707  0.3550  1.8802
13788TIP3    H262780   3.792   4.364   1.097 -0.2120  1.2277 -0.3666
13789TIP3   OH262781   3.641   6.174  16.144 -0.0281 -0.0244  0.3752
13789TIP3    H162782   3.674   6.242  16.203 -0.3271  1.4332 -1.0469
13789TIP3    H262783   3.657   6.092  16.190  2.7777  0.7915  1.0651
13790TIP3   OH262784   5.088   3.781   0.895  0.3211 -0.4622  0.3615
13790TIP3    H162785   5.166   3.732   0.870 -0.6230 -1.3862 -0.9221
13790TIP3    H262786   5.057   3.737   0.974  0.8769 -0.3361  0.6546
13791TIP3   OH262787   6.506   1.751   4.111  0.4894  0.4336 -0.0694
13791TIP3    H162788   6.561   1.710   4.043 -1.3940 -0.9487 -0.8610
13791TIP3    H262789   6.492   1.840   4.079 -1.2046 -0.4781 -2.1478
13792TIP3   OH262790   5.825   1.960   2.626 -0.1322  0.1997  0.4792
13792TIP3    H162791   5.765   1.985   2.696  1.0083  1.7070  0.9676
13792TIP3    H262792   5.912   1.967   2.665  0.4470 -0.4390 -0.6518
13793TIP3   OH262793   3.166   1.590   4.290  0.1056 -0.6275  0.1423
13793TIP3    H162794   3.161   1.636   4.373 -1.1257 -2.0975  0.9307
13793TIP3    H262795   3.075   1.576   4.264  0.4298 -2.2841 -0.2339
13794TIP3   OH262796   3.453   3.511  12.797  0.2003  0.3486  0.1370
13794TIP3    H162797   3.487   3.596  12.825  1.2193 -0.4722  1.4921
13794TIP3    H262798   3.422   3.526  12.707  2.7997  1.5170 -0.6539
13795TIP3   OH262799   5.447   1.498   2.648  0.5315 -0.4076 -0.3623
13795TIP3    H162800   5.360   1.481   2.613  0.0598  0.0030  0.5855
13795TIP3    H262801   5.449   1.453   2.732  0.4714  1.2734  0.5972
13796TIP3   OH262802   5.789   5.588   3.967 -0.0956 -0.1211 -0.3392
13796TIP3    H162803   5.800   5.682   3.983  0.3273 -0.1368 -0.5022
13796TIP3    H262804   5.872   5.549   3.996 -0.3885 -0.4823  0.0202
13797TIP3   OH262805   5.834   5.439   4.701 -0.0246  0.6238  0.0216
13797TIP3    H162806   5.929   5.430   4.708  0.3323  2.2441 -1.9002
13797TIP3    H262807   5.799   5.380   4.768  2.3555  2.2543  2.9622
13798TIP3   OH262808   1.782   3.479   2.638  0.2543  0.1372 -0.1571
13798TIP3    H162809   1.851   3.517   2.584  0.7686 -0.8065 -0.1995
13798TIP3    H262810   1.781   3.533   2.718 -0.4938  1.5148 -1.0652
13799TIP3   OH262811   3.847   3.454   5.448 -0.2306  0.2629 -0.1308
13799TIP3    H162812   3.754   3.433   5.459 -0.2837  0.6002  0.0608
13799TIP3    H262813   3.854   3.546   5.471  0.2719  0.0710  0.4990
13800TIP3   OH262814   6.065   4.838   5.192  0.1619  0.6305 -0.7765
13800TIP3    H162815   6.159   4.847   5.210 -0.1471 -1.3931  2.9355
13800TIP3    H262816   6.023   4.902   5.249 -0.7446 -0.1156 -0.5648
13801TIP3   OH262817   4.217   3.007   1.066 -0.1025 -0.1632 -0.2545
13801TIP3    H162818   4.210   2.933   1.126 -1.4167  0.9103  1.0148
13801TIP3    H262819   4.277   2.978   0.998  0.7991 -1.7447  1.1472
13802TIP3   OH262820   2.997   2.249   5.206  0.2401  0.1453  0.6273
13802TIP3    H162821   2.951   2.189   5.147  0.2152 -1.2960  2.0414
13802TIP3    H262822   3.075   2.201   5.233  1.9780  2.0546 -0.7233
13803TIP3   OH262823   6.481   3.992   5.662  0.3212  0.1067 -0.4445
13803TIP3    H162824   6.536   4.010   5.585 -1.4279 -0.6447 -1.9547
13803TIP3    H262825   6.443   4.077   5.685 -1.7778 -0.1220 -2.6174
13804TIP3   OH262826   6.542   4.898  14.667  1.1090  0.4048  0.7286
13804TIP3    H162827   6.632   4.873  14.646  0.9036  0.4754 -0.2657
13804TIP3    H262828   6.488   4.846  14.608  0.4509 -0.1174  1.7620
13805TIP3   OH262829   3.833   3.201   3.686 -1.2099  0.0190 -0.0657
13805TIP3    H162830   3.754   3.254   3.675 -1.0601  0.3740  0.5291
13805TIP3    H262831   3.854   3.171   3.598 -0.5276  2.0801 -0.6709
13806TIP3   OH262832   5.920   4.558   3.151  0.1848  0.3086 -0.0294
13806TIP3    H162833   5.972   4.600   3.082  0.7655  0.9080  0.7604
13806TIP3    H262834   5.835   4.542   3.110  0.7042  0.1039 -1.0710
13807TIP3   OH262835   3.204   2.053   5.223  0.1699 -0.0049 -0.3698
13807TIP3    H162836   3.291   2.078   5.254  0.1343 -0.4207  0.0839
13807TIP3    H262837   3.183   1.974   5.273  0.2457 -0.9021 -1.7173
13808TIP3   OH262838   4.719   5.495   4.404  0.0236 -0.4510  0.0702
13808TIP3    H162839   4.708   5.447   4.485  1.3305 -0.0290  0.5259
13808TIP3    H262840   4.737   5.429   4.338 -1.1346 -0.8028  0.0732
13809TIP3   OH262841   1.971   6.061   2.954  0.4630 -0.0032  0.5771
13809TIP3    H162842   1.992   6.147   2.918 -0.9465  0.9221  1.8056
13809TIP3    H262843   2.054   6.015   2.959  1.1909  1.1555 -0.4507
13810TIP3   OH262844   0.898   4.085   0.262 -0.4622 -0.3604 -0.1311
13810TIP3    H162845   0.896   4.167   0.311  0.9451  0.5114 -1.4142
13810TIP3    H262846   0.893   4.112   0.170  0.6477 -1.6514 -0.6110
13811TIP3   OH262847   3.929   1.280   1.182  0.0823 -0.5611 -0.7733
13811TIP3    H162848   3.927   1.232   1.100 -1.7280 -2.2118  0.1483
13811TIP3    H262849   3.873   1.229   1.241 -1.1322  2.1294  0.5876
13812TIP3   OH262850   5.950   0.838   4.803  0.0126 -0.5597 -0.1509
13812TIP3    H162851   6.028   0.786   4.785  1.0502  1.4681 -1.9754
13812TIP3    H262852   5.982   0.915   4.850 -0.8094  0.4453 -1.1689
13813TIP3   OH262853   2.553   3.857   1.255 -0.0756 -0.7622 -0.0376
13813TIP3    H162854   2.529   3.950   1.249  1.7639 -0.2133  0.7060
13813TIP3    H262855   2.555   3.828   1.164  1.1362  0.4302 -0.4256
13814TIP3   OH262856   0.300   5.878  14.490 -0.5249  0.4626  0.0298
13814TIP3    H162857   0.383   5.872  14.538  0.5646 -2.4046 -1.9673
13814TIP3    H262858   0.262   5.961  14.519  2.5764  1.4520  1.7133
13815TIP3   OH262859   4.114   1.447  16.391 -0.2400 -0.1930  0.2253
13815TIP3    H162860   4.202   1.446  16.428 -0.0200 -1.9610 -0.2512
13815TIP3    H262861   4.069   1.518  16.438  0.6146 -1.0227  2.4476
13816TIP3   OH262862   3.341   2.273   3.028 -0.0335  0.2713  0.3321
13816TIP3    H162863   3.340   2.206   3.097 -0.1566 -0.0772 -0.0072
13816TIP3    H262864   3.250   2.284   3.003  0.1444 -0.8063 -0.9209
13817TIP3   OH262865   6.196   2.575  11.373  0.1577 -0.6099 -0.5315
13817TIP3    H162866   6.130   2.633  11.411  1.3323  0.7693 -0.4808
13817TIP3    H262867   6.146   2.507  11.328 -1.2803 -0.9157  1.3908
13818TIP3   OH262868   3.656   1.930  14.998  0.2402  0.2481  0.3364
13818TIP3    H162869   3.630   2.005  15.050  0.2390  0.3078  0.2505
13818TIP3    H262870   3.611   1.942  14.914  0.9797  0.6426 -0.0103
13819TIP3   OH262871   4.161   0.380  15.598 -0.6580  0.0581  0.3182
13819TIP3    H162872   4.212   0.306  15.630  0.5829 -0.6253 -2.8976
13819TIP3    H262873   4.079   0.341  15.567 -1.5534  0.6077  1.8842
13820TIP3   OH262874   4.033   3.211   3.081 -0.2107  0.0174 -0.5368
13820TIP3    H162875   3.960   3.270   3.060  0.0444  0.4908 -0.1322
13820TIP3    H262876   4.102   3.235   3.019 -0.6156 -0.8613 -1.3327
13821TIP3   OH262877   4.510   3.911  16.031 -0.0330  0.1098  0.1857
13821TIP3    H162878   4.600   3.899  16.062 -0.5731 -1.1652  1.4191
13821TIP3    H262879   4.481   3.993  16.071 -0.0145 -0.4485  1.4133
13822TIP3   OH262880   0.885   4.086  13.994  0.6779  0.5656  0.2378
13822TIP3    H162881   0.877   4.160  14.053 -1.3940  0.5664  0.0568
13822TIP3    H262882   0.843   4.013  14.041 -1.2048  0.6171 -1.2114
13823TIP3   OH262883   6.362   5.771  10.695 -0.2303 -0.4132  0.6261
13823TIP3    H162884   6.385   5.679  10.707 -0.4168 -0.4346  0.8094
13823TIP3    H262885   6.338   5.802  10.782 -1.1470 -0.4518  0.3912
13824TIP3   OH262886   2.971   1.390  12.886  0.6524 -0.0429  0.6098
13824TIP3    H162887   2.891   1.372  12.836  0.2821 -0.2364  1.2554
13824TIP3    H262888   2.949   1.468  12.938  1.8500  1.6792 -1.3012
13825TIP3   OH262889   6.185   4.010  13.075 -0.3034 -0.2690 -0.3536
13825TIP3    H162890   6.200   4.084  13.017  0.7743 -0.6868 -0.6172
13825TIP3    H262891   6.271   3.970  13.087 -0.6254 -0.6169  0.9606
13826TIP3   OH262892   0.430   6.173   0.231  0.0781  0.3369  0.4831
13826TIP3    H162893   0.378   6.099   0.198  0.2575 -0.0182  0.9903
13826TIP3    H262894   0.447   6.226   0.153  1.9303 -1.3435 -0.3456
13827TIP3   OH262895   1.162   5.812   2.469  0.0959  0.1379  0.0975
13827TIP3    H162896   1.102   5.886   2.466  2.1885  1.9420  0.0039
13827TIP3    H262897   1.220   5.832   2.543  1.8067 -0.4588 -1.0093
13828TIP3   OH262898   2.404   5.376  10.745  0.2670 -0.1606 -0.5685
13828TIP3    H162899   2.340   5.401  10.812  0.8801  0.0408 -0.0549
13828TIP3    H262900   2.351   5.362  10.667 -0.2932  1.1338 -0.4547
13829TIP3   OH262901   2.092   2.089   5.069  0.2071  1.1429 -0.0396
13829TIP3    H162902   2.112   2.176   5.103  0.6553  0.9206  0.2783
13829TIP3    H262903   2.068   2.104   4.978  1.6385  1.4558 -0.3921
13830TIP3   OH262904   6.699   6.409  15.868  0.1131  0.2476  0.8984
13830TIP3    H162905   6.656   6.422  15.783 -1.8332 -0.9408  1.6536
13830TIP3    H262906   6.777   6.464  15.863 -0.1446  0.5123 -1.5131
13831TIP3   OH262907   2.485   0.072  13.300 -0.0686  0.7982 -0.1080
13831TIP3    H162908   2.425   0.031  13.362 -0.5566  0.9255 -0.4844
13831TIP3    H262909   2.549   0.004  13.279  0.0444  0.7243  0.4557
13832TIP3   OH262910   2.805   0.238  13.964 -0.4427 -0.9716 -0.1184
13832TIP3    H162911   2.847   0.165  13.918 -0.1455  0.3983 -2.1405
13832TIP3    H262912   2.713   0.215  13.968  0.0377 -2.9162  2.2425
13833TIP3   OH262913   3.047   5.040   6.268 -0.1604 -0.6489 -0.3455
13833TIP3    H162914   3.066   5.043   6.174 -0.9688  1.8138 -0.4952
13833TIP3    H262915   3.133   5.039   6.310  0.2209 -2.4502 -1.0478
13834TIP3   OH262916   1.567   4.840   4.916 -0.1585 -0.0596  0.4717
13834TIP3    H162917   1.478   4.809   4.897 -1.2117  2.8352  0.2831
13834TIP3    H262918   1.613   4.832   4.833 -0.0661 -1.8869  0.6428
13835TIP3   OH262919   3.399   0.950  12.339 -0.7401  0.3365 -0.4084
13835TIP3    H162920   3.369   0.874  12.388  0.2422 -0.2374 -0.6621
13835TIP3    H262921   3.489   0.964  12.369 -0.7686  1.1491 -0.6666
13836TIP3   OH262922   6.397   0.238   3.674  0.2802 -0.3492 -0.1836
13836TIP3    H162923   6.396   0.213   3.767  1.8527  1.1345  0.2882
13836TIP3    H262924   6.309   0.270   3.657 -0.3519 -1.6568  0.4773
13837TIP3   OH262925   3.311   5.353  12.510 -0.2940 -0.3842 -0.1663
13837TIP3    H162926   3.400   5.353  12.545  0.7564 -0.3432 -2.5836
13837TIP3    H262927   3.314   5.290  12.437 -1.9014  0.5024 -1.0772
13838TIP3   OH262928   6.460   2.169  16.767 -0.4441  0.0161 -0.7680
13838TIP3    H162929   6.471   2.078  16.737 -0.4904  0.0215 -0.8028
13838TIP3    H262930   6.540   2.188  16.815 -1.5197 -0.9489  1.5846
13839TIP3   OH262931   3.399   0.207  10.550  0.6088 -0.5304  0.6501
13839TIP3    H162932   3.319   0.160  10.577 -2.2638  3.4068 -0.1649
13839TIP3    H262933   3.410   0.183  10.457 -0.5714 -0.0082  0.3528
13840TIP3   OH262934   1.743   4.351   6.034  0.3594 -0.6733 -0.5240
13840TIP3    H162935   1.754   4.264   5.995 -2.1125  0.1828 -3.6002
13840TIP3    H262936   1.747   4.336   6.128  1.4252 -3.8600 -0.9655
13841TIP3   OH262937   6.054   1.716   0.059 -0.6251 -0.3861  0.3907
13841TIP3    H162938   5.972   1.750   0.095 -0.5190  1.3491 -0.8645
13841TIP3    H262939   6.048   1.733  -0.035  0.7761 -1.1151  0.1344
13842TIP3   OH262940   5.920   1.206  13.717 -0.0264 -0.1280 -0.2219
13842TIP3    H162941   5.977   1.262  13.768 -0.6481  1.4320 -1.1573
13842TIP3    H262942   5.848   1.264  13.689 -1.6214 -1.8008  0.2022
13843TIP3   OH262943   4.183   5.087  14.031 -0.0421  0.1656 -0.1705
13843TIP3    H162944   4.107   5.109  14.085  0.8368  1.9687  0.3847
13843TIP3    H262945   4.257   5.089  14.092  0.9925  2.3850 -1.4136
13844TIP3   OH262946   5.221   3.290  15.753 -0.1687  0.2635 -0.1363
13844TIP3    H162947   5.260   3.378  15.756  0.6970  0.1561 -3.7464
13844TIP3    H262948   5.296   3.231  15.755 -0.7106 -0.4281  1.4422
13845TIP3   OH262949   4.205   3.396  15.952  0.3832 -0.1503  0.2647
13845TIP3    H162950   4.182   3.488  15.947 -0.7449 -0.4062  0.6382
13845TIP3    H262951   4.187   3.362  15.864 -1.7251 -0.5738  0.8192
13846TIP3   OH262952   6.631   6.510  15.349 -0.3578  0.2851  0.2015
13846TIP3    H162953   6.624   6.489  15.442 -0.1450  1.4553  0.4916
13846TIP3    H262954   6.541   6.527  15.321 -0.4582 -0.3632  0.1097
13847TIP3   OH262955   0.559   5.405   1.989 -0.2534 -0.3096  0.0222
13847TIP3    H162956   0.464   5.401   1.995 -0.2947 -0.2135 -0.4991
13847TIP3    H262957   0.591   5.368   2.071 -0.7281 -1.4228 -0.2822
13848TIP3   OH262958   6.222   0.167   3.323 -0.2939  0.1269 -0.0075
13848TIP3    H162959   6.135   0.203   3.306 -0.2715  0.1537 -0.0639
13848TIP3    H262960   6.205   0.082   3.364 -0.3460  0.4701  0.6959
13849TIP3   OH262961   3.295   2.309  16.644  0.4377 -0.4372 -0.2400
13849TIP3    H162962   3.323   2.395  16.612  1.7533 -0.4288  0.8188
13849TIP3    H262963   3.280   2.322  16.738  0.4270 -1.3060 -0.1163
13850TIP3   OH262964   0.733   5.567   6.359 -0.0304  0.0720  0.4322
13850TIP3    H162965   0.738   5.568   6.263  1.0256 -1.5238  0.4247
13850TIP3    H262966   0.681   5.489   6.379  1.1707 -0.5815  1.1532
13851TIP3   OH262967   4.946   6.115   2.808 -0.2360  0.3191 -0.1401
13851TIP3    H162968   4.972   6.125   2.716  0.2665 -0.3052 -0.0717
13851TIP3    H262969   4.892   6.192   2.826 -0.9457  0.0793 -1.1648
13852TIP3   OH262970   5.118   5.074  12.699  0.4908  0.0909  0.1742
13852TIP3    H162971   5.148   5.048  12.612  0.7330 -0.3841  0.3979
13852TIP3    H262972   5.190   5.127  12.734  1.3249 -1.4755  0.9141
13853TIP3   OH262973   2.117   4.680   1.511 -0.9290 -0.1535 -0.1038
13853TIP3    H162974   2.089   4.600   1.467  0.1953 -0.1558 -0.8603
13853TIP3    H262975   2.196   4.655   1.559 -0.1431  0.6403 -0.9342
13854TIP3   OH262976   5.965   5.315  15.962  0.2163  0.5502 -0.5463
13854TIP3    H162977   5.929   5.231  15.936  1.7364  0.0259 -1.0323
13854TIP3    H262978   6.025   5.339  15.891  2.4947  0.3258  1.1998
13855TIP3   OH262979   3.690   0.033  13.685  0.3550  0.1300 -0.2324
13855TIP3    H162980   3.665  -0.001  13.599  1.1016  0.3222 -0.5332
13855TIP3    H262981   3.655  -0.031  13.747 -0.6850  0.2900 -0.6452
13856TIP3   OH262982   2.470   5.428  13.262 -0.1046 -0.3823 -0.1717
13856TIP3    H162983   2.546   5.383  13.225  1.0864  0.0880  1.5586
13856TIP3    H262984   2.428   5.363  13.318  0.4991  0.0546  0.8183
13857TIP3   OH262985   2.990   4.962   2.322 -0.0264 -0.5634 -0.1028
13857TIP3    H162986   2.966   5.044   2.277  1.5291 -0.1643 -0.2561
13857TIP3    H262987   3.005   4.900   2.251  1.1404 -0.2969 -0.1092
13858TIP3   OH262988   4.449   0.217  15.979  0.3379  0.1169  0.3398
13858TIP3    H162989   4.451   0.303  16.021 -0.2472 -0.7375  2.2188
13858TIP3    H262990   4.539   0.185  15.986  0.4646  0.3911  0.0080
13859TIP3   OH262991   1.791   5.649   1.274 -0.2042  0.4511  0.1650
13859TIP3    H162992   1.724   5.650   1.343 -1.2853  1.6727 -0.8595
13859TIP3    H262993   1.813   5.741   1.261  0.1752  0.2093 -0.9511
13860TIP3   OH262994   4.095   4.871  13.199 -0.0742  0.3418 -0.6470
13860TIP3    H162995   4.034   4.800  13.181 -0.6704  0.6315  0.1829
13860TIP3    H262996   4.063   4.944  13.145  0.3052  0.1074 -1.1962
13861TIP3   OH262997   0.648   2.884   4.394  0.0179  0.1033 -0.3398
13861TIP3    H162998   0.705   2.896   4.470  0.0377 -1.4279 -0.0986
13861TIP3    H262999   0.608   2.970   4.381  1.3903  0.8736  0.2712
13862TIP3   OH263000   5.660   1.060   3.729  0.2622  0.5574  0.3814
13862TIP3    H163001   5.586   1.015   3.689 -1.1706  3.4424 -0.5049
13862TIP3    H263002   5.624   1.100   3.808  1.5213  0.0236  1.2552
13863TIP3   OH263003   5.518   3.469  14.991 -0.2459 -0.0942  0.6194
13863TIP3    H163004   5.542   3.462  15.083 -0.7187  2.7473  1.0283
13863TIP3    H263005   5.423   3.481  14.992 -0.1736  0.6362 -0.1712
13864TIP3   OH263006   6.591   6.486  11.479 -0.0689  0.2768 -0.1581
13864TIP3    H163007   6.534   6.517  11.408  1.9673  3.9606 -0.4138
13864TIP3    H263008   6.536   6.489  11.557 -1.5528 -1.1637 -1.0868
13865TIP3   OH263009   2.224   3.372  13.787 -0.1271 -0.4311  0.5515
13865TIP3    H163010   2.318   3.355  13.788 -0.4612 -2.4987  1.2444
13865TIP3    H263011   2.216   3.463  13.815  1.6890  0.0658 -0.3955
13866TIP3   OH263012   1.475   4.608   3.217 -0.5128  0.0171 -0.2718
13866TIP3    H163013   1.484   4.513   3.204 -2.2301 -0.3307  0.7901
13866TIP3    H263014   1.395   4.632   3.171 -1.2326  0.5350  1.1668
13867TIP3   OH263015   4.610   3.734   4.247 -0.5028 -0.5118  0.2399
13867TIP3    H163016   4.598   3.645   4.214  0.4060 -0.1139 -1.2730
13867TIP3    H263017   4.525   3.776   4.234 -0.0947 -0.2443 -2.1950
13868TIP3   OH263018   2.346   2.444   3.025 -0.4469 -0.4384 -0.8400
13868TIP3    H163019   2.373   2.509   2.960 -0.7705  1.1585  0.5512
13868TIP3    H263020   2.269   2.402   2.987 -0.8839  0.7723 -1.3196
13869TIP3   OH263021   2.895   0.615   3.508  0.3267 -0.0522  0.3906
13869TIP3    H163022   2.846   0.651   3.582 -0.4701 -0.6716  0.1912
13869TIP3    H263023   2.982   0.598   3.542  0.4920  1.2948  0.7033
13870TIP3   OH263024   4.865   4.342   6.080 -0.1598 -0.1899 -0.9861
13870TIP3    H163025   4.917   4.263   6.097  0.6107  0.1110 -1.8691
13870TIP3    H263026   4.916   4.413   6.119 -0.7562 -0.0836 -0.3667
13871TIP3   OH263027   0.052   0.011  14.923  0.1086  0.2014  0.0424
13871TIP3    H163028   0.015  -0.073  14.893 -1.6792 -0.6153  3.8411
13871TIP3    H263029  -0.025   0.063  14.947  1.2728  1.7152  0.6072
13872TIP3   OH263030   2.715   3.272   3.463 -0.6321  0.1616 -0.0175
13872TIP3    H163031   2.782   3.207   3.483  1.8130  1.4816 -3.1134
13872TIP3    H263032   2.721   3.285   3.368 -3.6158  2.1674 -0.0667
13873TIP3   OH263033   3.196   6.157   6.202  0.1922 -0.0204  0.1194
13873TIP3    H163034   3.227   6.235   6.246 -0.4138  0.1417  0.2619
13873TIP3    H263035   3.102   6.171   6.189  0.6994  1.1380 -3.5928
13874TIP3   OH263036   5.324   5.831   5.642 -0.2458  0.3841  0.2602
13874TIP3    H163037   5.269   5.875   5.577 -0.4550  1.4982  1.1585
13874TIP3    H263038   5.266   5.812   5.715 -0.0055 -0.8358  0.1551
13875TIP3   OH263039   4.964   0.498  11.808  0.2037  0.1186  0.4746
13875TIP3    H163040   4.899   0.485  11.739 -1.6173  0.9193  1.9229
13875TIP3    H263041   5.006   0.413  11.819 -1.9579 -0.9877  0.7337
13876TIP3   OH263042   2.275   3.448   1.111  0.1883 -0.4259  0.7706
13876TIP3    H163043   2.215   3.373   1.106  2.2660 -2.2031  0.9932
13876TIP3    H263044   2.261   3.494   1.028 -0.7989 -1.3308  0.4005
13877TIP3   OH263045   4.956   0.832  12.027  0.1446 -0.1868 -0.5536
13877TIP3    H163046   4.900   0.754  12.024  0.2564 -0.3297  0.6783
13877TIP3    H263047   4.963   0.854  12.120 -0.3937  1.6716 -0.9005
13878TIP3   OH263048   1.108   1.407   0.724  0.7377  0.4421  0.2611
13878TIP3    H163049   1.151   1.481   0.681  0.5334  1.2950  1.4624
13878TIP3    H263050   1.116   1.335   0.662  3.3492  0.7081  0.1899
13879TIP3   OH263051   4.820   3.394  11.967 -0.0208  0.0586 -1.1699
13879TIP3    H163052   4.882   3.430  11.903  1.9890 -0.1179  0.5375
13879TIP3    H263053   4.737   3.437  11.947  1.2672  2.3957 -1.9366
13880TIP3   OH263054   5.112   1.680   2.921  0.0116 -0.0751 -0.1300
13880TIP3    H163055   5.119   1.670   2.826 -0.1851  0.8974 -0.2518
13880TIP3    H263056   5.021   1.659   2.941  0.3006 -1.2830 -0.0167
13881TIP3   OH263057   0.690   3.275  13.551  0.2112 -0.9500  0.2895
13881TIP3    H163058   0.771   3.266  13.502 -0.5692 -2.8830 -0.7726
13881TIP3    H263059   0.718   3.298  13.640  1.6720  2.3115 -0.8591
13882TIP3   OH263060   1.227   1.535  11.072 -0.7156  0.3948 -0.0751
13882TIP3    H163061   1.313   1.572  11.089 -1.4165  1.2732  1.9688
13882TIP3    H263062   1.175   1.609  11.040 -0.7520 -0.1131 -1.2425
13883TIP3   OH263063   2.400   4.383  17.232  0.3347 -0.0037 -0.0176
13883TIP3    H163064   2.341   4.333  17.289  0.9157  0.1613  0.7547
13883TIP3    H263065   2.471   4.322  17.212  0.4956  0.1679  0.0294
13884TIP3   OH263066   0.695   1.377   6.421 -0.1192 -0.4496  0.3780
13884TIP3    H163067   0.599   1.386   6.423 -0.1443 -0.7454  0.9900
13884TIP3    H263068   0.717   1.375   6.328 -0.6666  0.0322  0.2285
13885TIP3   OH263069   4.031   4.912  13.859 -0.5020  0.3607  1.2758
13885TIP3    H163070   4.101   4.852  13.883 -1.0464 -0.2336  1.4100
13885TIP3    H263071   4.053   4.994  13.905 -0.7473 -0.3116  2.6463
13886TIP3   OH263072   3.641   6.067   4.867 -0.2658 -0.3810 -0.4633
13886TIP3    H163073   3.612   6.139   4.811 -0.6439 -1.1154 -1.2219
13886TIP3    H263074   3.712   6.025   4.817  0.1114 -0.4004  0.0776
13887TIP3   OH263075   4.891   1.348   3.566 -0.2936  0.5157 -0.0028
13887TIP3    H163076   4.876   1.290   3.640 -1.1389  0.1929 -0.4059
13887TIP3    H263077   4.978   1.325   3.534 -0.7822 -0.8781 -0.4368
13888TIP3   OH263078   1.299   0.785  13.296 -0.3909  0.0008 -0.3637
13888TIP3    H163079   1.365   0.755  13.234 -0.7168 -1.7284  0.0672
13888TIP3    H263080   1.307   0.724  13.370 -2.0615  0.1211 -0.0498
13889TIP3   OH263081   5.572   2.436  15.155 -0.0111 -0.2733 -0.0226
13889TIP3    H163082   5.618   2.421  15.238 -1.7130  2.4290  1.5125
13889TIP3    H263083   5.493   2.383  15.162 -1.2334  1.6083  1.1273
13890TIP3   OH263084   4.044   2.921  12.718  0.2847 -0.1378 -0.4595
13890TIP3    H163085   4.015   2.994  12.772 -0.0789 -1.4570  1.2345
13890TIP3    H263086   4.138   2.936  12.705  0.5323 -0.1422  1.1760
13891TIP3   OH263087   5.064   5.680  15.986 -0.2626 -0.0186 -0.5263
13891TIP3    H163088   5.009   5.756  15.965 -0.9076 -0.6657 -1.2667
13891TIP3    H263089   5.147   5.718  16.013 -0.3997  0.9550 -1.3721
13892TIP3   OH263090   5.301   2.403  13.910  0.2848  0.2625 -0.4123
13892TIP3    H163091   5.249   2.483  13.908 -2.5010 -1.3614 -2.9616
13892TIP3    H263092   5.309   2.378  13.818  1.1780 -2.2643  0.2798
13893TIP3   OH263093   4.371   0.933  11.548 -0.3678  0.3432 -0.2328
13893TIP3    H163094   4.348   0.842  11.533 -0.3332  0.7906 -4.1899
13893TIP3    H263095   4.314   0.961  11.619 -3.1889 -1.8059 -1.4547
13894TIP3   OH263096   3.369   3.216   3.617 -0.3840 -0.5168  0.3198
13894TIP3    H163097   3.328   3.185   3.698  0.1042 -2.7459 -0.2331
13894TIP3    H263098   3.343   3.153   3.550  0.9291  0.0944 -0.8377
13895TIP3   OH263099   1.834   2.074   0.017  0.2004 -0.3389 -0.1109
13895TIP3    H163100   1.916   2.039  -0.017  0.2863 -0.9206  0.6511
13895TIP3    H263101   1.787   2.105  -0.060 -0.7278 -3.8933 -1.2075
13896TIP3   OH263102   1.715   0.121   6.196  0.5267 -0.5379 -0.1943
13896TIP3    H163103   1.783   0.053   6.202  0.7520 -0.2268  0.8259
13896TIP3    H263104   1.741   0.188   6.259 -0.4201 -0.1376 -0.2066
13897TIP3   OH263105   3.144   0.017  14.518 -0.1286  0.1409  0.5964
13897TIP3    H163106   3.094   0.098  14.531  0.9617  0.7619  1.0418
13897TIP3    H263107   3.235   0.042  14.536  0.3337 -0.9893 -0.0796
13898TIP3   OH263108   1.929   2.286  11.571  0.2421 -0.1602  0.0685
13898TIP3    H163109   1.908   2.193  11.567  1.1666 -0.3734 -0.1551
13898TIP3    H263110   2.022   2.290  11.548  0.2654  0.7952  0.3000
13899TIP3   OH263111   1.335   6.335   4.174  0.0050  0.0329 -0.1858
13899TIP3    H163112   1.420   6.336   4.218 -0.9296  1.3671  1.7305
13899TIP3    H263113   1.321   6.425   4.146 -0.5897 -0.2673 -0.8969
13900TIP3   OH263114   6.740   3.051   5.202 -0.4843  0.7190 -0.1649
13900TIP3    H163115   6.698   2.970   5.172  0.5987 -0.1621  0.6244
13900TIP3    H263116   6.733   3.048   5.297 -0.2261  1.4525 -0.1142
13901TIP3   OH263117   2.818   4.925  16.271  0.3229 -0.3308 -0.0832
13901TIP3    H163118   2.764   4.851  16.243  0.3401 -1.1626  1.9311
13901TIP3    H263119   2.884   4.933  16.202 -0.3853 -1.4359 -0.9324
13902TIP3   OH263120   2.157   1.558   4.233  0.2812 -0.5533  0.4287
13902TIP3    H163121   2.123   1.597   4.152  1.3575  0.2713  0.3583
13902TIP3    H263122   2.135   1.621   4.301  0.0021 -0.9208  0.6846
13903TIP3   OH263123   1.185   0.964   0.388 -0.3706  0.3443 -0.2607
13903TIP3    H163124   1.128   0.897   0.425  1.3648 -1.6245 -0.9793
13903TIP3    H263125   1.273   0.927   0.394  0.6968  2.6812 -0.4800
13904TIP3   OH263126   1.889   0.123   0.007 -0.2876  0.2777  0.2270
13904TIP3    H163127   1.907   0.216   0.007  0.9557  0.1359  2.7485
13904TIP3    H263128   1.964   0.083  -0.035 -0.1825  0.3467  0.3481
13905TIP3   OH263129   4.780   0.277   4.623  0.0149  0.1265 -0.2907
13905TIP3    H163130   4.710   0.212   4.614 -0.5577  0.3350  1.9486
13905TIP3    H263131   4.795   0.282   4.718  0.8939  2.3836 -0.4988
13906TIP3   OH263132   6.344   2.952  17.018 -0.2888  0.5585 -0.4077
13906TIP3    H163133   6.275   3.016  17.005 -1.7405 -0.8851 -0.1632
13906TIP3    H263134   6.403   2.992  17.082 -1.6871  1.2516  0.4942
13907TIP3   OH263135   4.619   2.298  12.099 -0.1723 -0.2827 -0.0612
13907TIP3    H163136   4.607   2.260  12.186  2.5928 -0.1211  0.4666
13907TIP3    H263137   4.581   2.386  12.105 -1.1470 -0.7241  0.5415
13908TIP3   OH263138   0.444   5.805  16.584 -0.6632  0.1661 -0.6777
13908TIP3    H163139   0.504   5.824  16.512 -0.9229 -1.1480 -1.2695
13908TIP3    H263140   0.500   5.802  16.661  0.0431 -0.9881 -1.2175
13909TIP3   OH263141   3.817   5.800   3.334  0.4475  0.2994 -0.2927
13909TIP3    H163142   3.731   5.834   3.359  0.6518  0.3284  0.3727
13909TIP3    H263143   3.876   5.829   3.403  0.7591 -0.8245 -0.0696
13910TIP3   OH263144   1.219   1.365   5.515  0.0721 -0.6995 -0.7027
13910TIP3    H163145   1.183   1.445   5.476 -2.3808 -1.6678 -0.5799
13910TIP3    H263146   1.314   1.376   5.508 -0.1803  2.1451 -0.8075
13911TIP3   OH263147   2.478   6.705   3.126  0.3736  0.6376  0.6859
13911TIP3    H163148   2.394   6.687   3.169  0.5169 -2.5845 -0.1222
13911TIP3    H263149   2.543   6.678   3.190  0.6847 -0.0745  0.0779
13912TIP3   OH263150   0.646   3.625   0.276 -0.2737 -0.4482 -0.1697
13912TIP3    H163151   0.684   3.713   0.267  0.3459 -0.5607  1.1497
13912TIP3    H263152   0.716   3.573   0.315 -1.1627 -1.1276  0.5515
13913TIP3   OH263153   3.511   6.442  13.242 -0.1209  0.4004 -0.7416
13913TIP3    H163154   3.576   6.398  13.297  2.3079  1.6490 -2.4172
13913TIP3    H263155   3.494   6.525  13.287 -1.3428 -0.3323  0.1888
13914TIP3   OH263156   0.138   2.688   3.049  0.7885 -0.0377 -0.2167
13914TIP3    H163157   0.141   2.734   3.133  1.6135  0.4004 -0.4758
13914TIP3    H263158   0.091   2.607   3.068 -0.2360  0.6654  0.3669
13915TIP3   OH263159   2.511   0.298  17.083 -0.6112  0.1898 -0.2781
13915TIP3    H163160   2.574   0.334  17.145 -0.5113  0.8490 -0.7527
13915TIP3    H263161   2.549   0.213  17.057 -0.9276 -0.3518  0.9624
13916TIP3   OH263162   3.423   6.441   2.462  0.3816  0.3797  0.0730
13916TIP3    H163163   3.463   6.519   2.499 -0.0895  1.0484 -0.7865
13916TIP3    H263164   3.353   6.474   2.406  2.1823 -0.4051 -2.8980
13917TIP3   OH263165   6.592   3.502   4.726  0.0010 -0.3910 -0.4215
13917TIP3    H163166   6.549   3.483   4.809  1.0032 -0.7009  0.0417
13917TIP3    H263167   6.520   3.519   4.665 -0.7906 -1.5685  0.1523
13918TIP3   OH263168   6.467   2.819   6.106 -0.0366 -0.5389 -0.0844
13918TIP3    H163169   6.392   2.794   6.159 -0.5380 -0.2213 -0.6321
13918TIP3    H263170   6.429   2.865   6.031  0.6892 -0.5357 -0.4602
13919TIP3   OH263171   2.882   1.128  13.811 -0.1210  0.2450  0.9143
13919TIP3    H163172   2.948   1.073  13.854  1.9285  3.6261  2.4442
13919TIP3    H263173   2.834   1.169  13.883 -0.7912  1.3716 -0.1300
13920TIP3   OH263174   3.658   3.830   5.628 -0.2223 -0.0028 -0.4908
13920TIP3    H163175   3.630   3.805   5.716  2.0169  0.8936  0.5474
13920TIP3    H263176   3.747   3.795   5.621 -0.6256 -0.7344 -2.7322
13921TIP3   OH263177   4.181   4.403   3.316  0.1509  0.2329 -0.8972
13921TIP3    H163178   4.179   4.309   3.294 -1.9420 -0.2497  0.9237
13921TIP3    H263179   4.093   4.434   3.296  1.3230  2.3754 -3.2928
13922TIP3   OH263180   5.503   3.858  14.543 -0.2840  0.6244  0.8754
13922TIP3    H163181   5.432   3.794  14.532  0.2933 -0.1267  1.3991
13922TIP3    H263182   5.576   3.807  14.579 -0.2373  1.8187  2.6170
13923TIP3   OH263183   5.588   3.193   5.655 -0.6194  0.3343  0.1678
13923TIP3    H163184   5.516   3.177   5.716 -2.1183 -0.1539 -1.6110
13923TIP3    H263185   5.648   3.250   5.702 -1.9135  0.3230  1.9200
13924TIP3   OH263186   6.695   6.506  16.178 -0.3643  0.0893 -0.4417
13924TIP3    H163187   6.628   6.471  16.119  1.0723 -0.5977 -1.7474
13924TIP3    H263188   6.679   6.462  16.261 -0.9927 -0.7629 -0.9892
13925TIP3   OH263189   2.651   3.439  11.869 -0.4442 -0.3909 -0.4369
13925TIP3    H163190   2.665   3.377  11.798 -1.9084  0.0768 -1.1596
13925TIP3    H263191   2.556   3.441  11.881 -0.4395  1.7242 -0.4711
13926TIP3   OH263192   3.891   2.505   5.182 -0.0503  0.1860 -0.2810
13926TIP3    H163193   3.916   2.519   5.273  1.6311 -0.5149 -0.5912
13926TIP3    H263194   3.954   2.557   5.132 -1.4829  1.2561 -1.0559
13927TIP3   OH263195   5.312   2.095   2.807  0.6468  0.5474 -0.7548
13927TIP3    H163196   5.254   2.121   2.736 -0.1475  0.5860 -0.1079
13927TIP3    H263197   5.280   2.010   2.836  1.9490 -0.2133 -1.4762
13928TIP3   OH263198   4.535   2.244  13.125 -0.2961  0.2615 -0.1979
13928TIP3    H163199   4.561   2.231  13.217  0.9473  3.8887  0.1187
13928TIP3    H263200   4.449   2.286  13.131 -0.4750 -0.0257 -0.7320
13929TIP3   OH263201   3.688   5.474  15.740  0.1757 -0.1300 -0.3466
13929TIP3    H163202   3.617   5.534  15.717  0.1421 -0.3915 -0.9422
13929TIP3    H263203   3.660   5.433  15.822 -1.1164 -1.4003 -1.3599
13930TIP3   OH263204   1.726   3.600  11.638  0.1811  0.0400 -0.2570
13930TIP3    H163205   1.807   3.644  11.664 -0.3837  0.3473  1.0546
13930TIP3    H263206   1.686   3.572  11.720 -0.8481 -0.4816 -0.9090
13931TIP3   OH263207   4.929   3.179  12.937 -0.4912  0.5293 -0.1721
13931TIP3    H163208   4.899   3.088  12.941 -0.8277  0.6030 -0.7935
13931TIP3    H263209   4.852   3.231  12.957 -0.6479  0.7028 -1.1456
13932TIP3   OH263210   3.435   1.377   2.182  0.1103  0.0050  0.1369
13932TIP3    H163211   3.464   1.286   2.174 -3.6720 -1.5027  1.2898
13932TIP3    H263212   3.444   1.398   2.275 -0.1763  0.3460  0.0927
13933TIP3   OH263213   2.472   2.420   2.397  0.2515 -0.5385  0.0649
13933TIP3    H163214   2.514   2.453   2.317  2.5921  1.1916  1.8821
13933TIP3    H263215   2.534   2.355   2.431  0.3985  0.3584  1.5935
13934TIP3   OH263216   1.893   6.095   3.832 -0.0013 -0.1889 -0.0097
13934TIP3    H163217   1.875   6.161   3.899  0.3226 -0.2736  0.1610
13934TIP3    H263218   1.902   6.013   3.880 -0.6320 -0.4035 -0.2458
13935TIP3   OH263219   0.547   1.856  14.041  0.0450 -0.1219  0.4710
13935TIP3    H163220   0.457   1.880  14.065 -0.6778 -1.0311 -1.1594
13935TIP3    H263221   0.594   1.940  14.041 -1.1917  0.6152 -0.1682
13936TIP3   OH263222   3.233   3.133   2.950 -0.0403  0.3410 -0.2760
13936TIP3    H163223   3.227   3.082   2.870  0.4260  0.8513 -0.6428
13936TIP3    H263224   3.294   3.204   2.929  1.0571 -0.2156  0.8958
13937TIP3   OH263225   2.250   4.804  14.766 -0.3148 -0.2601  0.1965
13937TIP3    H163226   2.310   4.857  14.713  0.0918 -1.8692 -1.0384
13937TIP3    H263227   2.165   4.845  14.755 -0.0174  0.1326 -0.7533
13938TIP3   OH263228   0.429   1.715   0.975 -0.0020  0.3435  0.8357
13938TIP3    H163229   0.492   1.680   0.912  1.8118  2.6362  1.2418
13938TIP3    H263230   0.353   1.658   0.966  1.6568 -1.8441 -0.5335
13939TIP3   OH263231   4.894   4.604   4.976 -0.1391  0.3288  0.0537
13939TIP3    H163232   4.889   4.543   5.050 -0.4178  1.7622  1.2567
13939TIP3    H263233   4.886   4.691   5.016  0.7346  1.1886 -1.5567
13940TIP3   OH263234   3.186   1.512   2.882 -0.4290  0.1717  0.6041
13940TIP3    H163235   3.273   1.505   2.844 -0.6265 -1.1166  0.3544
13940TIP3    H263236   3.164   1.423   2.910 -2.2783  0.1530 -0.7357
13941TIP3   OH263237   0.697   6.163  16.267  0.3317  0.4600  0.7109
13941TIP3    H163238   0.708   6.229  16.336 -1.1209  1.2536  0.2249
13941TIP3    H263239   0.787   6.145  16.238  0.7846  2.2199  0.8723
13942TIP3   OH263240   5.730   1.728   4.634  0.6016  0.0590 -0.0731
13942TIP3    H163241   5.638   1.705   4.617  0.3481  1.9376 -1.5546
13942TIP3    H263242   5.730   1.757   4.725 -0.0964 -0.6575  0.1765
13943TIP3   OH263243   0.583   5.572   2.281 -0.6233  0.2787  0.4845
13943TIP3    H163244   0.587   5.479   2.259 -5.1316 -0.1657  0.5283
13943TIP3    H263245   0.659   5.587   2.337  0.8712 -3.0630 -0.3779
13944TIP3   OH263246   5.227   6.590  15.833  0.2883 -0.2751  0.2390
13944TIP3    H163247   5.176   6.540  15.769 -0.4393  0.4481  0.2324
13944TIP3    H263248   5.163   6.650  15.872  0.7244 -0.6786  1.6199
13945TIP3   OH263249   3.124   1.211   2.934 -0.3367 -0.4771 -0.3001
13945TIP3    H163250   3.107   1.119   2.956 -1.9103 -0.2533 -0.4708
13945TIP3    H263251   3.058   1.260   2.983 -0.1269  0.4868 -0.9542
13946TIP3   OH263252   5.264   6.598   5.557 -0.2310  0.3947  0.4043
13946TIP3    H163253   5.171   6.588   5.577  0.0702 -0.2145  1.5339
13946TIP3    H263254   5.298   6.509   5.551  0.0807  0.5796 -1.1011
13947TIP3   OH263255   0.292   0.087   2.437  0.4844 -0.3975 -0.0280
13947TIP3    H163256   0.288   0.181   2.456  0.9612  0.1332 -2.2924
13947TIP3    H263257   0.293   0.045   2.524  2.2395  1.7522  1.0908
13948TIP3   OH263258   3.131   2.195  14.780 -0.1587 -0.1185  0.4673
13948TIP3    H163259   3.226   2.205  14.783  0.0460 -1.6756  0.1543
13948TIP3    H263260   3.098   2.247  14.853  0.7379  2.1420 -0.6255
13949TIP3   OH263261   3.818   4.107  13.669 -0.2582  0.1907  0.0248
13949TIP3    H163262   3.793   4.022  13.632 -0.2954  0.0782  0.3022
13949TIP3    H263263   3.907   4.093  13.702  0.1899  0.6012 -0.9925
13950TIP3   OH263264   0.436   4.547   2.343  0.6708  0.1238 -1.1849
13950TIP3    H163265   0.508   4.560   2.405 -0.4831  0.6472  0.0878
13950TIP3    H263266   0.371   4.497   2.391 -0.0676  0.1484 -2.1279
13951TIP3   OH263267   4.091   2.251  13.368  0.3404  0.4240  0.2468
13951TIP3    H163268   4.040   2.323  13.332 -2.7998 -1.0121  1.5180
13951TIP3    H263269   4.085   2.262  13.463  0.2932 -1.1468  0.4624
13952TIP3   OH263270   2.633   1.995   0.752 -0.3265 -0.6408 -0.3794
13952TIP3    H163271   2.572   1.965   0.819 -0.9611  0.9157 -0.2355
13952TIP3    H263272   2.601   1.956   0.671 -1.2123 -0.2790 -0.2155
13953TIP3   OH263273   4.021   1.927  12.106  0.0303  0.2467 -0.0236
13953TIP3    H163274   4.111   1.934  12.074  0.8601 -1.1424  1.8708
13953TIP3    H263275   4.028   1.937  12.201 -1.4411 -2.3395  0.4577
13954TIP3   OH263276   1.748   1.038  11.276 -0.2708 -0.2996 -0.2161
13954TIP3    H163277   1.673   1.092  11.251  0.5322  1.1182  0.3122
13954TIP3    H263278   1.808   1.046  11.202 -0.3003 -0.7641 -0.2889
13955TIP3   OH263279   5.008   6.719  15.791  0.0554 -0.9301 -0.2541
13955TIP3    H163280   4.935   6.780  15.796  3.2040  3.1892  0.9657
13955TIP3    H263281   5.052   6.741  15.709  0.4181 -2.8414 -0.6290
13956TIP3   OH263282   6.334   3.888   4.088  0.1283  0.1873  0.5235
13956TIP3    H163283   6.301   3.977   4.094  0.1764  0.1438  1.4992
13956TIP3    H263284   6.260   3.837   4.055 -0.1372  0.4436  0.7235
13957TIP3   OH263285   3.064   2.143   0.963 -0.0249  0.0640 -0.8072
13957TIP3    H163286   3.029   2.058   0.989  0.6925  0.3756  1.3952
13957TIP3    H263287   3.141   2.155   1.018  0.2711  1.8440 -1.5401
13958TIP3   OH263288   4.393   4.289  14.206 -0.3607 -0.6212 -0.2983
13958TIP3    H163289   4.394   4.384  14.207  1.1021 -0.5655 -2.1236
13958TIP3    H263290   4.445   4.264  14.283  0.0735  0.0705 -0.3631
13959TIP3   OH263291   3.267   0.753   2.228 -0.0424 -0.1654  0.4138
13959TIP3    H163292   3.249   0.833   2.180  1.8378  2.0620  3.0355
13959TIP3    H263293   3.190   0.740   2.284 -1.4699 -1.7781 -1.7828
13960TIP3   OH263294   1.518   4.049   2.895 -0.1014  0.5541 -0.3003
13960TIP3    H163295   1.442   4.105   2.876  0.0032  0.2991 -1.6169
13960TIP3    H263296   1.480   3.967   2.925 -0.3450  0.5853 -0.5148
13961TIP3   OH263297   1.204   0.380   5.934 -0.3461  0.1683  0.5544
13961TIP3    H163298   1.120   0.425   5.925 -0.2519  0.8145  2.4554
13961TIP3    H263299   1.217   0.372   6.028  0.7036 -1.9163  0.2908
13962TIP3   OH263300   5.697   3.371  15.461  0.4608  0.0835 -0.0839
13962TIP3    H163301   5.755   3.404  15.530  0.9623  0.1077 -0.5072
13962TIP3    H263302   5.648   3.300  15.502  0.3793  0.4412  0.4427
13963TIP3   OH263303   3.427   6.584  15.217  0.1192 -0.2284  0.1545
13963TIP3    H163304   3.476   6.515  15.172  1.1313  0.8400 -0.3948
13963TIP3    H263305   3.394   6.541  15.296  3.6369 -0.4898  1.6321
13964TIP3   OH263306   2.785   1.718  15.889  0.1996  0.5132 -0.5628
13964TIP3    H163307   2.813   1.635  15.926  1.8207  1.4319  0.4231
13964TIP3    H263308   2.690   1.721  15.901  0.0181 -1.4608 -1.2588
13965TIP3   OH263309   5.994   0.783  13.596 -0.2942  0.3292 -0.4786
13965TIP3    H163310   5.927   0.772  13.528 -2.4533  0.6600  1.4873
13965TIP3    H263311   6.005   0.877  13.604  1.3761  0.2709 -1.6167
13966TIP3   OH263312   3.269   2.011  13.183 -0.5113 -0.5079  0.8127
13966TIP3    H163313   3.336   2.072  13.214  0.7970 -1.3026 -0.2987
13966TIP3    H263314   3.288   1.929  13.228 -1.1168 -0.5911  0.9290
13967TIP3   OH263315   3.098   4.688  15.197  0.2489 -0.5473 -0.2231
13967TIP3    H163316   3.167   4.753  15.209  1.2322 -1.1006 -2.4076
13967TIP3    H263317   3.142   4.615  15.153 -1.5792 -1.2512 -0.9630
13968TIP3   OH263318   4.440   1.856  13.049 -0.2508 -0.3041 -0.3572
13968TIP3    H163319   4.375   1.920  13.022 -2.5323 -1.7189  1.4227
13968TIP3    H263320   4.445   1.794  12.976 -1.5044 -0.5733 -0.2396
13969TIP3   OH263321   6.467   3.148   6.077 -0.0990 -0.2876  0.4012
13969TIP3    H163322   6.426   3.139   6.163  0.1518 -0.3518  0.5148
13969TIP3    H263323   6.472   3.242   6.063  0.3398 -0.2671  0.6892
13970TIP3   OH263324   2.791   4.661   1.556  0.4532  0.0423 -0.0771
13970TIP3    H163325   2.788   4.670   1.460 -1.5585  4.2375  0.1488
13970TIP3    H263326   2.879   4.690   1.580 -0.2794  2.9753 -0.5705
13971TIP3   OH263327   3.610   6.188   2.461  0.2070  0.0809 -0.0547
13971TIP3    H163328   3.702   6.192   2.488  0.2840 -0.1579 -0.2761
13971TIP3    H263329   3.575   6.274   2.483  0.9178  0.7818 -1.5284
13972TIP3   OH263330   2.089   2.137   1.822 -0.6616 -0.4450  0.1234
13972TIP3    H163331   2.165   2.168   1.773 -1.9278  1.9516 -0.4574
13972TIP3    H263332   2.087   2.191   1.900 -1.2635 -1.1100  0.5807
13973TIP3   OH263333   5.846   3.207   4.228 -0.1838 -0.0383 -0.2710
13973TIP3    H163334   5.867   3.130   4.282  1.6549  1.7249  1.7285
13973TIP3    H263335   5.803   3.268   4.288 -0.2487  1.0888 -1.4129
13974TIP3   OH263336   1.776   5.052   4.089  0.0057 -0.2459 -0.6558
13974TIP3    H163337   1.700   5.090   4.047  0.6042  1.2978 -0.4066
13974TIP3    H263338   1.773   5.086   4.179  0.3357 -1.1505 -0.2875
13975TIP3   OH263339   0.601   1.960  11.532 -0.7542  0.5389 -0.1474
13975TIP3    H163340   0.581   2.042  11.576 -0.0819  0.3898  0.4740
13975TIP3    H263341   0.593   1.979  11.439  0.0670  1.5073 -0.0392
13976TIP3   OH263342   4.462   0.477   5.965  0.4320 -0.0600  0.1946
13976TIP3    H163343   4.530   0.411   5.977  0.6517  0.4570  2.0475
13976TIP3    H263344   4.385   0.428   5.938  1.4829 -0.6601 -1.9135
13977TIP3   OH263345   1.243   5.404   3.845 -0.5374  0.4659  0.5178
13977TIP3    H163346   1.177   5.445   3.901 -0.6171  1.2327 -0.1337
13977TIP3    H263347   1.326   5.435   3.879 -0.5370  0.0820  0.8759
13978TIP3   OH263348   1.317   1.862  17.244  0.3238  0.6213 -0.0302
13978TIP3    H163349   1.378   1.791  17.264  1.4770  1.1041 -1.6042
13978TIP3    H263350   1.276   1.883  17.328  1.1809 -0.7561  0.7783
13979TIP3   OH263351   6.146   5.255  13.245  0.2655 -0.3627  0.6912
13979TIP3    H163352   6.212   5.185  13.246  1.5685  0.8275  0.8336
13979TIP3    H263353   6.168   5.308  13.169  0.3922  0.8870  1.5781
13980TIP3   OH263354   1.433   3.969   4.180  0.1436  0.2395 -0.2338
13980TIP3    H163355   1.508   3.948   4.125  0.5277  1.6824 -0.2863
13980TIP3    H263356   1.407   3.884   4.218  1.8242 -0.2799 -0.1609
13981TIP3   OH263357   0.071   0.519  15.117  0.1899 -0.7021  0.0441
13981TIP3    H163358   0.155   0.482  15.091  1.0812  1.0441  0.3165
13981TIP3    H263359   0.076   0.525  15.212 -0.9157 -2.0472  0.2340
13982TIP3   OH263360   5.428   4.571  11.218 -0.2521 -0.0691 -0.2841
13982TIP3    H163361   5.471   4.489  11.243  0.4226  0.1106 -0.8160
13982TIP3    H263362   5.335   4.549  11.212 -0.7807  0.2347  4.0110
13983TIP3   OH263363   0.462   1.275   3.156  0.5062 -0.5213 -0.3214
13983TIP3    H163364   0.430   1.237   3.074  0.9845 -1.4024 -0.1052
13983TIP3    H263365   0.546   1.316   3.132  0.2819 -0.1132 -0.4246
13984TIP3   OH263366   5.502   5.654  10.657  0.7411  0.5856 -0.2552
13984TIP3    H163367   5.557   5.589  10.613  1.6711  0.8163  0.5253
13984TIP3    H263368   5.557   5.732  10.662  0.1073  1.0218 -0.0118
13985TIP3   OH263369   0.303   1.556   3.690 -0.8433 -0.1581  0.1495
13985TIP3    H163370   0.384   1.606   3.677  0.1071 -1.0503  2.1568
13985TIP3    H263371   0.236   1.623   3.707 -0.6743  0.6152 -1.9318
13986TIP3   OH263372   1.744   3.580   0.331  0.2302 -0.6900  0.0979
13986TIP3    H163373   1.770   3.629   0.253 -0.9503 -2.9776 -1.8476
13986TIP3    H263374   1.747   3.645   0.401 -0.9151  2.1127 -2.2281
13987TIP3   OH263375   1.050   5.691  15.047 -0.3072 -0.3654 -0.4256
13987TIP3    H163376   1.061   5.736  14.963 -1.5929 -1.2229 -1.0761
13987TIP3    H263377   1.064   5.599  15.028  1.6087 -0.3859  0.7712
13988TIP3   OH263378   1.765   3.471  10.911  0.5671 -0.0413  0.2531
13988TIP3    H163379   1.705   3.407  10.875  2.5441 -1.5670 -0.5297
13988TIP3    H263380   1.779   3.534  10.840  0.2421  0.0789  0.2947
13989TIP3   OH263381   4.786   4.193  15.803  0.0279 -0.0695  0.1649
13989TIP3    H163382   4.751   4.128  15.742 -1.7524  1.1885 -0.2203
13989TIP3    H263383   4.773   4.155  15.889  0.0428 -0.6992 -0.1077
13990TIP3   OH263384   4.374   3.079  15.512 -0.0884 -0.2001 -0.4973
13990TIP3    H163385   4.424   3.028  15.448  1.7613  1.1380 -0.2005
13990TIP3    H263386   4.412   3.167  15.508 -4.0636  1.6624 -1.9791
13991TIP3   OH263387   2.474   0.679   1.301  0.0660 -0.5915  0.2106
13991TIP3    H163388   2.396   0.734   1.309  0.5255 -0.1545  2.3510
13991TIP3    H263389   2.442   0.598   1.261 -1.1192  0.2300 -0.5803
13992TIP3   OH263390   5.875   5.836   1.115 -0.2321  0.1320  0.1900
13992TIP3    H163391   5.792   5.797   1.090 -0.1829  0.2610 -0.1744
13992TIP3    H263392   5.883   5.817   1.209 -1.7328  2.0076  0.7778
13993TIP3   OH263393   1.654   6.617  12.061 -0.2940  1.0567 -0.3351
13993TIP3    H163394   1.692   6.532  12.080  1.5038  1.2523 -2.6210
13993TIP3    H263395   1.728   6.678  12.068 -1.5440  2.4834  1.2940
13994TIP3   OH263396   1.475   4.702   0.896  0.5682 -0.4591  0.6224
13994TIP3    H163397   1.443   4.706   0.986 -1.5182  0.8509 -0.1001
13994TIP3    H263398   1.450   4.615   0.865 -1.5933  0.1725  0.4003
13995TIP3   OH263399   0.995   2.837   5.514 -0.2460 -0.9933  0.4870
13995TIP3    H163400   1.077   2.884   5.496 -0.8410  0.0966  0.5308
13995TIP3    H263401   0.992   2.768   5.448  1.5114 -2.1216  1.5126
13996TIP3   OH263402   1.039   6.261   1.804  0.1015 -0.4834  0.2770
13996TIP3    H163403   1.057   6.181   1.755 -0.0042  0.0493 -0.6422
13996TIP3    H263404   1.089   6.329   1.760 -2.4550  0.6498 -1.1027
13997TIP3   OH263405   4.040   3.265  13.796 -0.0870 -0.1081 -0.3877
13997TIP3    H163406   3.955   3.222  13.786  0.3826 -1.2453  0.3539
13997TIP3    H263407   4.061   3.257  13.889  0.3426  1.1212 -0.3668
13998TIP3   OH263408   2.840   0.382  16.475  0.6146  0.7377  0.1436
13998TIP3    H163409   2.928   0.372  16.440  0.8694  0.8866  0.7195
13998TIP3    H263410   2.840   0.470  16.515 -0.7587  2.0872 -2.5533
13999TIP3   OH263411   5.023   0.600  15.085 -0.2801 -0.4019  0.0213
13999TIP3    H163412   5.116   0.617  15.100  0.7227 -3.9585 -1.2215
13999TIP3    H263413   5.006   0.633  14.997  0.1165 -0.6950 -0.1696
14000TIP3   OH263414   0.201   1.187  13.973  0.2628 -0.2505 -0.5621
14000TIP3    H163415   0.167   1.243  14.042  0.1586 -0.4352 -0.4615
14000TIP3    H263416   0.266   1.241  13.928  0.7744 -0.3280  0.0667
14001TIP3   OH263417   6.322   5.072   1.654  0.3453 -0.3034  0.0365
14001TIP3    H163418   6.242   5.124   1.642 -0.3434 -1.4796 -0.7196
14001TIP3    H263419   6.391   5.124   1.613 -0.5781 -0.5886 -1.9869
14002TIP3   OH263420   0.295   6.028   1.168 -0.2950 -0.4410  0.1155
14002TIP3    H163421   0.310   6.039   1.262  0.7561 -1.5276  0.1032
14002TIP3    H263422   0.257   5.941   1.159 -2.4138  0.4796 -0.3070
14003TIP3   OH263423   0.843   6.487   0.796 -0.0329  0.2433  0.3389
14003TIP3    H163424   0.819   6.496   0.704 -1.4105  1.5722  0.7828
14003TIP3    H263425   0.923   6.539   0.805  0.7294 -0.7750 -0.2968
14004TIP3   OH263426   3.456   2.360   1.835  0.0319  0.0322 -0.0872
14004TIP3    H163427   3.393   2.358   1.763 -0.3793 -2.1985  0.2570
14004TIP3    H263428   3.478   2.268   1.850  1.0087  0.5272  1.8614
14005TIP3   OH263429   3.971   5.446   3.816  0.0099 -0.9555  0.6261
14005TIP3    H163430   4.040   5.411   3.758  0.7048  0.1512  0.7513
14005TIP3    H263431   3.898   5.464   3.757  0.5939 -0.1463  0.1108
14006TIP3   OH263432   4.156   4.043   6.680  0.2376 -0.2502 -0.2500
14006TIP3    H163433   4.105   4.081   6.752 -0.7151  2.0059 -2.0019
14006TIP3    H263434   4.109   3.963   6.658  1.6289 -2.0839  2.7860
14007TIP3   OH263435   4.010   0.769  11.616  0.2328 -0.1657  0.0929
14007TIP3    H163436   3.955   0.798  11.688  0.7179 -0.3367  0.5445
14007TIP3    H263437   4.041   0.682  11.643 -0.0717 -0.4953 -0.5982
14008TIP3   OH263438   1.977   0.925   1.898  0.1528 -0.3468  0.2491
14008TIP3    H163439   1.883   0.940   1.912  0.1225 -0.6466  0.3746
14008TIP3    H263440   1.982   0.868   1.822  0.2120 -0.6693  0.4898
14009TIP3   OH263441   6.707   3.100  13.493  0.2727  0.2219 -0.4579
14009TIP3    H163442   6.776   3.128  13.433  1.5387 -2.6309 -0.4486
14009TIP3    H263443   6.752   3.050  13.561 -1.6985 -0.9332  0.0678
14010TIP3   OH263444   6.725   3.269   1.718 -0.0616  0.3374 -0.1884
14010TIP3    H163445   6.661   3.200   1.700  1.4138 -1.3921  0.7958
14010TIP3    H263446   6.693   3.310   1.799 -0.2147 -0.1455 -0.0012
14011TIP3   OH263447   6.753   5.922  12.103 -0.0824 -0.5455  0.2703
14011TIP3    H163448   6.747   6.008  12.060 -2.0014 -1.0660 -0.6047
14011TIP3    H263449   6.842   5.919  12.138  0.2066  1.5771 -0.1470
14012TIP3   OH263450   6.345   1.319   4.937  0.4608 -0.2567  0.2631
14012TIP3    H163451   6.354   1.298   4.844  1.9214  1.1523  0.0319
14012TIP3    H263452   6.435   1.330   4.968  0.0963 -2.2565  2.2720
14013TIP3   OH263453   3.458   3.848   1.557 -0.0452  0.4887  0.6380
14013TIP3    H163454   3.537   3.868   1.608  2.6054 -0.0175 -2.8516
14013TIP3    H263455   3.425   3.934   1.531 -0.8134  0.7104  2.2316
14014TIP3   OH263456   0.233   2.084   1.128  0.2891  0.5642  0.0714
14014TIP3    H163457   0.192   2.151   1.073  2.0775  0.6896 -1.2038
14014TIP3    H263458   0.161   2.024   1.150 -0.5380  0.5436 -2.3954
14015TIP3   OH263459   4.908   5.852   2.760 -0.3724  0.2096  0.0014
14015TIP3    H163460   4.904   5.943   2.789 -0.7386  0.1391  0.1755
14015TIP3    H263461   4.843   5.807   2.815  0.8015 -0.4289  0.9043
14016TIP3   OH263462   1.456   2.681  14.585 -0.5573 -0.0323 -0.0129
14016TIP3    H163463   1.496   2.646  14.664 -2.3862 -0.1972  0.8950
14016TIP3    H263464   1.523   2.739  14.548 -0.2384  1.4503  2.6261
14017TIP3   OH263465   2.933   6.299   1.513  0.1538 -0.2826  0.4014
14017TIP3    H163466   2.854   6.280   1.462 -0.3186 -0.5900  1.2262
14017TIP3    H263467   2.936   6.231   1.580  2.0552 -1.2954 -0.6346
14018TIP3   OH263468   6.604   6.588  14.831  0.0054  0.1061 -0.1620
14018TIP3    H163469   6.517   6.588  14.872  0.0628 -0.3871 -0.0375
14018TIP3    H263470   6.606   6.507  14.781  0.3755  0.1466 -0.2087
14019TIP3   OH263471   4.416   0.877  15.322  0.1804  0.0975 -0.4473
14019TIP3    H163472   4.328   0.915  15.314  0.8572  1.9252  0.2492
14019TIP3    H263473   4.419   0.842  15.411  0.0022 -0.4117 -0.6386
14020TIP3   OH263474   3.370   5.804   1.152  0.3903 -0.0007 -0.1687
14020TIP3    H163475   3.437   5.803   1.221  0.0207  0.2338  0.1926
14020TIP3    H263476   3.367   5.895   1.123  1.2311 -0.2688 -1.1754
14021TIP3   OH263477   0.475   2.333  14.726  0.4140  0.2400  0.5080
14021TIP3    H163478   0.562   2.328  14.765  1.8742  2.0830 -2.2227
14021TIP3    H263479   0.458   2.427  14.716 -1.9506 -0.0661  0.9448
14022TIP3   OH263480   3.743   6.304  15.718  0.7409 -0.0065 -0.0868
14022TIP3    H163481   3.702   6.280  15.635  1.9995 -1.2231 -0.4049
14022TIP3    H263482   3.761   6.221  15.761 -2.8723  0.5635  3.0454
14023TIP3   OH263483   1.825   6.620   2.288  0.1117 -0.2443  0.7620
14023TIP3    H163484   1.756   6.566   2.326  1.9202 -1.9701  1.8474
14023TIP3    H263485   1.904   6.566   2.297  1.5339  1.4462 -0.8044
14024TIP3   OH263486   6.297   0.545  15.861  0.0337 -0.0040 -0.3002
14024TIP3    H163487   6.223   0.556  15.802  0.0243 -0.8635 -0.4571
14024TIP3    H263488   6.363   0.607  15.830 -0.6519  0.8376 -0.0943
14025TIP3   OH263489   4.499   0.103  11.945  0.0957  0.0737 -0.4433
14025TIP3    H163490   4.560   0.040  11.906  0.0621 -0.0296 -0.3308
14025TIP3    H263491   4.441   0.129  11.874  0.3111  0.2188 -0.5654
14026TIP3   OH263492   5.299   4.685  13.137 -0.0901 -0.0853  0.3011
14026TIP3    H163493   5.210   4.720  13.141 -0.0832 -0.0288 -0.0168
14026TIP3    H263494   5.311   4.660  13.045  0.2161 -0.1056  0.3455
14027TIP3   OH263495   4.660   6.480   6.353  0.1741  0.2695  0.0027
14027TIP3    H163496   4.587   6.531   6.386 -0.3717 -1.3050  1.3438
14027TIP3    H263497   4.732   6.497   6.414  0.2160  0.0373  0.0215
14028TIP3   OH263498   1.257   4.170  13.558  0.2003  0.3911 -0.2455
14028TIP3    H163499   1.212   4.112  13.619  0.5792 -0.4323 -0.7238
14028TIP3    H263500   1.257   4.256  13.601 -0.4627  0.0614  0.4300
14029TIP3   OH263501   4.765   4.220  14.420  0.1953 -0.1474 -0.5438
14029TIP3    H163502   4.836   4.157  14.408  0.2859  0.1320 -1.5596
14029TIP3    H263503   4.783   4.289  14.355 -1.0952 -0.1556 -0.9298
14030TIP3   OH263504   0.553   6.455   0.403 -0.0246  0.6228 -0.3671
14030TIP3    H163505   0.632   6.418   0.444  0.7289  1.3967 -1.0870
14030TIP3    H263506   0.500   6.378   0.381 -0.2719  0.1530  1.6321
14031TIP3   OH263507   2.234   0.946  13.195  0.4422  0.7562  0.0038
14031TIP3    H163508   2.146   0.984  13.195  0.2997  0.4914  1.3533
14031TIP3    H263509   2.262   0.949  13.104 -0.5315  1.8602 -0.2854
14032TIP3   OH263510   6.437   0.867   0.019 -0.6579  0.1488 -1.1471
14032TIP3    H163511   6.489   0.913   0.085 -2.0301  0.3420 -0.1623
14032TIP3    H263512   6.442   0.923  -0.058 -0.1160  0.5931 -0.7976
14033TIP3   OH263513   4.032   4.113   2.405 -0.0549 -0.0442 -1.0052
14033TIP3    H163514   4.035   4.208   2.417  0.5221  0.2864 -3.2567
14033TIP3    H263515   4.117   4.091   2.366 -0.3633 -1.4115 -0.9579
14034TIP3   OH263516   2.762   2.480  16.182 -0.4112 -0.0427  0.2139
14034TIP3    H163517   2.680   2.511  16.143  0.1822 -0.4820 -1.4661
14034TIP3    H263518   2.735   2.432  16.260 -1.6418  0.9000  0.4025
14035TIP3   OH263519   5.090   6.365  14.329 -0.1497 -0.2497 -0.2175
14035TIP3    H163520   5.184   6.373  14.342 -0.1959 -0.4263  0.2559
14035TIP3    H263521   5.080   6.302  14.259  0.1293  1.0885 -1.5184
14036TIP3   OH263522   2.077   4.590  14.684  0.2423 -0.0916 -0.6398
14036TIP3    H163523   2.058   4.501  14.655  0.6889 -0.0621 -1.0389
14036TIP3    H263524   2.155   4.615  14.635 -0.5927  0.9857 -1.4683
14037TIP3   OH263525   5.626   6.406  12.591 -0.4212 -0.3497 -0.2455
14037TIP3    H163526   5.626   6.398  12.686  0.0116 -1.1848 -0.3048
14037TIP3    H263527   5.663   6.323  12.560 -1.7180 -0.6194 -1.1857
14038TIP3   OH263528   6.110   6.439  13.005  0.0301  0.3804  0.4913
14038TIP3    H163529   6.067   6.431  12.920  0.5267 -0.0666  0.2783
14038TIP3    H263530   6.039   6.432  13.069  0.0080 -2.8908  0.2551
14039TIP3   OH263531   4.087   6.532  12.137 -0.0552  0.4762  0.1838
14039TIP3    H163532   4.133   6.595  12.193 -0.9332  1.9065 -0.6371
14039TIP3    H263533   4.145   6.520  12.062 -0.9189  2.2622 -0.8394
14040TIP3   OH263534   0.410   2.525  15.633 -0.4036 -0.4960  0.1748
14040TIP3    H163535   0.335   2.584  15.626  0.2915  0.3164 -0.7144
14040TIP3    H263536   0.396   2.461  15.563  0.0665  0.0624 -0.4405
14041TIP3   OH263537   6.102   0.549   2.326  0.2032  0.3118 -0.3706
14041TIP3    H163538   6.016   0.546   2.285  0.4364  1.1561 -0.9387
14041TIP3    H263539   6.162   0.567   2.254  1.0270 -1.5331 -0.1953
14042TIP3   OH263540   5.358   0.569   2.320 -0.3529 -0.0554 -0.0301
14042TIP3    H163541   5.364   0.662   2.300 -0.1681 -0.4431 -2.0056
14042TIP3    H263542   5.340   0.527   2.236  3.2431 -2.1682  0.0409
14043TIP3   OH263543   0.276   1.115  14.514 -0.2195  0.2054 -0.0906
14043TIP3    H163544   0.364   1.098  14.480  0.1056 -0.3473  0.9809
14043TIP3    H263545   0.289   1.182  14.581 -0.2281 -1.5448  1.7426
14044TIP3   OH263546   6.296   1.417  16.729  0.1756 -0.1346  0.1726
14044TIP3    H163547   6.266   1.473  16.801  0.6538  0.3477 -0.0011
14044TIP3    H263548   6.224   1.419  16.666  0.2095  0.3197  0.1484
14045TIP3   OH263549   2.006   6.419   2.395 -0.2417 -0.2241 -0.1717
14045TIP3    H163550   2.091   6.459   2.412  0.4119 -2.1134  1.4151
14045TIP3    H263551   2.015   6.329   2.427 -2.6777 -0.6255 -0.4265
14046TIP3   OH263552   6.229   1.629  14.594  0.3290  0.2276 -0.1005
14046TIP3    H163553   6.154   1.616  14.536 -0.0903 -2.3764  0.9113
14046TIP3    H263554   6.198   1.695  14.657 -0.8501 -0.2438 -0.1553
14047TIP3   OH263555   4.951   5.190  13.975  0.0848 -0.2413  0.5460
14047TIP3    H163556   4.877   5.218  13.921 -0.5845  0.1394  1.6388
14047TIP3    H263557   4.993   5.121  13.924 -1.4709 -0.9937  0.2425
14048TIP3   OH263558   3.264   0.865   5.324 -0.0071 -0.2973 -0.1942
14048TIP3    H163559   3.262   0.960   5.323  1.4839 -0.2314 -1.2375
14048TIP3    H263560   3.315   0.842   5.401 -1.8892 -0.3604  1.0978
14049TIP3   OH263561   4.320   0.937  11.224  0.4761 -0.4180 -0.3327
14049TIP3    H163562   4.260   0.909  11.293  1.8994 -0.5476  0.9131
14049TIP3    H263563   4.271   1.002  11.174 -0.8949 -0.9603  0.2647
14050TIP3   OH263564   2.319   4.342   3.763 -0.3743  0.1314  0.6032
14050TIP3    H163565   2.335   4.320   3.855  0.5269 -0.7315  0.2625
14050TIP3    H263566   2.355   4.430   3.752  1.1012 -0.4363  0.6846
14051TIP3   OH263567   6.223   2.383   4.952  0.8188  0.1650 -0.2608
14051TIP3    H163568   6.244   2.424   4.868 -0.3909  1.6763  0.1281
14051TIP3    H263569   6.263   2.441   5.017 -1.8269  1.4684  0.3492
14052TIP3   OH263570   5.484   4.404   2.202 -0.3531  0.3307 -0.3963
14052TIP3    H163571   5.545   4.401   2.276 -0.1269  1.1628 -0.5279
14052TIP3    H263572   5.541   4.401   2.124 -0.3140  2.5514 -0.5321
14053TIP3   OH263573   0.757   5.932   3.285  0.1374  0.3351  0.1714
14053TIP3    H163574   0.743   5.937   3.379  0.6810 -0.6064  0.3161
14053TIP3    H263575   0.760   6.024   3.256  1.3277  0.6869  1.2900
14054TIP3   OH263576   5.117   6.151   4.937 -0.3753 -0.2584 -0.2161
14054TIP3    H163577   5.143   6.091   4.868 -2.2520 -0.2106 -1.0162
14054TIP3    H263578   5.133   6.238   4.901 -0.5710 -0.2406 -0.2581
14055TIP3   OH263579   2.528   0.216   0.659  0.0618 -0.0902  0.3162
14055TIP3    H163580   2.540   0.177   0.573  0.7535  0.7608  0.0195
14055TIP3    H263581   2.562   0.305   0.651 -1.1537  0.4746  1.0782
14056TIP3   OH263582   5.677   4.111   3.245 -0.0999 -0.1824 -0.1615
14056TIP3    H163583   5.763   4.124   3.206  1.3005 -2.0072  2.0561
14056TIP3    H263584   5.668   4.016   3.252 -2.0206 -0.0066  0.2727
14057TIP3   OH263585   0.349   1.973   5.213  0.2755  0.0270 -0.0067
14057TIP3    H163586   0.335   1.919   5.136  1.7043 -0.2478 -0.1024
14057TIP3    H263587   0.388   2.054   5.179  0.5244  0.0743  0.3879
14058TIP3   OH263588   1.201   4.971  11.945  0.5812 -0.5012  0.1399
14058TIP3    H163589   1.165   4.953  12.032  0.5833 -2.3345 -0.1991
14058TIP3    H263590   1.127   5.006  11.895  0.6197  0.7167  0.8905
14059TIP3   OH263591   3.089   3.332  13.732  0.6417  0.3030 -0.3616
14059TIP3    H163592   3.006   3.372  13.760  0.5211  0.3116 -0.7233
14059TIP3    H263593   3.149   3.406  13.721  0.9917  0.2194  0.8461
14060TIP3   OH263594   4.986   1.030  14.520  0.1250  0.1015 -0.5573
14060TIP3    H163595   4.899   1.001  14.546 -0.0435  0.0241 -1.2028
14060TIP3    H263596   5.014   0.968  14.453  1.0949 -0.4686  0.3344
14061TIP3   OH263597   4.988   3.491   4.974  0.1424  0.9068 -0.2064
14061TIP3    H163598   5.082   3.508   4.975  0.4470  0.0646 -3.2079
14061TIP3    H263599   4.981   3.397   4.990 -0.1615  0.8946 -0.4128
14062TIP3   OH263600   5.304   3.921   4.441  0.1824  0.0160  0.0599
14062TIP3    H163601   5.347   3.838   4.463  0.5398  0.3164  0.4997
14062TIP3    H263602   5.224   3.895   4.395 -0.0502 -0.5896  0.7898
14063TIP3   OH263603   6.647   1.836  17.213 -0.1752 -0.3738  0.2671
14063TIP3    H163604   6.580   1.768  17.212  0.0256 -0.7111 -3.2957
14063TIP3    H263605   6.714   1.804  17.274 -0.0612 -3.4571 -1.3100
14064TIP3   OH263606   1.121   2.277  11.344 -0.2871 -0.0422 -0.7627
14064TIP3    H163607   1.182   2.279  11.271 -1.1374  0.6005 -1.4766
14064TIP3    H263608   1.092   2.185  11.349  1.8830 -0.7402  0.6102
14065TIP3   OH263609   0.024   0.209  11.591  0.6600 -0.1306  0.1562
14065TIP3    H163610   0.050   0.154  11.665  1.8350  1.1182  0.7312
14065TIP3    H263611   0.042   0.298  11.621 -0.2929  0.5099 -1.0868
14066TIP3   OH263612   5.638   6.407   3.065 -0.1853 -0.0369 -0.3893
14066TIP3    H163613   5.694   6.345   3.019 -0.0721  0.5769 -1.1014
14066TIP3    H263614   5.590   6.451   2.995 -3.0128 -1.8487  0.2143
14067TIP3   OH263615   6.413   0.463   3.845 -0.6845  0.2762 -0.4385
14067TIP3    H163616   6.455   0.436   3.763 -0.3257  0.1881 -0.2290
14067TIP3    H263617   6.478   0.518   3.888 -0.8116  0.1960 -0.1414
14068TIP3   OH263618   0.269   1.581   1.353 -0.1969 -0.1206  0.4863
14068TIP3    H163619   0.337   1.646   1.332  0.4648 -0.9107  0.1385
14068TIP3    H263620   0.226   1.564   1.270  0.4377 -1.0162  0.3244
14069TIP3   OH263621   4.967   5.105   4.100 -0.1277  0.5439 -0.0306
14069TIP3    H163622   4.979   5.037   4.166 -0.9627 -0.0875 -0.5088
14069TIP3    H263623   5.056   5.134   4.078  0.3881 -1.6411 -1.1045
14070TIP3   OH263624   1.081   3.309  16.947  0.2359  0.1141 -0.7592
14070TIP3    H163625   1.114   3.323  16.858 -1.3595  1.0892 -1.2374
14070TIP3    H263626   1.030   3.228  16.941  1.6781 -0.8690 -0.2460
14071TIP3   OH263627   2.328   5.430  14.600 -0.1772  0.7840  0.0962
14071TIP3    H163628   2.286   5.509  14.568  0.4672  0.7774 -0.7929
14071TIP3    H263629   2.349   5.380  14.521  1.8995  0.9903  0.4797
14072TIP3   OH263630   5.943   2.510   5.292 -0.1233 -0.2332 -0.7488
14072TIP3    H163631   5.986   2.479   5.212  2.7228 -1.0063  0.9404
14072TIP3    H263632   5.934   2.432   5.347  0.6711  0.6980  0.7859
14073TIP3   OH263633   3.544   6.673  11.261 -0.4927 -0.1146  0.5978
14073TIP3    H163634   3.572   6.602  11.203 -0.9436 -0.8393  1.2417
14073TIP3    H263635   3.462   6.703  11.223 -1.0652 -0.9529  1.1429
14074TIP3   OH263636   3.954   4.110  10.578  0.2324 -0.1343 -0.2772
14074TIP3    H163637   4.037   4.070  10.553  0.5559  1.2974 -1.7202
14074TIP3    H263638   3.971   4.205  10.573 -1.9077  0.2478 -2.4412
14075TIP3   OH263639   0.023   2.960   4.835  0.6051 -0.3509  0.0298
14075TIP3    H163640   0.109   2.993   4.863 -0.0250  0.3798  1.1573
14075TIP3    H263641  -0.034   3.036   4.839 -0.0984 -0.8319 -0.7484
14076TIP3   OH263642   6.550   4.187   4.046 -0.3564  0.1602  0.9213
14076TIP3    H163643   6.578   4.098   4.066  1.3443  0.0036 -1.6922
14076TIP3    H263644   6.454   4.183   4.052 -0.5713 -2.6285 -1.5592
14077TIP3   OH263645   4.673   0.259  13.800  0.2986  0.2220 -0.1550
14077TIP3    H163646   4.636   0.341  13.833  0.5358  0.3781 -0.2801
14077TIP3    H263647   4.622   0.241  13.721  0.3537  0.3299 -0.2148
14078TIP3   OH263648   0.875   3.169  10.688  0.4520  0.4668 -0.0155
14078TIP3    H163649   0.945   3.228  10.717  0.5845 -0.0521  0.7579
14078TIP3    H263650   0.921   3.100  10.641  0.3461  0.7168 -0.4865
14079TIP3   OH263651   1.914   0.568   2.389 -0.1299 -0.3266 -0.1386
14079TIP3    H163652   1.898   0.475   2.370  0.8745 -1.1135  2.3414
14079TIP3    H263653   1.913   0.572   2.485  0.6830  2.0815 -0.1850
14080TIP3   OH263654   1.446   0.519   5.950  0.5695 -0.6078  0.4554
14080TIP3    H163655   1.501   0.457   5.998  1.5503  0.3757  0.6322
14080TIP3    H263656   1.375   0.466   5.915  1.0311 -1.7163  1.1553
14081TIP3   OH263657   0.991   2.296  15.971 -0.5641  0.2969 -0.2299
14081TIP3    H163658   1.003   2.203  15.954  0.0999 -0.2855  2.8342
14081TIP3    H263659   0.911   2.300  16.024 -2.7405  1.9833 -3.2904
14082TIP3   OH263660   6.708   2.133   2.884 -0.1891  0.1062  0.5326
14082TIP3    H163661   6.635   2.088   2.927 -0.3563  0.6345  0.8037
14082TIP3    H263662   6.712   2.219   2.926 -0.0911  0.4756 -0.2236
14083TIP3   OH263663   0.633   0.791   0.871  0.0158  0.0839  0.0973
14083TIP3    H163664   0.640   0.885   0.883 -1.5426  0.5780 -2.1582
14083TIP3    H263665   0.555   0.766   0.920 -0.3240  0.2324 -0.3547
14084TIP3   OH263666   0.165   5.360  14.850  0.5215 -0.5308 -0.1059
14084TIP3    H163667   0.205   5.446  14.834  1.5390 -1.0558 -0.4645
14084TIP3    H263668   0.186   5.341  14.942 -0.0443 -0.2346  0.0916
14085TIP3   OH263669   1.494   0.664   3.882  0.1668 -0.1901 -0.2334
14085TIP3    H163670   1.579   0.638   3.917  0.0461  0.9924  1.0192
14085TIP3    H263671   1.508   0.671   3.787  1.3952 -0.2733 -0.0702
14086TIP3   OH263672   5.271   1.247   4.580 -0.3362 -0.0415  0.4527
14086TIP3    H163673   5.276   1.152   4.576 -0.3598 -0.1190  1.6516
14086TIP3    H263674   5.183   1.265   4.614  0.4449  0.2821  2.4421
14087TIP3   OH263675   5.226   5.089   4.010 -0.6958  0.7939 -0.0266
14087TIP3    H163676   5.308   5.040   4.023  0.0543  1.9115 -0.3944
14087TIP3    H263677   5.221   5.103   3.916 -0.0525  2.7700  0.1866
14088TIP3   OH263678   0.879   2.737  13.058 -0.4558 -0.0018  0.0191
14088TIP3    H163679   0.809   2.799  13.035 -1.4200 -1.0694 -0.0423
14088TIP3    H263680   0.835   2.652  13.059  1.1203 -0.8772 -1.2696
14089TIP3   OH263681   0.877   1.438  15.066  0.1473 -0.3848 -0.1160
14089TIP3    H163682   0.943   1.498  15.030 -1.2818  1.3309  0.0240
14089TIP3    H263683   0.848   1.387  14.990 -1.3981  1.8308 -1.1166
14090TIP3   OH263684   5.120   0.429  13.398  0.4144  0.2175  0.2486
14090TIP3    H163685   5.106   0.470  13.484  1.0408  0.7546  0.1026
14090TIP3    H263686   5.036   0.389  13.377 -0.1677  1.2723  0.4866
14091TIP3   OH263687   6.368   1.656   2.166  0.1980  0.8572  0.7775
14091TIP3    H163688   6.382   1.723   2.099  1.6493 -0.7682 -0.6643
14091TIP3    H263689   6.454   1.614   2.176 -0.6348 -0.7431  1.6569
14092TIP3   OH263690   5.078   1.201  16.575  0.2127  0.6056 -0.4343
14092TIP3    H163691   5.109   1.138  16.510  0.3269 -0.3950  0.5560
14092TIP3    H263692   4.983   1.204  16.562  0.4260  1.9676 -1.9732
14093TIP3   OH263693   0.914   6.469   6.181 -0.1985  0.3978 -0.1134
14093TIP3    H163694   0.852   6.412   6.135  0.1408  0.0660 -0.1665
14093TIP3    H263695   0.945   6.416   6.254  1.7563 -0.3204 -1.3829
14094TIP3   OH263696   4.656   1.325   3.374 -0.4893 -0.3080 -0.7997
14094TIP3    H163697   4.724   1.322   3.442 -1.3136  0.1388  0.0612
14094TIP3    H263698   4.588   1.380   3.411 -1.7183 -1.4467 -1.2827
14095TIP3   OH263699   4.438   4.868  12.019 -0.2382  0.1964 -0.5742
14095TIP3    H163700   4.519   4.853  12.069 -0.3032  3.5548  0.8291
14095TIP3    H263701   4.468   4.895  11.933  0.0833  0.0498 -0.5123
14096TIP3   OH263702   6.590   2.629   4.336 -0.0444  0.1698  0.1060
14096TIP3    H163703   6.629   2.635   4.424 -0.4559  1.1228  0.2387
14096TIP3    H263704   6.630   2.551   4.297 -0.2324 -0.5711  1.3261
14097TIP3   OH263705   1.431   5.714  17.189 -0.7199 -0.4378 -0.3963
14097TIP3    H163706   1.441   5.744  17.279 -0.7374 -2.1223  0.2059
14097TIP3    H263707   1.339   5.730  17.169 -0.5659  0.5347 -0.3477
14098TIP3   OH263708   0.247   1.872  14.098  0.4836  0.1672 -0.1908
14098TIP3    H163709   0.207   1.924  14.168 -0.2281 -1.5566  0.7366
14098TIP3    H263710   0.193   1.890  14.021 -0.7970 -0.4395  0.5235
14099TIP3   OH263711   4.235   2.488  12.098 -0.5415 -0.4466 -0.7813
14099TIP3    H163712   4.179   2.563  12.082 -0.6872  0.3404  2.6645
14099TIP3    H263713   4.324   2.524  12.098 -0.5695 -0.3397  0.2742
14100TIP3   OH263714   0.686   2.447  10.526 -0.4508  0.5876 -0.4281
14100TIP3    H163715   0.760   2.466  10.582  0.7214  0.6057 -1.9113
14100TIP3    H263716   0.624   2.519  10.541 -1.1144 -0.4237  2.2598
14101TIP3   OH263717   0.121   2.994  15.376  0.2558  0.4150 -0.1411
14101TIP3    H163718   0.177   2.921  15.352  1.6734  2.3877 -3.5648
14101TIP3    H263719   0.038   2.976  15.331  0.3355  0.5045 -0.3261
14102TIP3   OH263720   5.380   6.751   3.793 -0.6472 -0.4961 -0.4167
14102TIP3    H163721   5.304   6.693   3.784 -1.0020  0.1104 -1.4345
14102TIP3    H263722   5.349   6.824   3.846 -0.6588 -0.4279 -0.5187
14103TIP3   OH263723   3.258   4.184  16.137 -0.2682 -0.0788  0.9438
14103TIP3    H163724   3.284   4.117  16.073 -0.0255 -1.2038  2.1875
14103TIP3    H263725   3.324   4.253  16.127  0.0891 -0.4921  0.3768
14104TIP3   OH263726   2.123   5.950  11.947  0.5989  0.0830 -0.3878
14104TIP3    H163727   2.161   5.957  12.035  0.7252 -0.1035 -0.4255
14104TIP3    H263728   2.039   5.995  11.953  0.7210  0.2914 -0.2383
14105TIP3   OH263729   6.513   2.184   0.390  0.4158 -0.1251  0.5071
14105TIP3    H163730   6.576   2.247   0.356  2.0614 -1.3805  1.0836
14105TIP3    H263731   6.506   2.118   0.321  0.3737 -0.4153  0.7873
14106TIP3   OH263732   1.433   5.296   3.062  0.9807 -0.4672 -1.0087
14106TIP3    H163733   1.460   5.373   3.113 -0.5207 -0.7215  0.2377
14106TIP3    H263734   1.398   5.235   3.127  0.5984 -1.5263 -2.1649
14107TIP3   OH263735   4.030   1.224   5.004 -0.8932 -0.2580 -0.4690
14107TIP3    H163736   4.000   1.201   4.916 -1.7279 -0.9419 -0.0259
14107TIP3    H263737   4.057   1.140   5.042  2.3314  0.3764 -1.0718
14108TIP3   OH263738   5.615   1.210  15.150  0.4876 -0.7631  0.4807
14108TIP3    H163739   5.640   1.241  15.237  0.7760 -0.2950  0.2317
14108TIP3    H263740   5.664   1.129  15.139  1.1381 -0.3639  0.3974
14109TIP3   OH263741   0.524   1.617  15.341 -0.2287  0.4192 -0.0767
14109TIP3    H163742   0.617   1.593  15.348 -0.0907  1.2387  1.1798
14109TIP3    H263743   0.501   1.595  15.251  0.5800 -1.8825  0.2155
14110TIP3   OH263744   1.633   5.153  13.897  0.4335 -0.0253  0.3163
14110TIP3    H163745   1.626   5.104  13.979 -0.4770 -0.4923 -0.0282
14110TIP3    H263746   1.727   5.164  13.884  0.6405 -1.1434  0.7285
14111TIP3   OH263747   6.663   1.747  12.962 -0.7440 -0.0444  0.4344
14111TIP3    H163748   6.568   1.753  12.954 -0.7503  0.5609  0.9072
14111TIP3    H263749   6.682   1.776  13.051 -0.0033  1.2597 -0.1042
14112TIP3   OH263750   1.739   5.967  13.135  0.1458 -0.3852 -0.4037
14112TIP3    H163751   1.709   5.889  13.087  0.9903 -0.5740 -0.6456
14112TIP3    H263752   1.834   5.962  13.130  0.2523 -0.3457  1.2209
14113TIP3   OH263753   2.945   2.961  15.911  0.1791 -0.6604  0.3091
14113TIP3    H163754   2.894   3.040  15.932 -0.4445 -0.6491 -1.1283
14113TIP3    H263755   3.027   2.994  15.875  0.6119 -0.6825  1.2488
14114TIP3   OH263756   4.492   3.184   0.630  0.2292 -0.0375 -0.4880
14114TIP3    H163757   4.524   3.243   0.698  1.3202 -1.8883  0.6995
14114TIP3    H263758   4.515   3.227   0.548  0.8342  1.2571  0.3292
14115TIP3   OH263759   4.895   5.998  16.282 -0.2691 -0.2463 -0.7441
14115TIP3    H163760   4.936   5.978  16.198  0.3131 -1.4469 -0.2154
14115TIP3    H263761   4.865   6.088  16.274 -0.0267 -0.2679 -2.1539
14116TIP3   OH263762   6.296   3.541   2.940  0.3957 -0.6364 -0.1364
14116TIP3    H163763   6.339   3.533   2.855 -1.5874 -1.0657 -1.1615
14116TIP3    H263764   6.286   3.451   2.970  1.5161 -0.4669  0.8186
14117TIP3   OH263765   0.743   5.051   4.123 -0.1294 -0.0280  1.2120
14117TIP3    H163766   0.805   5.095   4.065 -0.1148 -0.7833  0.6372
14117TIP3    H263767   0.662   5.101   4.115  0.2464  0.6502  1.5564
14118TIP3   OH263768   1.823   4.817   2.454  0.1969 -0.1764  0.1029
14118TIP3    H163769   1.791   4.753   2.391  0.1789 -0.4503  0.3906
14118TIP3    H263770   1.744   4.844   2.502  0.1072  0.5009 -0.4130
14119TIP3   OH263771   5.409   4.341   1.294  0.3924  0.2280 -0.0749
14119TIP3    H163772   5.429   4.301   1.379  0.1041 -2.1074 -1.0296
14119TIP3    H263773   5.314   4.338   1.288  0.4583 -0.6945 -0.9253
14120TIP3   OH263774   0.984   5.635  13.869 -0.4886  0.0124 -0.3825
14120TIP3    H163775   1.017   5.635  13.779  0.6478  0.1278  0.0179
14120TIP3    H263776   0.942   5.720  13.879  1.3311  0.9453 -0.1488
14121TIP3   OH263777   3.586   4.399   4.533 -0.3275 -0.3917 -0.0404
14121TIP3    H163778   3.681   4.405   4.525 -0.4457  1.1199 -0.5065
14121TIP3    H263779   3.561   4.330   4.472  0.3259  0.2614 -1.0697
14122TIP3   OH263780   1.434   3.161  11.883 -0.2750 -0.3435 -0.0769
14122TIP3    H163781   1.444   3.252  11.913  1.1671 -0.9607  1.4243
14122TIP3    H263782   1.482   3.158  11.800 -0.7504  0.3623 -0.3927
14123TIP3   OH263783   4.785   0.071  16.687 -0.0888 -0.5849  0.4677
14123TIP3    H163784   4.863   0.056  16.632 -0.4762  0.9465 -0.5568
14123TIP3    H263785   4.714   0.029  16.638  0.0270 -1.7680  1.2831
14124TIP3   OH263786   4.408   6.245  14.662  0.2827 -0.8073  0.6765
14124TIP3    H163787   4.496   6.263  14.696  0.2567 -0.9091  0.7988
14124TIP3    H263788   4.354   6.232  14.741 -0.5130  2.1723  0.7534
14125TIP3   OH263789   5.796   3.947   3.501 -0.8639 -0.2332 -0.0633
14125TIP3    H163790   5.790   3.975   3.409  0.6110  0.6407  0.0824
14125TIP3    H263791   5.767   3.856   3.499 -1.2121 -0.1200 -1.3356
14126TIP3   OH263792   2.153   3.947  10.777  0.6238  0.5511 -0.6533
14126TIP3    H163793   2.130   4.004  10.703  0.3751  1.4372  0.0883
14126TIP3    H263794   2.248   3.955  10.785  0.5257  1.3272 -0.1940
14127TIP3   OH263795   6.291   4.676   0.285  0.2851  0.5267  1.2620
14127TIP3    H163796   6.269   4.660   0.193 -1.1523  1.2393  1.4463
14127TIP3    H263797   6.210   4.711   0.323  1.0209  0.7810  2.6684
14128TIP3   OH263798   1.574   1.577   5.076 -0.2346 -0.2886 -0.6526
14128TIP3    H163799   1.526   1.624   5.007 -0.5916  0.1728 -0.0943
14128TIP3    H263800   1.603   1.645   5.136  0.4330 -0.6497 -0.5549
14129TIP3   OH263801   2.953   2.584   0.163  0.4422  0.0999  0.2478
14129TIP3    H163802   2.913   2.596   0.077  0.9344 -2.2694 -0.3822
14129TIP3    H263803   3.018   2.653   0.170 -0.4228  1.0535 -0.7494
14130TIP3   OH263804   2.338   1.758  15.025 -0.3164  0.3130 -0.3092
14130TIP3    H163805   2.315   1.810  14.948 -1.1247  1.8359  0.8823
14130TIP3    H263806   2.263   1.769  15.084 -0.4437 -2.1283  0.0858
14131TIP3   OH263807   4.403   2.960   4.660 -0.5357 -0.9644 -0.2298
14131TIP3    H163808   4.394   2.880   4.608  0.3174 -0.2084 -1.5750
14131TIP3    H263809   4.322   3.009   4.644 -0.7218 -1.1967 -0.0117
14132TIP3   OH263810   5.182   2.473  15.888  0.2939 -0.0453  0.0377
14132TIP3    H163811   5.207   2.551  15.839  0.0016 -0.9292 -1.6063
14132TIP3    H263812   5.257   2.415  15.880  0.1893 -0.2537  0.5347
14133TIP3   OH263813   0.854   2.643   1.917 -0.1978 -0.3061  0.3160
14133TIP3    H163814   0.795   2.600   1.855 -2.1615  0.9775  1.1826
14133TIP3    H263815   0.906   2.704   1.863 -0.9878 -0.1102 -0.2412
14134TIP3   OH263816   6.103   1.118   2.556 -0.3521  0.1035 -0.1586
14134TIP3    H163817   6.021   1.167   2.557 -1.8612 -2.3070 -0.0561
14134TIP3    H263818   6.079   1.030   2.528  2.4428 -0.3334 -1.5159
14135TIP3   OH263819   2.277   0.490  14.659  0.5232  0.2525  0.2151
14135TIP3    H163820   2.209   0.473  14.593  2.1622 -1.7508 -1.1023
14135TIP3    H263821   2.269   0.417  14.721  1.4120  0.0063  0.0584
14136TIP3   OH263822   5.165   4.543  14.610 -0.4046  0.1386 -0.0374
14136TIP3    H163823   5.121   4.612  14.560 -0.7537 -0.0358  0.0260
14136TIP3    H263824   5.122   4.546  14.696 -0.2271  0.0309  0.0535
14137TIP3   OH263825   0.131   1.411  16.309 -0.4625 -0.3966 -0.6488
14137TIP3    H163826   0.207   1.445  16.355 -0.3954 -1.2328 -0.1090
14137TIP3    H263827   0.151   1.424  16.217  0.3393 -0.5859 -0.5148
14138TIP3   OH263828   3.257   2.389   2.486 -0.1011 -0.2359 -0.0253
14138TIP3    H163829   3.268   2.385   2.581 -1.8154 -0.9199  0.1805
14138TIP3    H263830   3.177   2.340   2.469  1.0592 -1.6383 -2.0014
14139TIP3   OH263831   0.603   5.355  14.594  0.2857  0.2134  0.0626
14139TIP3    H163832   0.515   5.353  14.555  0.8970  0.9159 -1.4258
14139TIP3    H263833   0.592   5.311  14.679 -1.8477  1.7035  0.6544
14140TIP3   OH263834   6.651   5.123   4.719  0.2012 -0.3223  0.4690
14140TIP3    H163835   6.575   5.131   4.777  0.0579 -1.1140  0.4046
14140TIP3    H263836   6.659   5.209   4.677 -0.7559 -0.2845  0.3530
14141TIP3   OH263837   0.147   6.403   6.348 -0.2503 -0.4044  0.1112
14141TIP3    H163838   0.209   6.476   6.352 -0.6320  0.0076 -0.9706
14141TIP3    H263839   0.103   6.404   6.433 -0.3073  0.6960  0.0808
14142TIP3   OH263840   3.442   2.392   0.549 -0.0961  0.6589  0.0322
14142TIP3    H163841   3.535   2.390   0.574  0.5110  2.2920 -1.7995
14142TIP3    H263842   3.397   2.419   0.629  1.2562  1.7758  0.4663
14143TIP3   OH263843   3.063   1.901  15.652  0.0346 -0.2600  0.1463
14143TIP3    H163844   3.141   1.922  15.703  0.6140 -1.1040 -0.3549
14143TIP3    H263845   2.996   1.961  15.684  1.5901  2.4555 -1.2829
14144TIP3   OH263846   3.453   5.572  14.774 -0.7203  0.1728 -0.5971
14144TIP3    H163847   3.403   5.555  14.854 -0.4145  2.1046  0.0669
14144TIP3    H263848   3.391   5.558  14.703 -1.1967 -0.8733 -0.0027
14145TIP3   OH263849   3.391   3.123   1.310 -0.1910 -0.0306 -0.1893
14145TIP3    H163850   3.483   3.148   1.319 -0.4339  1.1034 -0.7162
14145TIP3    H263851   3.346   3.175   1.377 -0.8153  1.7053 -1.8630
14146TIP3   OH263852   2.167   5.015  12.178 -0.5626 -0.0251 -0.2853
14146TIP3    H163853   2.098   5.079  12.192  0.2289  1.4732 -2.6412
14146TIP3    H263854   2.133   4.958  12.109 -0.9678 -1.7996  1.2902
14147TIP3   OH263855   6.635   1.623  12.229  0.3497 -0.3061  0.1256
14147TIP3    H163856   6.633   1.532  12.201 -1.4045 -0.2704  0.0321
14147TIP3    H263857   6.598   1.672  12.156 -0.3516  0.2675  0.8370
14148TIP3   OH263858   5.814   6.036   6.096  0.6758 -0.6298 -0.3647
14148TIP3    H163859   5.824   6.042   6.001 -0.2451  1.1548 -0.3895
14148TIP3    H263860   5.901   6.013   6.128  1.6938  1.4771 -1.4549
14149TIP3   OH263861   6.029   0.052  12.768  0.2195  0.4360 -0.3982
14149TIP3    H163862   5.976   0.048  12.688  1.0557  0.0382 -0.9356
14149TIP3    H263863   5.966   0.077  12.836 -0.4021  1.3296 -1.2693
14150TIP3   OH263864   3.896   4.964  14.492  0.4721  0.2477  0.1828
14150TIP3    H163865   3.877   5.035  14.553  0.8684  0.8494 -0.3917
14150TIP3    H263866   3.840   4.892  14.522  0.1681  0.7513  0.8507
14151TIP3   OH263867   2.714   2.400   1.029  0.8357  0.2520 -0.3572
14151TIP3    H163868   2.722   2.318   0.980  0.3149 -0.2849  0.4498
14151TIP3    H263869   2.804   2.430   1.039  1.1726 -1.0211  0.6665
14152TIP3   OH263870   4.361   3.202  13.933  0.2433  0.2567 -0.1620
14152TIP3    H163871   4.300   3.262  13.974 -0.6594 -1.3606  0.9533
14152TIP3    H263872   4.306   3.143  13.881  1.1607  0.7204 -1.7532
14153TIP3   OH263873   6.379   1.361  14.670 -0.0513 -0.1578 -0.3893
14153TIP3    H163874   6.299   1.411  14.685  0.9597  2.4121 -2.6436
14153TIP3    H263875   6.351   1.286  14.617 -1.0723  0.3723 -0.6340
14154TIP3   OH263876   3.221   0.682  14.074  0.1562  0.0622  0.3954
14154TIP3    H163877   3.213   0.648  13.985  0.2505 -0.0082  0.4125
14154TIP3    H263878   3.291   0.629  14.112 -0.7883 -0.8248  0.9486
14155TIP3   OH263879   4.313   1.377  16.594  0.1579  0.1662  0.3252
14155TIP3    H163880   4.267   1.419  16.667 -0.2279  1.4792 -0.6360
14155TIP3    H263881   4.327   1.287  16.623 -0.2893  0.5687  1.8759
14156TIP3   OH263882   5.189   3.236  11.470 -0.1076  0.6223 -0.2711
14156TIP3    H163883   5.227   3.156  11.505  1.4653  1.6687  0.5261
14156TIP3    H263884   5.110   3.207  11.424  0.9996 -1.5132 -0.9524
14157TIP3   OH263885   4.716   5.839  14.283 -0.2213  0.1198  0.2824
14157TIP3    H163886   4.634   5.846  14.333  0.2877 -1.2598  1.3747
14157TIP3    H263887   4.727   5.925  14.243 -1.7934  0.5771  0.7634
14158TIP3   OH263888   3.212   2.090  16.925 -0.0039  0.3394  0.1765
14158TIP3    H163889   3.140   2.132  16.877 -0.3122 -0.8343 -0.4231
14158TIP3    H263890   3.281   2.156  16.927 -0.1520  0.5935 -1.4958
14159TIP3   OH263891   5.619   2.887   1.741 -0.0655 -0.8531  0.7147
14159TIP3    H163892   5.713   2.884   1.723 -0.3969  0.6522 -1.7344
14159TIP3    H263893   5.608   2.835   1.821  2.7893 -1.2635  0.9416
14160TIP3   OH263894   5.383   2.793  14.590 -0.8591 -0.1254 -0.0584
14160TIP3    H163895   5.362   2.849  14.664 -0.3691  0.4417 -0.3434
14160TIP3    H263896   5.473   2.816  14.566 -1.2432  0.2207 -1.2729
14161TIP3   OH263897   2.724   0.294  15.044  0.0867  0.5325 -0.3822
14161TIP3    H163898   2.751   0.302  14.952  1.5187 -1.3306 -0.1688
14161TIP3    H263899   2.648   0.236  15.042 -2.2189  3.3157 -0.6584
14162TIP3   OH263900   1.101   2.680  11.665 -0.3515 -0.0783 -0.4241
14162TIP3    H163901   1.194   2.659  11.678 -0.1543  0.5243 -0.8114
14162TIP3    H263902   1.076   2.629  11.588 -0.1273  0.3456 -0.7870
14163TIP3   OH263903   2.948   1.997  13.803  0.0216  0.5325  0.0689
14163TIP3    H163904   2.991   2.072  13.844 -0.8899  0.5217  1.0856
14163TIP3    H263905   2.887   1.965  13.870 -0.4543 -0.3874 -0.7858
14164TIP3   OH263906   6.750   4.439   0.156 -0.2232 -0.1873 -0.5965
14164TIP3    H163907   6.666   4.413   0.116  0.0813  0.9070 -2.0155
14164TIP3    H263908   6.725   4.500   0.225 -0.6236 -0.1544 -0.7640
14165TIP3   OH263909   3.741   2.372  13.000  0.2053  0.1916 -0.5635
14165TIP3    H163910   3.666   2.406  12.951 -1.9424  0.0129  2.2900
14165TIP3    H263911   3.806   2.441  12.997 -0.8030  1.1313 -1.6131
14166TIP3   OH263912   0.934   5.003   6.223 -0.0956  0.1762 -0.0976
14166TIP3    H163913   0.838   5.007   6.220 -0.2464 -2.3269 -0.1369
14166TIP3    H263914   0.954   4.959   6.305  1.1300  1.8772  0.5828
14167TIP3   OH263915   3.793   6.720   0.709  0.3547 -0.3795  0.3936
14167TIP3    H163916   3.752   6.665   0.643 -2.2071  0.0568  1.4940
14167TIP3    H263917   3.885   6.727   0.682 -0.2157 -1.6200 -2.1018
14168TIP3   OH263918   3.515   4.101   3.585 -0.6009 -0.0074  0.5222
14168TIP3    H163919   3.601   4.078   3.549 -0.2296  2.4311 -0.3350
14168TIP3    H263920   3.457   4.104   3.508 -0.9301  0.5324  0.7871
14169TIP3   OH263921   2.154   3.973  11.963 -0.7490 -0.9435 -0.0156
14169TIP3    H163922   2.191   3.939  12.044 -1.3516 -0.8248  0.3167
14169TIP3    H263923   2.087   4.035  11.991 -0.7054 -0.6169 -0.6082
14170TIP3   OH263924   4.344   5.419  11.374  0.6721  0.0366 -0.2401
14170TIP3    H163925   4.408   5.394  11.440 -0.4369 -2.6583 -0.0552
14170TIP3    H263926   4.337   5.342  11.316 -0.6803  1.1193 -1.6214
14171TIP3   OH263927   3.326   6.507   3.059  0.2073  0.0315 -0.1226
14171TIP3    H163928   3.357   6.595   3.036  0.6507 -0.2556 -0.6530
14171TIP3    H263929   3.358   6.493   3.148 -0.5524  0.7173  0.2686
14172TIP3   OH263930   5.044   4.827  15.226 -0.3316  0.0488 -0.9185
14172TIP3    H163931   5.071   4.736  15.240  2.0257  0.8085  0.0200
14172TIP3    H263932   5.119   4.879  15.256 -1.9123  2.3377 -0.6887
14173TIP3   OH263933   4.675   0.770  17.107 -0.3255  0.3967  0.0381
14173TIP3    H163934   4.655   0.676  17.104  0.1117  0.2995 -0.0126
14173TIP3    H263935   4.643   0.799  17.192 -1.6180  0.4802 -0.4672
14174TIP3   OH263936   4.143   1.507  16.775 -0.2645 -0.6994 -0.1377
14174TIP3    H163937   4.122   1.468  16.859  0.2181 -0.9048 -0.1114
14174TIP3    H263938   4.071   1.567  16.757 -0.3989 -0.7050  0.3907
14175TIP3   OH263939   0.414   1.050   0.848 -0.1903 -0.1960 -0.1316
14175TIP3    H163940   0.419   1.000   0.767 -2.1137  0.6239 -0.8209
14175TIP3    H263941   0.467   1.127   0.832  0.4367 -0.6263 -0.1426
14176TIP3   OH263942   0.124   6.262   5.596  0.1097 -0.1472  0.0341
14176TIP3    H163943   0.089   6.309   5.520 -0.0536 -0.3161  0.0070
14176TIP3    H263944   0.145   6.175   5.563  0.6185 -0.0293  0.0315
14177TIP3   OH263945   3.386   3.800   4.715 -0.1750  0.7115  0.2732
14177TIP3    H163946   3.372   3.760   4.801 -0.5487 -1.1398 -0.5934
14177TIP3    H263947   3.389   3.726   4.654 -3.4840  2.0476 -1.7998
14178TIP3   OH263948   5.698   2.182   4.189  0.8306  0.0846  0.0099
14178TIP3    H163949   5.674   2.122   4.259 -0.1083 -0.0146 -0.3800
14178TIP3    H263950   5.774   2.230   4.224  0.3842  0.0411  1.0879
14179TIP3   OH263951   0.328   3.281   6.247  0.0007 -0.2849 -0.5920
14179TIP3    H163952   0.356   3.291   6.338  0.5383  2.9104 -1.0103
14179TIP3    H263953   0.257   3.216   6.252  1.6294 -2.0867  1.6808
14180TIP3   OH263954   0.059   3.848   6.069  0.1427  0.6078  0.3927
14180TIP3    H163955   0.006   3.799   6.007  1.0931  2.8696 -2.4226
14180TIP3    H263956   0.149   3.825   6.049  0.4547 -0.3233  2.5677
14181TIP3   OH263957   4.780   0.132  16.334  0.2083 -0.1279  0.7479
14181TIP3    H163958   4.716   0.062  16.346 -1.0595  0.9272  0.3662
14181TIP3    H263959   4.731   0.213  16.351  1.1127  0.7933 -0.7745
14182TIP3   OH263960   6.386   1.884  13.383 -0.1890 -0.1261 -0.0785
14182TIP3    H163961   6.319   1.941  13.421  0.0794  0.0121  0.1896
14182TIP3    H263962   6.447   1.944  13.341 -0.7931 -0.3023 -1.2577
14183TIP3   OH263963   1.072   1.923   5.550  0.0423  0.0271 -0.0808
14183TIP3    H163964   0.998   1.956   5.500  0.1234  0.8483  0.3275
14183TIP3    H263965   1.065   1.966   5.635  1.5709  0.9834 -0.3828
14184TIP3   OH263966   3.181   5.339  10.674  0.0109  0.1407 -0.2173
14184TIP3    H163967   3.184   5.371  10.584  0.9194 -0.9015 -0.5794
14184TIP3    H263968   3.264   5.369  10.712  0.0427 -0.2052 -0.0117
14185TIP3   OH263969   1.055   4.218  13.357  0.2839 -0.2992  0.2180
14185TIP3    H163970   1.002   4.142  13.337  0.5435 -0.5697  0.5459
14185TIP3    H263971   1.106   4.192  13.433 -0.9343  0.8102  1.4739
14186TIP3   OH263972   1.972   4.854  14.754  0.3961  0.0264  0.5459
14186TIP3    H163973   1.921   4.843  14.834 -1.4933  0.6402 -0.5313
14186TIP3    H263974   2.010   4.767  14.739  1.0427 -0.0276  2.2362
14187TIP3   OH263975   6.757   6.301   4.837 -0.2166  0.2403 -0.4458
14187TIP3    H163976   6.795   6.251   4.764 -0.1191 -1.7509  0.8892
14187TIP3    H263977   6.833   6.330   4.887 -0.3116 -1.1055  0.5383
14188TIP3   OH263978   1.413   5.451   5.990  0.1155  0.6136  0.7623
14188TIP3    H163979   1.384   5.407   6.070 -0.0775 -1.7001 -0.4887
14188TIP3    H263980   1.440   5.380   5.932  0.9399  2.2553 -0.9778
14189TIP3   OH263981   1.103   4.488   3.223  0.0230  0.1296  0.1684
14189TIP3    H163982   1.016   4.488   3.263 -1.2222 -0.9864 -2.3280
14189TIP3    H263983   1.160   4.450   3.290 -1.7762 -0.9630  1.1716
14190TIP3   OH263984   5.756   1.426  14.995  0.1988  0.0183  0.5880
14190TIP3    H163985   5.745   1.518  14.971  1.5418 -0.2203 -1.0799
14190TIP3    H263986   5.666   1.393  15.005 -0.3050  1.3338  0.5991
14191TIP3   OH263987   4.994   5.777  15.114  0.3691 -0.4193  0.2592
14191TIP3    H163988   4.963   5.690  15.090 -1.6063  0.7458 -1.7230
14191TIP3    H263989   5.090   5.771  15.105  0.2109 -2.1338 -0.7319
14192TIP3   OH263990   2.480   0.120   0.059 -0.3259 -0.0850  0.6986
14192TIP3    H163991   2.554   0.102   0.001 -0.1366 -0.6377  1.0938
14192TIP3    H263992   2.519   0.159   0.137 -0.3589 -1.0097  1.1912
14193TIP3   OH263993   1.807   4.914  14.513 -0.3289 -0.6368 -1.0545
14193TIP3    H163994   1.868   4.890  14.582  0.4399  0.6217 -1.2737
14193TIP3    H263995   1.827   4.853  14.441 -0.9315 -1.7497 -0.3010
14194TIP3   OH263996   1.077   3.823  12.390 -0.0566  0.3659  0.3447
14194TIP3    H163997   1.118   3.864  12.315  0.7025  0.0608  0.5802
14194TIP3    H263998   1.062   3.895  12.452  0.3430  0.4444  0.3520
14195TIP3   OH263999   2.696   2.875  14.166 -0.0282 -0.6864 -0.4630
14195TIP3    H164000   2.753   2.810  14.125  2.7635  1.5241 -0.4075
14195TIP3    H264001   2.747   2.909  14.240 -1.7989  0.8091  0.1640
14196TIP3   OH264002   6.572   2.682  14.216 -0.3143 -0.0693  0.2162
14196TIP3    H164003   6.507   2.665  14.284 -1.2517 -0.7536 -0.8208
14196TIP3    H264004   6.558   2.774  14.192 -0.7492 -0.1454  0.1624
14197TIP3   OH264005   0.249   6.492   5.356  0.1061  0.7602  0.1738
14197TIP3    H164006   0.158   6.516   5.338 -0.0997  1.2286  1.6426
14197TIP3    H264007   0.245   6.450   5.442  1.3058  0.9914  0.3541
14198TIP3   OH264008   1.658   1.634  13.846 -0.0695  0.3955  0.0036
14198TIP3    H164009   1.723   1.607  13.781 -1.4642 -0.2124 -1.1978
14198TIP3    H264010   1.619   1.714  13.810 -0.9740 -0.0392 -0.0170
14199TIP3   OH264011   5.558   1.929  14.361 -0.0455 -0.1033 -0.4739
14199TIP3    H164012   5.528   1.994  14.297 -1.6046 -1.0176 -0.7451
14199TIP3    H264013   5.484   1.920  14.422  1.9155  1.8085  2.4355
14200TIP3   OH264014   2.817   3.322   4.830 -0.0192  0.3106  0.0624
14200TIP3    H164015   2.824   3.405   4.877 -2.1839 -0.3807  1.7701
14200TIP3    H264016   2.830   3.345   4.738 -0.5731  2.5491  0.4817
14201TIP3   OH264017   2.710   5.007  12.036  0.2795 -0.1229  0.5477
14201TIP3    H164018   2.711   4.916  12.007  0.5398  0.1466 -0.3099
14201TIP3    H264019   2.710   5.058  11.955  2.2417  0.6668  0.9822
14202TIP3   OH264020   5.233   5.141   3.296 -0.2986 -0.3779  0.1776
14202TIP3    H164021   5.169   5.164   3.363  0.3682 -0.4150  0.8401
14202TIP3    H264022   5.302   5.206   3.305  0.4722 -1.2164  0.4823
14203TIP3   OH264023   3.865   3.212   4.689  0.6535  0.4674  0.4432
14203TIP3    H164024   3.872   3.276   4.618  0.0235  0.5836  0.4860
14203TIP3    H264025   3.954   3.205   4.723  0.8047  1.0199  0.1755
14204TIP3   OH264026   3.048   4.247   5.600  0.3183  0.3493 -0.1636
14204TIP3    H164027   2.980   4.180   5.611  0.1846  0.8134  2.5628
14204TIP3    H264028   3.128   4.204   5.630  0.7963  0.5504 -1.1241
14205TIP3   OH264029   3.854   1.705  12.957 -0.1090  0.2651 -0.0698
14205TIP3    H164030   3.848   1.662  12.871 -1.2468 -0.9432  0.5711
14205TIP3    H264031   3.800   1.783  12.948 -1.0732 -0.3909 -0.1768
14206TIP3   OH264032   2.501   4.030   6.300 -0.9622  0.2199 -0.0708
14206TIP3    H164033   2.444   4.026   6.377 -1.1028 -0.0569 -0.1888
14206TIP3    H264034   2.467   4.105   6.250 -0.2765  1.0068  0.5980
14207TIP3   OH264035   4.512   0.980  13.328 -0.5247 -0.0342 -0.1203
14207TIP3    H164036   4.542   1.028  13.251 -1.9835 -0.0441 -0.7271
14207TIP3    H264037   4.443   1.035  13.365 -0.1352 -0.2364  0.9474
14208TIP3   OH264038   3.039   0.054  13.947 -0.3740  0.2621 -0.1125
14208TIP3    H164039   3.055  -0.005  14.021 -1.6087  0.1499  0.0761
14208TIP3    H264040   3.080   0.136  13.972  0.3598 -0.1685  0.1207
14209TIP3   OH264041   1.523   1.642  14.159 -0.1472  0.5355  0.2744
14209TIP3    H164042   1.507   1.609  14.071  0.2927  0.3947  0.2425
14209TIP3    H264043   1.460   1.713  14.171 -0.1781  0.5815 -0.1671
14210TIP3   OH264044   5.807   0.646   4.932  0.2686  0.3657 -0.1175
14210TIP3    H164045   5.849   0.720   4.889  0.5245 -0.5255 -1.4657
14210TIP3    H264046   5.872   0.616   4.996  1.1356 -0.1049 -1.1791
14211TIP3   OH264047   0.504   1.975   4.056  0.2678 -0.4150  0.1924
14211TIP3    H164048   0.554   2.002   3.979  1.5412  0.9293  1.4302
14211TIP3    H264049   0.469   1.888   4.033  1.0141 -0.2635 -1.6803
14212TIP3   OH264050   1.978   6.074  12.269 -1.0858  0.9050 -0.4327
14212TIP3    H164051   1.986   6.168  12.289 -1.4674  1.5059 -2.7695
14212TIP3    H264052   1.909   6.070  12.204 -2.9063 -1.3528  1.4568
14213TIP3   OH264053   4.021   2.078   0.582 -0.4887  0.2620 -0.3195
14213TIP3    H164054   3.958   2.018   0.620 -2.6980  1.3685 -1.9520
14213TIP3    H264055   4.012   2.158   0.634 -0.8907  0.6076 -0.9056
14214TIP3   OH264056   5.672   0.239  16.988 -0.1193  0.0612  0.2830
14214TIP3    H164057   5.599   0.274  16.937 -0.2487  2.2592  1.8568
14214TIP3    H264058   5.644   0.150  17.011 -0.5088 -0.6367 -2.4605
14215TIP3   OH264059   3.035   5.350   1.139  0.1972  0.0921 -0.1194
14215TIP3    H164060   3.127   5.371   1.123  1.0289 -1.3693  2.2873
14215TIP3    H264061   3.034   5.255   1.150 -1.1986  0.3118  2.0658
14216TIP3   OH264062   0.612   2.445  17.173 -0.1342  0.6718 -0.5159
14216TIP3    H164063   0.646   2.355  17.171  0.8924  1.0258  0.0321
14216TIP3    H264064   0.524   2.439  17.136 -0.8909 -0.8949  1.3593
14217TIP3   OH264065   5.658   4.023  11.028 -0.1076 -0.2503  0.6647
14217TIP3    H164066   5.689   3.983  10.946 -0.8329  1.0588 -0.2744
14217TIP3    H264067   5.579   3.973  11.050 -1.3079  0.9019 -0.7840
14218TIP3   OH264068   0.384   1.356  13.848 -0.4710 -0.8788 -0.1678
14218TIP3    H164069   0.394   1.393  13.760  2.4947  1.0179  0.8369
14218TIP3    H264070   0.331   1.420  13.895 -1.6792 -1.6769 -0.4042
14219TIP3   OH264071   1.669   0.555  12.779 -0.2342  0.5202  0.3045
14219TIP3    H164072   1.586   0.543  12.732  0.5441 -0.0314 -0.9625
14219TIP3    H264073   1.712   0.470  12.775  0.0372  0.5752  1.6838
14220TIP3   OH264074   0.933   4.881  14.332 -0.2452 -0.0500 -0.6943
14220TIP3    H164075   0.905   4.941  14.263 -1.7591 -0.0525 -0.1286
14220TIP3    H264076   0.929   4.934  14.412 -1.9668 -0.9400 -0.1324
14221TIP3   OH264077   2.698   4.609  12.465  0.7483 -0.0084  0.0361
14221TIP3    H164078   2.634   4.679  12.476  0.2690 -0.3610 -0.4297
14221TIP3    H264079   2.767   4.647  12.411  0.5223  0.1282 -0.1585
14222TIP3   OH264080   6.572   2.937   1.982  0.4768  0.1462  0.2768
14222TIP3    H164081   6.493   2.884   1.967  1.1486 -0.6261 -0.6333
14222TIP3    H264082   6.619   2.935   1.898  2.3371 -0.8629  1.2880
14223TIP3   OH264083   4.122   6.388  12.597  0.1040  0.7449 -0.0029
14223TIP3    H164084   4.100   6.413  12.507  2.1005 -1.5337 -1.2305
14223TIP3    H264085   4.186   6.453  12.625 -0.9879  1.8339  0.0543
14224TIP3   OH264086   3.994   0.620  14.469 -0.4981  0.5304 -0.1654
14224TIP3    H164087   3.932   0.693  14.462 -0.2571  0.6884 -0.7138
14224TIP3    H264088   4.022   0.604  14.379  0.6182  0.7712  0.1324
14225TIP3   OH264089   4.747   1.088  11.043  0.3320 -0.0234  0.0794
14225TIP3    H164090   4.757   0.996  11.067 -0.2842 -0.3461 -0.8223
14225TIP3    H264091   4.756   1.088  10.947 -0.7888  0.6831 -0.0392
14226TIP3   OH264092   3.179   6.590   2.613  0.2283 -0.2146 -0.0151
14226TIP3    H164093   3.258   6.566   2.564  0.2268  0.2817 -0.2724
14226TIP3    H264094   3.113   6.526   2.585  0.0890  0.3557 -1.0587
14227TIP3   OH264095   6.356   4.054   2.174 -0.1882 -0.2178  0.1176
14227TIP3    H164096   6.285   4.089   2.120 -2.7371 -3.8447  0.7978
14227TIP3    H264097   6.326   4.065   2.264 -0.3379 -2.5303  0.3951
14228TIP3   OH264098   0.076   6.101  15.921  0.3432 -0.8403  0.4211
14228TIP3    H164099   0.145   6.122  15.859  0.9899 -1.6440  0.8522
14228TIP3    H264100   0.081   6.170  15.987  0.0090 -0.2923 -0.1131
14229TIP3   OH264101   1.414   2.351  17.253  0.3749 -0.7501  0.1807
14229TIP3    H164102   1.485   2.349  17.317  1.1967 -0.7626 -0.7073
14229TIP3    H264103   1.444   2.413  17.186 -0.7907 -0.1855  0.1755
14230TIP3   OH264104   4.784   0.808   5.973 -0.1860 -0.3546  0.6042
14230TIP3    H164105   4.775   0.763   6.057 -2.6487 -0.3268  0.4085
14230TIP3    H264106   4.830   0.745   5.917 -0.1487 -1.0806  1.4342
14231TIP3   OH264107   5.401   0.616   1.530 -0.1183 -0.3721 -0.2001
14231TIP3    H164108   5.457   0.692   1.545 -0.5252  0.1123 -1.0617
14231TIP3    H264109   5.445   0.545   1.576  1.4308 -0.1016 -1.1799
14232TIP3   OH264110   0.643   5.194  15.559  0.3693  0.1787 -0.0791
14232TIP3    H164111   0.608   5.195  15.470 -0.9358  0.8135  0.4193
14232TIP3    H264112   0.713   5.260  15.558  1.7672 -1.2582 -1.1395
14233TIP3   OH264113   2.453   1.571   2.882  0.3266  0.4410 -0.0812
14233TIP3    H164114   2.358   1.582   2.878  0.2436 -0.4901 -1.1548
14233TIP3    H264115   2.489   1.657   2.862 -0.2895  0.6164 -0.4347
14234TIP3   OH264116   1.355   1.834   4.812  0.6109 -0.5572 -0.6933
14234TIP3    H164117   1.444   1.835   4.849  0.3097 -2.7254  0.2124
14234TIP3    H264118   1.301   1.798   4.881 -1.2210  1.6261 -0.8703
14235TIP3   OH264119   0.866   1.933  12.563 -0.1281  0.1251  0.0714
14235TIP3    H164120   0.920   1.999  12.519 -0.8858  0.9880  0.4096
14235TIP3    H264121   0.925   1.858  12.574  0.7246  0.7061 -0.3992
14236TIP3   OH264122   0.083   1.271   0.938 -0.7502  0.1042  0.4771
14236TIP3    H164123   0.009   1.219   0.907 -0.7604  0.2617  0.2296
14236TIP3    H264124   0.109   1.324   0.862 -1.1873  0.9731  0.9191
14237TIP3   OH264125   3.892   0.075  12.282 -0.3493 -0.0685 -0.5789
14237TIP3    H164126   3.846   0.149  12.243  1.6674  0.5853 -1.8859
14237TIP3    H264127   3.830   0.003  12.280 -2.6102  1.6597  1.2877
14238TIP3   OH264128   1.234   0.822  16.361 -0.0613 -0.2719 -0.0223
14238TIP3    H164129   1.318   0.797  16.322  0.2522 -1.4228  1.3094
14238TIP3    H264130   1.178   0.843  16.286  0.6240 -2.0331 -1.1009
14239TIP3   OH264131   6.727   1.165   4.034 -0.6048 -0.5969  0.3983
14239TIP3    H164132   6.749   1.111   3.959  1.0428  0.1487  0.3116
14239TIP3    H264133   6.753   1.113   4.110 -0.7354 -0.6765  0.3885
14240TIP3   OH264134   3.704   2.864  13.517  0.2723 -0.3481  0.7700
14240TIP3    H164135   3.651   2.926  13.466 -0.9094 -1.4395  0.6380
14240TIP3    H264136   3.789   2.864  13.473 -0.0708  0.3237  0.0776
14241TIP3   OH264137   3.963   4.011  16.938 -0.5190 -0.2686 -0.1533
14241TIP3    H164138   3.982   4.104  16.951 -0.8136 -0.0116 -1.3557
14241TIP3    H264139   3.894   4.011  16.871 -0.7865 -1.3465  0.1109
14242TIP3   OH264140   2.478   1.337   0.962  0.1720 -0.2602  0.2392
14242TIP3    H164141   2.524   1.325   1.045 -3.3112  0.6466  2.5629
14242TIP3    H264142   2.403   1.277   0.968  0.2498 -0.7843 -2.6990
14243TIP3   OH264143   6.161   3.893  15.282  0.2681 -0.2466 -0.1425
14243TIP3    H164144   6.243   3.942  15.283  1.3690 -1.9909  1.6276
14243TIP3    H264145   6.095   3.957  15.308  1.4086  0.6711  0.6031
14244TIP3   OH264146   5.434   2.996  12.431  0.0400  0.6077 -0.1899
14244TIP3    H164147   5.364   2.944  12.392 -0.3088  1.1001 -0.2227
14244TIP3    H264148   5.391   3.073  12.467  0.7847  2.2028 -2.4121
14245TIP3   OH264149   0.659   1.577  13.010 -0.1792 -0.6441 -0.2533
14245TIP3    H164150   0.591   1.644  12.997  0.3439 -0.2251 -0.8708
14245TIP3    H264151   0.617   1.496  12.980 -0.0170 -0.1868 -1.7980
14246TIP3   OH264152   0.136   6.017  11.800  0.6271 -0.2239  0.8117
14246TIP3    H164153   0.047   6.041  11.773 -0.1836 -3.0476  0.6017
14246TIP3    H264154   0.192   6.083  11.760 -1.2856  0.9442 -0.0829
14247TIP3   OH264155   2.517   3.076  15.762  0.2584 -0.0446  0.4378
14247TIP3    H164156   2.556   2.990  15.778  1.6912  0.5202  0.1314
14247TIP3    H264157   2.556   3.133  15.829 -1.4534  0.1862  1.2979
14248TIP3   OH264158   5.912   6.689  15.929 -0.6113  0.0609 -0.3214
14248TIP3    H164159   5.914   6.664  15.836 -0.0244  0.3896 -0.4012
14248TIP3    H264160   5.991   6.648  15.966 -0.3733  0.6622 -0.1603
14249TIP3   OH264161   2.438   4.829   1.956 -0.0484 -0.0362  0.3179
14249TIP3    H164162   2.491   4.791   1.886  0.0229  0.7744 -0.0862
14249TIP3    H264163   2.459   4.923   1.953 -0.4222  0.0779  1.0991
14250TIP3   OH264164   3.682   6.126   6.449 -0.1481  0.4049  0.3406
14250TIP3    H164165   3.727   6.161   6.526 -1.9632  1.8417  0.8224
14250TIP3    H264166   3.590   6.145   6.465 -0.4676  2.2143 -2.9109
14251TIP3   OH264167   6.628   1.033   4.573  0.0420 -0.1004  0.1769
14251TIP3    H164168   6.601   0.970   4.506  1.0859 -2.1124  1.5452
14251TIP3    H264169   6.700   1.081   4.533  3.2206 -3.7844  0.8811
14252TIP3   OH264170   5.343   1.476  15.220 -0.2505  0.2506  0.1193
14252TIP3    H164171   5.427   1.508  15.251 -0.2495  1.1319 -0.7076
14252TIP3    H264172   5.310   1.421  15.290  0.6714  0.5071  0.7712
14253TIP3   OH264173   5.155   0.613  13.952  0.7345 -0.0835 -0.0200
14253TIP3    H164174   5.060   0.602  13.963  0.3357  2.6294 -0.1536
14253TIP3    H264175   5.184   0.656  14.032  1.4531  1.0824 -0.8805
14254TIP3   OH264176   6.090   6.084   2.427  0.3469  0.3649 -0.2045
14254TIP3    H164177   6.162   6.144   2.445  1.7042 -0.3498 -2.8105
14254TIP3    H264178   6.131   5.999   2.412 -1.3595 -0.8026  1.2966
14255TIP3   OH264179   0.012   3.775   2.986 -0.6108  0.4285  0.2646
14255TIP3    H164180   0.012   3.739   2.897  0.4071  2.8352 -0.7952
14255TIP3    H264181  -0.055   3.844   2.984  0.1039  1.1746  1.0393
14256TIP3   OH264182   0.681   0.823  13.710  0.3182  0.1660  0.8911
14256TIP3    H164183   0.647   0.755  13.652 -0.6630  0.0398  1.5984
14256TIP3    H264184   0.650   0.905  13.672 -0.0521  0.1031  1.0553
14257TIP3   OH264185   5.678   6.688  12.728 -0.7966  0.2804  0.1279
14257TIP3    H164186   5.657   6.700  12.821 -0.4467  0.5026  0.1784
14257TIP3    H264187   5.593   6.697  12.684 -1.2221 -1.2915  0.5440
14258TIP3   OH264188   1.696   4.408  12.465 -0.0433  0.5049  0.0268
14258TIP3    H164189   1.746   4.399  12.546 -1.0891 -1.6156  0.4955
14258TIP3    H264190   1.618   4.456  12.492  0.2072  0.9455 -0.0173
14259TIP3   OH264191   2.511   6.113  17.151  0.2773  0.1067  0.3770
14259TIP3    H164192   2.557   6.046  17.100  0.1342  0.0012  0.3873
14259TIP3    H264193   2.574   6.138  17.218 -0.5047 -1.7524  1.8959
14260TIP3   OH264194   5.999   1.378   1.598 -0.1916 -0.3221  0.7061
14260TIP3    H164195   6.015   1.319   1.672  0.4856 -1.9869 -0.7000
14260TIP3    H264196   6.002   1.322   1.521 -0.9285  1.3459 -0.6117
14261TIP3   OH264197   0.808   6.642   1.575 -0.0433  0.4921  0.8290
14261TIP3    H164198   0.860   6.564   1.557 -0.1775  0.3878  0.8946
14261TIP3    H264199   0.721   6.609   1.600 -0.2258  0.6732  0.4441
14262TIP3   OH264200   4.070   1.920   0.042  0.3157 -0.2838 -0.2241
14262TIP3    H164201   4.163   1.902   0.029 -0.0464 -1.9684 -0.7327
14262TIP3    H264202   4.025   1.859  -0.017 -1.0847  2.3384 -2.0794
14263TIP3   OH264203   4.963   4.074   6.519  0.3091  0.0790 -0.0762
14263TIP3    H164204   4.912   4.019   6.460  0.5563  0.2466 -0.4509
14263TIP3    H264205   4.935   4.164   6.498 -1.1571  0.0533  1.5217
14264TIP3   OH264206   6.608   6.338  14.718 -0.2445 -0.0396  0.1698
14264TIP3    H164207   6.518   6.329  14.686  0.1956 -1.7579 -0.7247
14264TIP3    H264208   6.610   6.281  14.796 -0.0493  0.3722  0.4668
14265TIP3   OH264209   6.462   2.409   3.762 -0.0797 -0.3401  0.5509
14265TIP3    H164210   6.517   2.403   3.684  0.8685 -2.0937  1.3195
14265TIP3    H264211   6.388   2.463   3.734  1.5267  1.3381 -0.7765
14266TIP3   OH264212   5.744   0.374  15.976 -0.7652 -0.6479 -0.0000
14266TIP3    H164213   5.767   0.288  16.013 -1.8131 -0.9399 -0.0071
14266TIP3    H264214   5.773   0.437  16.042  1.5282 -0.8664 -0.7049
14267TIP3   OH264215   2.647   0.758  17.253  0.1973 -0.0378  0.9803
14267TIP3    H164216   2.720   0.713  17.295  0.7540 -0.2767 -0.1918
14267TIP3    H264217   2.644   0.721  17.165  0.1993  1.6778  0.2187
14268TIP3   OH264218   2.157   0.133   0.837 -0.2284 -0.2826  0.2244
14268TIP3    H164219   2.125   0.051   0.798  2.0459 -1.1448  0.0553
14268TIP3    H264220   2.153   0.118   0.931  0.7899 -0.8676  0.1876
14269TIP3   OH264221   2.641   3.555  12.816  0.3826 -0.3074 -0.0532
14269TIP3    H164222   2.576   3.558  12.746 -1.1065  0.1806  1.2916
14269TIP3    H264223   2.636   3.466  12.850  0.6227 -0.3532 -0.1375
14270TIP3   OH264224   4.314   4.271   1.478 -0.3113 -0.8352 -0.0734
14270TIP3    H164225   4.400   4.245   1.510 -1.1627 -1.6475  1.6753
14270TIP3    H264226   4.280   4.329   1.547 -0.5009  0.9018 -1.5503
14271TIP3   OH264227   2.741   3.397  15.302 -0.3295 -0.3701  0.0763
14271TIP3    H164228   2.719   3.374  15.393 -0.9745  0.8876  0.2689
14271TIP3    H264229   2.748   3.493  15.303 -2.1723 -0.1596 -1.5726
14272TIP3   OH264230   0.026   0.189  16.060 -0.4980  0.7225 -0.0394
14272TIP3    H164231   0.119   0.196  16.082 -0.8952  1.1841  1.6402
14272TIP3    H264232  -0.013   0.266  16.101 -1.6704  0.3629 -0.4642
14273TIP3   OH264233   3.179   4.923  13.757 -0.2764 -0.4948 -0.4882
14273TIP3    H164234   3.251   4.876  13.799  0.2084 -0.7601 -1.5705
14273TIP3    H264235   3.115   4.938  13.827  1.4165  0.9671  0.8218
14274TIP3   OH264236   5.201   1.292  16.812 -0.3599 -0.5508 -0.1868
14274TIP3    H164237   5.132   1.260  16.755 -0.2101 -0.3066 -0.5078
14274TIP3    H264238   5.197   1.235  16.889 -0.9803 -0.4736 -0.1567
14275TIP3   OH264239   4.701   5.130  17.056 -0.0460 -0.4176 -0.5641
14275TIP3    H164240   4.693   5.083  16.973  0.9820  0.5174 -1.2149
14275TIP3    H264241   4.654   5.213  17.041  0.3428 -0.1481 -0.2955
14276TIP3   OH264242   3.844   6.488  13.837  0.0897  0.1805 -0.1067
14276TIP3    H164243   3.908   6.440  13.890  0.0259  0.0056 -0.1870
14276TIP3    H264244   3.767   6.493  13.893 -0.2593 -0.7267 -0.4899
14277TIP3   OH264245   1.914   4.786   1.209 -0.7504  0.1299  0.1303
14277TIP3    H164246   1.920   4.702   1.165 -0.7305 -0.5987  1.4654
14277TIP3    H264247   1.880   4.846   1.143 -1.9018 -1.1864 -0.5053
14278TIP3   OH264248   1.920   2.308   0.317  0.1591 -0.1983 -0.1069
14278TIP3    H164249   2.014   2.299   0.334  0.3125  0.2004 -0.7161
14278TIP3    H264250   1.913   2.314   0.222 -0.7109 -2.7061 -0.2760
14279TIP3   OH264251   1.142   5.862   3.578 -0.3853  0.7261 -0.4878
14279TIP3    H164252   1.073   5.797   3.593 -0.2767  0.6576 -0.2757
14279TIP3    H264253   1.121   5.933   3.637  0.0921  0.4207  0.0624
14280TIP3   OH264254   1.234   5.263  12.789 -0.2414  0.1378 -0.5694
14280TIP3    H164255   1.176   5.274  12.865  0.6180  0.6592  0.0420
14280TIP3    H264256   1.321   5.252  12.828  0.1923  0.2865 -1.4858
14281TIP3   OH264257   5.398   3.605   1.604 -0.5120 -0.1946 -0.0017
14281TIP3    H164258   5.331   3.568   1.661 -1.1069 -0.3243 -0.7558
14281TIP3    H264259   5.375   3.698   1.598 -1.5677 -0.5082 -1.4631
14282TIP3   OH264260   2.342   3.747   0.040  0.6955 -0.1718 -0.4828
14282TIP3    H164261   2.256   3.786   0.026  1.0227  1.0487  0.6880
14282TIP3    H264262   2.326   3.653   0.038 -0.8705  0.0286  0.7072
14283TIP3   OH264263   1.074   0.327  11.341 -0.0711 -0.4971 -0.0311
14283TIP3    H164264   1.069   0.353  11.249  0.8430  0.9055  0.3038
14283TIP3    H264265   1.162   0.351  11.369 -0.7555  0.2898  1.5659
14284TIP3   OH264266   0.514   4.371   0.570  0.0602  0.0624  0.1846
14284TIP3    H164267   0.570   4.316   0.624 -1.3361  0.1897  1.8402
14284TIP3    H264268   0.432   4.323   0.563 -0.9092  1.5106  0.9886
14285TIP3   OH264269   6.662   0.077  10.721  0.1539 -0.1234  0.0111
14285TIP3    H164270   6.608   0.007  10.682 -1.0500  0.6695  0.2158
14285TIP3    H264271   6.728   0.096  10.653 -0.0686 -0.8154 -0.4174
14286TIP3   OH264272   4.623   6.660  15.902 -0.2775 -0.7713 -0.1833
14286TIP3    H164273   4.656   6.749  15.889  0.9955 -1.0788  0.7867
14286TIP3    H264274   4.631   6.644  15.996 -1.6324 -1.4879 -0.1632
14287TIP3   OH264275   0.636   4.121   6.104  0.6127  0.1407 -0.1855
14287TIP3    H164276   0.625   4.073   6.022  0.4576  2.2072 -1.4514
14287TIP3    H264277   0.725   4.100   6.133 -0.4129 -3.2394  0.9969
14288TIP3   OH264278   5.258   3.228   4.604 -0.2757  0.0497  0.5548
14288TIP3    H164279   5.284   3.254   4.692  2.4208 -0.6465  0.0887
14288TIP3    H264280   5.340   3.233   4.553 -1.0219 -2.6203 -1.1162
14289TIP3   OH264281   2.568   5.428   5.290  0.5991  0.2973 -0.2674
14289TIP3    H164282   2.617   5.359   5.334  0.6265  0.3370 -0.2339
14289TIP3    H264283   2.505   5.458   5.356 -0.3617 -0.6372 -0.7303
14290TIP3   OH264284   6.248   0.249  15.530 -0.1178 -0.2193 -0.0365
14290TIP3    H164285   6.334   0.208  15.531  0.0865  0.2021 -0.3759
14290TIP3    H264286   6.202   0.210  15.604  0.1585 -0.8840 -0.2126
14291TIP3   OH264287   6.443   2.231   6.255  0.1357  0.4303  0.3670
14291TIP3    H164288   6.376   2.184   6.305 -0.5450  1.2790  0.2874
14291TIP3    H264289   6.406   2.318   6.242  0.5605  0.4090 -1.1169
14292TIP3   OH264290   5.584   6.581   5.597  0.1227 -0.6682 -0.5159
14292TIP3    H164291   5.494   6.597   5.626  0.2211  2.8630 -1.6926
14292TIP3    H264292   5.579   6.580   5.502  1.1085 -2.4661 -0.5857
14293TIP3   OH264293   0.910   0.222   4.669  0.7769 -0.1300 -0.3902
14293TIP3    H164294   0.973   0.187   4.732  0.4325  0.7315  0.4578
14293TIP3    H264295   0.963   0.246   4.592  1.6953  1.5459  0.6887
14294TIP3   OH264296   0.552   0.970  11.997 -0.9005  0.0723  0.9202
14294TIP3    H164297   0.537   0.934  11.910 -1.5692  0.8361  0.7198
14294TIP3    H264298   0.474   1.020  12.017 -0.5816  0.2406  1.7983
14295TIP3   OH264299   0.079   2.834   6.087  0.7140  0.9777  0.1522
14295TIP3    H164300   0.163   2.862   6.122  0.7375  1.2563 -0.1176
14295TIP3    H264301   0.082   2.739   6.088  0.4850  0.9650  1.4678
14296TIP3   OH264302   2.677   4.848   3.663  0.1500 -0.6415  0.0769
14296TIP3    H164303   2.716   4.862   3.577 -0.0737  0.5014  0.1508
14296TIP3    H264304   2.708   4.761   3.689 -1.5465 -2.0016 -2.0934
14297TIP3   OH264305   3.927   3.363   3.399 -0.3411 -0.5021  0.6771
14297TIP3    H164306   3.891   3.439   3.353 -0.7404 -0.8443  0.4156
14297TIP3    H264307   3.908   3.380   3.491  0.8054  0.3714  0.7660
14298TIP3   OH264308   5.852   3.651   3.032  0.4320 -0.2822  0.4742
14298TIP3    H164309   5.944   3.632   3.013  0.6569  0.3238  0.9342
14298TIP3    H264310   5.824   3.580   3.090  1.5284  1.1993  2.9496
14299TIP3   OH264311   6.383   0.135  16.965 -0.5243  0.4124 -0.4015
14299TIP3    H164312   6.450   0.175  17.019  1.0294 -1.6970 -0.6641
14299TIP3    H264313   6.302   0.148  17.014  0.5610  0.1453  1.5545
14300TIP3   OH264314   2.159   0.639  15.192 -0.0928 -0.2887  0.3238
14300TIP3    H164315   2.235   0.694  15.174  0.3128 -0.7342  0.6299
14300TIP3    H264316   2.195   0.551  15.201 -0.7602 -0.6396 -0.3691
14301TIP3   OH264317   2.771   2.131   0.947 -0.2397  0.2263 -0.2146
14301TIP3    H164318   2.814   2.078   1.013  0.0461 -2.1444 -2.1380
14301TIP3    H264319   2.712   2.070   0.902 -0.3139  1.6534 -2.2204
14302TIP3   OH264320   4.908   4.739  12.953  0.2333  1.2409  0.5295
14302TIP3    H164321   4.882   4.813  12.899 -2.3488  0.1685  0.1881
14302TIP3    H264322   4.971   4.691  12.898  1.3198  2.6964  0.4463
14303TIP3   OH264323   4.991   2.158   5.448  0.2048 -0.8372  0.2449
14303TIP3    H164324   5.001   2.229   5.512  2.4193 -0.2489 -0.6592
14303TIP3    H264325   5.069   2.104   5.460  0.3472 -1.0811 -1.4903
14304TIP3   OH264326   0.546   2.514  11.749  0.1270 -0.0852  0.1437
14304TIP3    H164327   0.502   2.549  11.672 -1.9970 -1.0610  0.8446
14304TIP3    H264328   0.531   2.579  11.817  1.7837  0.6560 -0.1638
14305TIP3   OH264329   1.171   1.385  17.322  0.7071  0.1382 -0.0704
14305TIP3    H164330   1.182   1.315  17.386 -1.4103  0.5500  0.8233
14305TIP3    H264331   1.076   1.392  17.311  0.7474  3.5557  0.7034
14306TIP3   OH264332   5.367   0.358   3.703  0.6614  0.0012 -0.0561
14306TIP3    H164333   5.351   0.301   3.628  1.7329  1.1892 -1.2379
14306TIP3    H264334   5.454   0.395   3.688  0.7543  0.5739  1.5894
14307TIP3   OH264335   2.304   3.157  13.359 -0.0989  0.8566  0.1623
14307TIP3    H164336   2.391   3.192  13.379  0.1153 -0.7368  2.4949
14307TIP3    H264337   2.319   3.063  13.349 -1.2877  0.8116 -1.4866
14308TIP3   OH264338   3.665   6.634  16.669  0.1040  0.9032 -0.1191
14308TIP3    H164339   3.631   6.626  16.580 -0.6512 -0.2499  0.2573
14308TIP3    H264340   3.627   6.716  16.702 -0.9790  0.4770 -0.2872
14309TIP3   OH264341   5.315   3.100   5.063 -0.0569  0.1972 -0.2104
14309TIP3    H164342   5.361   3.040   5.121 -0.2117  1.2471  1.0472
14309TIP3    H264343   5.232   3.118   5.108 -0.1980  0.9879 -0.7670
14310TIP3   OH264344   6.397   2.555   1.295  0.0564  0.2064  0.7191
14310TIP3    H164345   6.451   2.482   1.266 -0.1080  1.0189 -1.8312
14310TIP3    H264346   6.313   2.542   1.252 -0.4751  1.0920  1.4580
14311TIP3   OH264347   5.749   2.557   1.619  0.3764  0.6437 -0.2804
14311TIP3    H164348   5.831   2.605   1.630  0.7593  0.1786 -0.9664
14311TIP3    H264349   5.700   2.608   1.555  1.1413 -0.2728 -1.6569
14312TIP3   OH264350   5.624   2.190   0.750  0.0975  0.4072  0.1129
14312TIP3    H164351   5.608   2.215   0.841 -1.5359 -1.2074  0.3088
14312TIP3    H264352   5.544   2.147   0.722  0.0778  1.9573 -2.5263
14313TIP3   OH264353   1.460   4.910  12.341  0.6224 -0.0053  0.2615
14313TIP3    H164354   1.426   4.868  12.420 -0.5070  0.8907  0.2754
14313TIP3    H264355   1.504   4.989  12.373  2.1263 -0.7769  0.1746
14314TIP3   OH264356   4.505   4.250  14.460 -0.0766  0.5934  0.0003
14314TIP3    H164357   4.500   4.313  14.531 -1.9817 -1.9802  2.3908
14314TIP3    H264358   4.599   4.234  14.448  0.3470  2.4183  0.6240
14315TIP3   OH264359   2.011   6.081  12.816 -0.3554 -0.2927 -0.8769
14315TIP3    H164360   1.997   5.989  12.835 -1.2425  0.1029  0.5538
14315TIP3    H264361   2.103   6.087  12.789 -0.2657 -1.5559 -0.8904
14316TIP3   OH264362   3.541   5.687   3.726 -0.0357  0.0613  0.0578
14316TIP3    H164363   3.586   5.727   3.800  1.5243 -0.7168 -0.4177
14316TIP3    H264364   3.461   5.649   3.763  0.1387  0.7026  1.1140
14317TIP3   OH264365   5.856   4.562  16.834  0.4574 -0.4553  0.5123
14317TIP3    H164366   5.802   4.641  16.835 -0.1253 -0.8109 -0.6878
14317TIP3    H264367   5.793   4.490  16.825  0.8942 -1.1778  2.5739
14318TIP3   OH264368   3.363   0.045   3.948 -0.3564  0.0789  0.3122
14318TIP3    H164369   3.321  -0.038   3.970  0.4332 -0.2023  0.8338
14318TIP3    H264370   3.456   0.024   3.943 -0.2299  0.7350 -0.5415
14319TIP3   OH264371   2.010   3.165   5.413 -0.3603 -0.0813  0.3725
14319TIP3    H164372   1.987   3.224   5.485 -1.6096 -0.0994  0.0201
14319TIP3    H264373   2.037   3.084   5.456  1.2946  0.6897  0.8606
14320TIP3   OH264374   1.388   5.605   4.683  0.1237  0.5600 -0.9184
14320TIP3    H164375   1.385   5.510   4.669 -0.7737  0.7087 -1.8022
14320TIP3    H264376   1.297   5.631   4.689  0.3208  1.5563 -1.9688
14321TIP3   OH264377   5.731   5.286   4.426 -0.0704  0.1160  0.1094
14321TIP3    H164378   5.803   5.343   4.452  0.8315 -1.3311  0.8961
14321TIP3    H264379   5.652   5.334   4.451  0.5758  1.8470 -1.0060
14322TIP3   OH264380   5.061   3.811   6.284 -0.2074  0.0460  0.1115
14322TIP3    H164381   4.978   3.846   6.317 -1.9078 -3.0524 -0.4757
14322TIP3    H264382   5.094   3.756   6.355  0.1496 -0.5105 -0.4700
14323TIP3   OH264383   1.055   2.512   0.926  0.6463 -0.0000  0.3694
14323TIP3    H164384   1.003   2.450   0.875  1.3793 -1.3674  1.2414
14323TIP3    H264385   1.025   2.598   0.896 -0.2048 -0.7543 -1.0571
14324TIP3   OH264386   6.113   0.882  14.965  0.6168  0.2090 -0.4926
14324TIP3    H164387   6.144   0.938  15.036 -0.4871 -0.2828  0.4138
14324TIP3    H264388   6.135   0.930  14.885  1.5330  0.9548  0.1842
14325TIP3   OH264389   0.919   1.917   2.416 -0.0293  0.9195  0.0582
14325TIP3    H164390   0.858   1.985   2.388 -0.0483  0.0801 -2.1376
14325TIP3    H264391   0.962   1.889   2.336  1.5372 -0.1669  1.2246
14326TIP3   OH264392   0.814   3.405  14.830  0.1761  0.4433 -0.5459
14326TIP3    H164393   0.866   3.364  14.899 -2.4160 -0.0689  1.2616
14326TIP3    H264394   0.870   3.476  14.797  1.6663  0.5290  1.8922
14327TIP3   OH264395   6.027   5.712   2.582 -0.2876 -0.2555  0.7856
14327TIP3    H164396   6.081   5.674   2.651  0.3042 -1.9402 -0.5174
14327TIP3    H264397   5.940   5.674   2.595  0.0781 -1.4273  0.0431
14328TIP3   OH264398   0.274   3.752  16.365 -0.0571  0.5360  0.9523
14328TIP3    H164399   0.282   3.703  16.447 -0.6363  0.3405  0.8983
14328TIP3    H264400   0.182   3.742  16.341  0.2189  0.2059  0.0220
14329TIP3   OH264401   6.022   3.308   4.674 -0.4258 -0.2155 -0.1447
14329TIP3    H164402   5.980   3.225   4.656 -1.9672  0.2179  1.2287
14329TIP3    H264403   5.962   3.374   4.639  0.8991  0.3635 -1.4577
14330TIP3   OH264404   4.635   5.300   2.973  0.3762  0.0526  0.1924
14330TIP3    H164405   4.707   5.301   2.910  0.4810 -0.9057  0.2879
14330TIP3    H264406   4.617   5.207   2.988  1.0741  0.2259  2.4155
14331TIP3   OH264407   2.432   1.236   4.089 -0.0681 -0.3901  0.0049
14331TIP3    H164408   2.435   1.207   3.998 -0.7615 -1.0335  0.1726
14331TIP3    H264409   2.522   1.231   4.119 -0.2279 -3.6635  0.3838
14332TIP3   OH264410   4.423   3.654   0.458 -0.3049 -0.2905 -0.3670
14332TIP3    H164411   4.331   3.675   0.442  0.0704  3.6888  1.5858
14332TIP3    H264412   4.471   3.702   0.391  0.4525  2.4446  1.9480
14333TIP3   OH264413   1.123   0.045   2.055  0.0793 -0.1759  0.2979
14333TIP3    H164414   1.086   0.092   1.979  2.5725  0.9980 -0.3024
14333TIP3    H264415   1.128  -0.046   2.026  0.6692  0.1972 -0.8763
14334TIP3   OH264416   3.375   3.159  17.221 -0.4698  0.5202 -0.2806
14334TIP3    H164417   3.400   3.081  17.171 -1.3085  0.5547 -0.7660
14334TIP3    H264418   3.458   3.205  17.236  0.1605 -0.8027  0.6304
14335TIP3   OH264419   3.533   4.334  16.143  0.2480 -0.0721 -0.7130
14335TIP3    H164420   3.523   4.311  16.235  0.4987  0.8985 -0.4343
14335TIP3    H264421   3.598   4.404  16.143  1.4358 -1.1171 -1.7705
14336TIP3   OH264422   6.666   1.556  16.473 -0.4395  0.5726 -0.7457
14336TIP3    H164423   6.613   1.588  16.546 -0.8666 -1.0529 -0.2921
14336TIP3    H264424   6.623   1.590  16.395 -3.5072 -2.2697 -0.5483
14337TIP3   OH264425   4.118   3.669   0.421  0.0921  0.1441  0.5510
14337TIP3    H164426   4.067   3.711   0.352 -1.0132 -1.2597  0.4659
14337TIP3    H264427   4.100   3.720   0.499  1.6896  2.0199 -0.1990
14338TIP3   OH264428   1.896   0.508   1.511  0.4034 -0.1615  0.0931
14338TIP3    H164429   1.950   0.476   1.439  2.4790  1.9984  0.5378
14338TIP3    H264430   1.818   0.543   1.468  0.8670 -0.3547 -0.9528
14339TIP3   OH264431   5.419   0.019  14.363  0.4113 -0.3501  0.1693
14339TIP3    H164432   5.330   0.015  14.329  0.1810  2.3573  0.1842
14339TIP3    H264433   5.409   0.017  14.458  0.4679 -1.0865  0.1632
14340TIP3   OH264434   3.016   5.125  14.541 -0.0251  0.6601  0.5457
14340TIP3    H164435   3.079   5.084  14.600  0.2330 -1.2816 -0.9630
14340TIP3    H264436   3.069   5.182  14.486 -0.0851  1.5125  1.3542
14341TIP3   OH264437   2.598   4.905   0.382 -0.0398  0.0328 -0.4119
14341TIP3    H164438   2.672   4.847   0.401  1.3659  2.3570  2.0457
14341TIP3    H264439   2.534   4.850   0.337  1.9321 -2.8559  0.0616
14342TIP3   OH264440   0.821   5.270  14.244 -0.2364 -0.4167  0.1224
14342TIP3    H164441   0.853   5.192  14.199 -0.9592 -0.7834  0.2392
14342TIP3    H264442   0.868   5.342  14.201  1.4921 -0.9966  0.9602
14343TIP3   OH264443   5.066   1.507  11.822 -0.3430  0.4031  0.5221
14343TIP3    H164444   5.018   1.566  11.880 -0.2022 -0.2567  1.3372
14343TIP3    H264445   5.099   1.438  11.881  0.3918  0.0933 -0.2446
14344TIP3   OH264446   6.355   3.107  13.736 -0.0284 -0.4446 -0.4469
14344TIP3    H164447   6.356   3.018  13.770 -2.8604 -0.1164  0.7261
14344TIP3    H264448   6.350   3.097  13.641 -3.0318 -1.6658 -0.2430
14345TIP3   OH264449   5.423   0.911  11.505  0.0830  0.4078  0.1503
14345TIP3    H164450   5.357   0.972  11.471  1.4917  1.2039 -1.2633
14345TIP3    H264451   5.464   0.874  11.427  1.8957  0.5938  0.9695
14346TIP3   OH264452   5.634   5.776   5.678 -0.5088 -0.3226 -0.3396
14346TIP3    H164453   5.539   5.773   5.667 -0.2880 -0.4582 -2.5564
14346TIP3    H264454   5.654   5.696   5.727 -1.6104  0.2407  1.1010
14347TIP3   OH264455   3.702   4.304   1.735 -0.1767 -0.3518  0.1229
14347TIP3    H164456   3.690   4.258   1.652 -0.2674 -0.6048  0.2733
14347TIP3    H264457   3.694   4.397   1.713 -0.4599 -0.4291 -0.1053
14348TIP3   OH264458   0.522   4.251   6.544  0.1994 -0.5875 -0.1438
14348TIP3    H164459   0.494   4.340   6.562 -0.7719 -0.9253  0.0565
14348TIP3    H264460   0.447   4.196   6.567  0.3593 -1.3693 -1.3577
14349TIP3   OH264461   4.732   5.420  12.087 -0.7909  0.0404  0.0343
14349TIP3    H164462   4.802   5.359  12.110 -1.3431 -0.8658 -0.6387
14349TIP3    H264463   4.688   5.438  12.169  1.4633  2.2698  0.8886
14350TIP3   OH264464   6.450   2.719  11.559  0.0521 -0.5014  0.8855
14350TIP3    H164465   6.400   2.722  11.640  0.4057 -2.1860  1.1940
14350TIP3    H264466   6.387   2.744  11.491 -1.0706 -1.9606  1.3379
14351TIP3   OH264467   5.571   5.613  16.930 -0.2574  0.0498 -0.3925
14351TIP3    H164468   5.498   5.551  16.935  0.6257 -0.8850  1.9086
14351TIP3    H264469   5.643   5.561  16.895  0.2904 -0.0762  0.8776
14352TIP3   OH264470   3.152   0.450  16.445 -0.8051 -0.1322  0.3385
14352TIP3    H164471   3.130   0.360  16.421 -0.4537  0.3175 -1.8222
14352TIP3    H264472   3.228   0.441  16.503  0.0184 -1.1977 -0.8479
14353TIP3   OH264473   2.851   1.950  13.266  0.2474 -0.2192 -0.4632
14353TIP3    H164474   2.771   1.936  13.316 -0.0635  2.5515 -0.0563
14353TIP3    H264475   2.918   1.903  13.315 -0.8593 -1.4866 -0.0959
14354TIP3   OH264476   1.807   0.883   6.038  0.2443  0.0992 -0.4177
14354TIP3    H164477   1.827   0.972   6.067 -3.1811  1.0001 -0.3836
14354TIP3    H264478   1.728   0.859   6.088  1.0325 -2.9741 -0.4688
14355TIP3   OH264479   3.504   5.485   6.587 -0.7396 -0.2588  0.3280
14355TIP3    H164480   3.438   5.416   6.594 -1.0733  0.0660  0.3846
14355TIP3    H264481   3.580   5.441   6.548 -1.8125 -0.0799 -2.0855
14356TIP3   OH264482   5.225   5.648   2.277 -0.0510  0.5664  0.5890
14356TIP3    H164483   5.184   5.563   2.260  0.9702  0.1115  0.3089
14356TIP3    H264484   5.250   5.680   2.190  0.4004  0.7152  0.7700
14357TIP3   OH264485   3.742   1.352   2.303  0.7202 -0.3681  0.6549
14357TIP3    H164486   3.671   1.415   2.290 -0.1093 -1.5499 -0.7370
14357TIP3    H264487   3.815   1.405   2.336 -0.6752  0.9305  1.8088
14358TIP3   OH264488   6.466   2.311  13.370 -0.4842 -0.1520 -0.4026
14358TIP3    H164489   6.553   2.349  13.366 -0.8222  0.7653  0.4234
14358TIP3    H264490   6.407   2.382  13.344 -0.9499 -0.9602 -1.6198
14359TIP3   OH264491   3.458   1.981   0.404 -0.2631 -0.2158 -0.0976
14359TIP3    H164492   3.554   1.977   0.410 -0.2469  0.0183 -0.2105
14359TIP3    H264493   3.438   1.936   0.322 -0.2810 -0.6568  0.1439
14360TIP3   OH264494   4.009   4.913   1.095 -0.5119 -0.3695 -0.1995
14360TIP3    H164495   4.096   4.875   1.089  0.2992  1.4234 -0.5527
14360TIP3    H264496   3.953   4.841   1.124  0.4822 -2.3908 -2.9082
14361TIP3   OH264497   3.906   2.824   6.520  0.3124  0.0917 -0.0354
14361TIP3    H164498   3.999   2.802   6.524  0.4411  0.1676 -1.8730
14361TIP3    H264499   3.869   2.762   6.457 -0.8315  0.2201  0.4957
14362TIP3   OH264500   0.913   5.213  12.724 -0.1218  0.0480  0.4193
14362TIP3    H164501   0.978   5.142  12.720 -0.7998 -0.5761 -2.1548
14362TIP3    H264502   0.843   5.183  12.665 -1.8154  1.6000  1.5345
14363TIP3   OH264503   1.150   4.983  13.581  0.6666 -0.3342  0.3302
14363TIP3    H164504   1.238   4.986  13.544 -0.0020 -0.4146 -1.3708
14363TIP3    H264505   1.126   4.891  13.579  0.3623 -0.2571  0.3451
14364TIP3   OH264506   2.119   1.010  10.981 -0.1470  0.2989 -0.3867
14364TIP3    H164507   2.107   1.083  10.920  0.1764  1.6990  1.1617
14364TIP3    H264508   2.102   0.932  10.928  1.5848  1.3466 -2.6421
14365TIP3   OH264509   3.761   3.532  16.614 -0.5551  0.3814  0.2702
14365TIP3    H164510   3.752   3.611  16.560 -1.9869 -0.1790 -0.3553
14365TIP3    H264511   3.818   3.475  16.564  0.3450  0.9341  0.6441
14366TIP3   OH264512   4.732   0.050  14.439  1.4488 -0.2548 -0.5044
14366TIP3    H164513   4.778   0.082  14.517  0.4492  1.3170 -0.5047
14366TIP3    H264514   4.766   0.105  14.368 -0.0895  0.6921 -0.5665
14367TIP3   OH264515   0.874   5.255  13.336  0.3387 -0.3315 -1.1419
14367TIP3    H164516   0.833   5.322  13.280 -1.5996  0.8287  1.4655
14367TIP3    H264517   0.821   5.177  13.324 -0.5244  0.1313 -0.4213
14368TIP3   OH264518   3.879   2.469   4.535 -0.8875  0.1683 -0.3115
14368TIP3    H164519   3.940   2.506   4.599 -0.1284  2.9327 -2.4219
14368TIP3    H264520   3.898   2.375   4.535  0.6494  0.3979  1.8521
14369TIP3   OH264521   2.700   2.107   4.003  0.6379  0.3458 -0.1802
14369TIP3    H164522   2.764   2.040   3.979  1.4647  0.9835  0.1820
14369TIP3    H264523   2.748   2.165   4.063 -0.0786  1.2097 -0.4290
14370TIP3   OH264524   1.208   4.474   6.065  0.2499  0.1094  0.2476
14370TIP3    H164525   1.141   4.424   6.019  1.1718  1.9170 -3.4181
14370TIP3    H264526   1.289   4.426   6.049  0.4464  0.1942  0.9500
14371TIP3   OH264527   2.803   5.832   0.327 -0.4423  0.4007  0.3729
14371TIP3    H164528   2.814   5.850   0.421  0.6376  0.7778  0.1868
14371TIP3    H264529   2.889   5.801   0.299 -1.0649 -0.8342 -0.2613
14372TIP3   OH264530   2.554   0.355  16.515  0.2692 -0.3598  0.9502
14372TIP3    H164531   2.568   0.283  16.576  2.5521  0.6070  1.6817
14372TIP3    H264532   2.643   0.384  16.491 -0.5584  0.6200 -1.2538
14373TIP3   OH264533   6.001   4.896   3.419  0.0901  0.1952  0.1615
14373TIP3    H164534   6.029   4.917   3.330 -1.9854 -0.0932 -0.6319
14373TIP3    H264535   5.909   4.871   3.410 -0.2162  0.2447  2.4172
14374TIP3   OH264536   4.202   1.657  17.319  0.1566  0.0193 -0.1977
14374TIP3    H164537   4.141   1.612  17.377  0.1879  0.6773  0.3454
14374TIP3    H264538   4.146   1.712  17.263  0.2864  1.2623  0.8540
14375TIP3   OH264539   0.343   2.010  15.147  0.1740 -0.0272 -0.6032
14375TIP3    H164540   0.292   1.955  15.207  0.6549 -0.4677 -0.5984
14375TIP3    H264541   0.395   1.948  15.096  2.2010  0.5020  0.7452
14376TIP3   OH264542   2.524   0.740   3.900 -0.3944  0.0356 -0.0753
14376TIP3    H164543   2.516   0.774   3.989 -0.6518 -0.5053  0.1059
14376TIP3    H264544   2.467   0.796   3.848  1.1583  1.5667 -0.2463
14377TIP3   OH264545   1.624   3.334   4.828  0.1792  0.1101  0.1610
14377TIP3    H164546   1.647   3.291   4.910 -1.1300  0.8377  0.9532
14377TIP3    H264547   1.688   3.303   4.765  0.0865 -1.9371  1.0078
14378TIP3   OH264548   3.730   4.922  13.525  0.4041 -0.0330 -0.0472
14378TIP3    H164549   3.740   4.833  13.492  0.4552  0.1945 -0.6600
14378TIP3    H264550   3.642   4.925  13.563  0.9194 -0.7432  1.2545
14379TIP3   OH264551   2.148   3.155  11.601 -0.0386 -0.6121  0.2256
14379TIP3    H164552   2.195   3.191  11.526 -1.8644 -2.7936 -2.1702
14379TIP3    H264553   2.093   3.227  11.631  0.1631  0.1125 -1.0476
14380TIP3   OH264554   2.443   4.438  15.261 -0.4605  0.5138 -0.5633
14380TIP3    H164555   2.421   4.347  15.241  0.1287  0.4462 -0.9166
14380TIP3    H264556   2.439   4.483  15.176 -3.5529  1.4621 -0.0675
14381TIP3   OH264557   1.868   4.611  16.746 -0.2020  0.8242  0.1935
14381TIP3    H164558   1.918   4.529  16.753  0.0991  0.8322 -1.3660
14381TIP3    H264559   1.935   4.679  16.748 -0.3101  0.9377 -0.0321
14382TIP3   OH264560   4.810   5.604  13.584 -0.2229 -0.3416  0.4914
14382TIP3    H164561   4.879   5.658  13.623 -0.2408 -0.3987  0.6034
14382TIP3    H264562   4.737   5.664  13.572 -0.1799 -0.2980  0.4438
14383TIP3   OH264563   4.306   2.404  16.907  0.1571  0.5734  0.0491
14383TIP3    H164564   4.374   2.445  16.854  0.0221 -0.6841 -1.1349
14383TIP3    H264565   4.347   2.391  16.993  1.0867  0.6688 -0.3731
14384TIP3   OH264566   2.143   6.523  14.078  0.6011 -0.3970 -0.1389
14384TIP3    H164567   2.074   6.572  14.033  0.7247  0.5742  0.6925
14384TIP3    H264568   2.157   6.445  14.024 -0.9162 -0.4529 -0.4990
14385TIP3   OH264569   6.038   4.891   2.412 -0.4478  0.3528 -0.1673
14385TIP3    H164570   5.962   4.837   2.433  0.5835 -0.6869  1.0395
14385TIP3    H264571   6.041   4.892   2.316 -0.1914 -2.2314 -0.2623
14386TIP3   OH264572   4.600   6.747   0.603  0.0731 -0.6661 -0.2000
14386TIP3    H164573   4.693   6.769   0.606  0.0268 -0.4677 -0.1933
14386TIP3    H264574   4.591   6.688   0.528  0.1385 -0.3648 -0.4466
14387TIP3   OH264575   0.449   0.715   5.218 -0.1785 -0.7314 -0.6098
14387TIP3    H164576   0.414   0.695   5.131 -1.6417  1.3581 -0.5796
14387TIP3    H264577   0.387   0.673   5.279  0.8950 -2.2707 -0.5326
14388TIP3   OH264578   4.574   4.578  11.013  0.4064  0.3406  0.0158
14388TIP3    H164579   4.498   4.636  11.005 -0.7683 -0.8701  1.5646
14388TIP3    H264580   4.576   4.530  10.930  0.0971  1.1083 -0.4426
14389TIP3   OH264581   4.916   0.006   3.178  0.6068 -0.2573 -0.5647
14389TIP3    H164582   4.933  -0.027   3.090 -0.0707 -1.9906 -0.0710
14389TIP3    H264583   4.984  -0.034   3.232 -0.1929 -0.8127  0.0436
14390TIP3   OH264584   1.489   5.155  12.870  0.1712  0.3982  0.1693
14390TIP3    H164585   1.480   5.115  12.957  1.6698  1.9713  1.1073
14390TIP3    H264586   1.582   5.147  12.850  0.0597  1.1974 -0.7280
14391TIP3   OH264587   1.011   5.484   2.689 -0.2446 -0.5734  0.4313
14391TIP3    H164588   1.061   5.518   2.763  0.3737  0.6214 -0.4954
14391TIP3    H264589   1.008   5.390   2.704  0.6134 -0.4513  1.5240
14392TIP3   OH264590   2.218   0.788  14.901 -0.6914  0.0821 -0.1520
14392TIP3    H164591   2.251   0.876  14.920 -0.2686  0.3433 -1.9054
14392TIP3    H264592   2.124   0.799  14.890 -0.8740  0.0093  1.1281
14393TIP3   OH264593   1.914   1.872   5.844  0.5926 -0.4695  0.4740
14393TIP3    H164594   1.953   1.949   5.885  0.4081  0.1876 -0.5465
14393TIP3    H264595   1.937   1.799   5.902  0.7876  0.3474  1.4429
14394TIP3   OH264596   0.837   5.352   5.502 -0.7590  0.4974  0.1723
14394TIP3    H164597   0.761   5.329   5.554 -1.7107 -0.5326 -1.5970
14394TIP3    H264598   0.864   5.438   5.536 -2.5808  0.7997  0.9554
14395TIP3   OH264599   3.617   6.574   0.020 -0.1305  0.0786  0.7645
14395TIP3    H164600   3.694   6.533  -0.021 -0.9752  0.0508 -0.8672
14395TIP3    H264601   3.565   6.500   0.052  0.0676  0.0535  1.0314
14396TIP3   OH264602   6.056   3.376  16.405  0.4102 -0.3743 -0.2309
14396TIP3    H164603   6.073   3.284  16.425  0.6646 -0.2622  0.0833
14396TIP3    H264604   5.965   3.390  16.431 -0.0866 -0.8929 -1.6127
14397TIP3   OH264605   3.659   0.573  13.568  0.1927  0.5904 -0.5004
14397TIP3    H164606   3.627   0.623  13.493  1.0851 -1.5439 -2.4023
14397TIP3    H264607   3.743   0.614  13.589  0.4205  0.5811 -1.3401
14398TIP3   OH264608   0.011   0.315   0.742  0.1893  0.2296  0.3569
14398TIP3    H164609  -0.051   0.383   0.768 -0.2716  0.1526 -0.4840
14398TIP3    H264610  -0.045   0.243   0.711  0.6954  0.1430 -0.3790
14399TIP3   OH264611   1.515   5.402  14.827  0.3023 -0.4775  0.1343
14399TIP3    H164612   1.557   5.362  14.903 -0.9242 -0.2059  0.9882
14399TIP3    H264613   1.532   5.342  14.755 -0.0894 -1.7140  1.0351
14400TIP3   OH264614   6.033   6.234   3.510 -0.2795 -0.5733 -0.4378
14400TIP3    H164615   5.952   6.241   3.460 -0.6855  1.3606  0.4108
14400TIP3    H264616   6.031   6.308   3.571  0.5774 -2.3708  1.9031
14401TIP3   OH264617   3.502   1.989  15.294  0.0411  0.6271  0.0392
14401TIP3    H164618   3.440   1.945  15.236  2.8186 -1.9298 -1.2550
14401TIP3    H264619   3.532   2.065  15.243 -0.4388  0.6505 -0.2126
14402TIP3   OH264620   6.226   4.174  15.367 -0.5194 -0.8065  0.1292
14402TIP3    H164621   6.232   4.242  15.434  1.4644  0.4997 -1.2641
14402TIP3    H264622   6.186   4.218  15.292  1.5690 -0.8500 -1.0822
14403TIP3   OH264623   5.049   3.003   4.192 -0.1780 -0.8069  0.5034
14403TIP3    H164624   5.032   2.999   4.286  2.9884 -1.5728  1.1581
14403TIP3    H264625   5.029   3.093   4.167 -2.6410 -1.0144  1.4858
14404TIP3   OH264626   5.475   1.362   0.422  0.2530  0.8036 -0.0323
14404TIP3    H164627   5.423   1.436   0.391  0.2931  1.5902  1.6563
14404TIP3    H264628   5.537   1.401   0.485  1.4297 -0.4236 -0.3775
14405TIP3   OH264629   5.752   4.003   1.026  0.2290 -0.5763  0.1404
14405TIP3    H164630   5.702   4.078   1.058  1.8823  0.9870 -0.7806
14405TIP3    H264631   5.732   3.999   0.933 -1.3210 -2.5291  0.4856
14406TIP3   OH264632   4.745   2.171   3.718  0.8328  0.2255  0.1380
14406TIP3    H164633   4.678   2.233   3.743  0.8968 -0.1022  1.1626
14406TIP3    H264634   4.716   2.087   3.755  0.8912 -0.2967 -0.9647
14407TIP3   OH264635   2.792   1.816  17.023 -0.4164 -0.1891 -0.2732
14407TIP3    H164636   2.795   1.723  16.999 -1.4465  0.0768 -1.5541
14407TIP3    H264637   2.701   1.841  17.007 -0.4806  0.7213  1.3474
14408TIP3   OH264638   2.491   4.521  16.266  0.4099 -0.1428 -0.2026
14408TIP3    H164639   2.517   4.432  16.242 -0.5548 -1.2023  2.3045
14408TIP3    H264640   2.398   4.526  16.243  0.3405  0.0600  0.1190
14409TIP3   OH264641   1.282   6.187   5.732  0.7616  0.6533 -0.3664
14409TIP3    H164642   1.319   6.162   5.647  1.6983  0.2715  0.1335
14409TIP3    H264643   1.292   6.108   5.786  0.0433  0.8442  0.0549
14410TIP3   OH264644   5.486   6.306  16.113 -0.0041 -0.2314 -0.4722
14410TIP3    H164645   5.562   6.312  16.171 -0.4398 -1.7643  0.3236
14410TIP3    H264646   5.516   6.252  16.039 -0.2798 -0.8152 -0.1701
14411TIP3   OH264647   1.088   2.508   0.436 -0.7389  0.0007 -0.1657
14411TIP3    H164648   1.108   2.560   0.358  1.5006  1.9885  1.5804
14411TIP3    H264649   1.077   2.572   0.506 -2.3349 -1.7276  1.2885
14412TIP3   OH264650   4.499   5.115   0.359  0.0414 -0.0266  0.3173
14412TIP3    H164651   4.548   5.192   0.390 -2.4108  1.7932 -0.0250
14412TIP3    H264652   4.494   5.058   0.436 -1.1089  1.8219  1.7200
14413TIP3   OH264653   3.830   4.022  13.987 -0.5288 -0.0126 -0.0340
14413TIP3    H164654   3.911   4.055  13.948 -0.7069  0.7897  0.2521
14413TIP3    H264655   3.855   3.942  14.033  0.0018 -0.0383 -0.3684
14414TIP3   OH264656   3.735   3.952  12.400 -0.4193  0.9207  0.1484
14414TIP3    H164657   3.657   3.895  12.396  1.0230 -1.2718  1.1041
14414TIP3    H264658   3.747   3.982  12.310 -0.9883 -0.7392 -0.5336
14415TIP3   OH264659   2.785   3.926  12.522  0.4146  0.7302 -0.3348
14415TIP3    H164660   2.764   3.904  12.613  2.1937  1.0704  0.1921
14415TIP3    H264661   2.703   3.962  12.487 -0.2196  0.9062  1.2296
14416TIP3   OH264662   5.288   3.432  12.968 -0.4678 -0.4593 -0.2084
14416TIP3    H164663   5.345   3.371  12.921 -2.4333 -1.6646 -1.1804
14416TIP3    H264664   5.309   3.518  12.931  1.3815 -0.6970  0.1955
14417TIP3   OH264665   6.019   3.514  12.518  0.6247 -0.0964 -0.3106
14417TIP3    H164666   5.925   3.514  12.537  0.9576 -0.8340  1.5453
14417TIP3    H264667   6.026   3.476  12.430 -0.7394 -1.0308 -0.0522
14418TIP3   OH264668   4.275   4.690  12.648  0.0978  0.2111 -0.7760
14418TIP3    H164669   4.188   4.651  12.643 -0.4021  1.3302 -1.1032
14418TIP3    H264670   4.312   4.677  12.561  0.0103  0.2785 -0.8235
14419TIP3   OH264671   5.402   6.612   2.008 -0.0116 -0.2357 -0.0538
14419TIP3    H164672   5.437   6.588   1.923  1.3574 -1.2172  0.7424
14419TIP3    H264673   5.369   6.529   2.045 -0.7284  0.1980  0.3239
14420TIP3   OH264674   0.222   4.825   5.384 -0.4619 -0.5722  0.0362
14420TIP3    H164675   0.128   4.838   5.391 -0.1955  1.7968  0.1151
14420TIP3    H264676   0.252   4.809   5.473 -0.7858 -1.5619 -0.0193
14421TIP3   OH264677   3.592   2.596  11.043  0.2031  0.3480 -0.3229
14421TIP3    H164678   3.532   2.565  10.976 -0.2071  0.5716 -0.0638
14421TIP3    H264679   3.607   2.688  11.022  1.3607  0.0126 -1.0457
14422TIP3   OH264680   2.671   3.585   2.687  0.0604 -0.0959  0.5002
14422TIP3    H164681   2.593   3.592   2.742 -0.7182  0.1623 -0.6011
14422TIP3    H264682   2.707   3.673   2.683 -0.1067 -0.0374  0.2811
14423TIP3   OH264683   2.163   0.934   2.775 -0.3112  0.1960 -0.5766
14423TIP3    H164684   2.249   0.918   2.735  0.7716 -0.2492  1.7373
14423TIP3    H264685   2.160   1.029   2.786  0.6207  0.0934  0.7681
14424TIP3   OH264686   2.499   0.095  11.875  0.4480  0.1456  0.1493
14424TIP3    H164687   2.582   0.101  11.922  0.7956  0.2663 -0.4644
14424TIP3    H264688   2.492   0.178  11.828  0.4201 -0.2179 -0.5075
14425TIP3   OH264689   5.900   5.263   1.901 -0.3398 -0.3384 -0.0951
14425TIP3    H164690   5.921   5.189   1.957 -0.9878  0.9242  1.9088
14425TIP3    H264691   5.851   5.323   1.957 -0.9988  1.0254 -2.0102
14426TIP3   OH264692   3.879   0.996  15.999 -0.0544  0.6180  0.7251
14426TIP3    H164693   3.843   0.942  16.071 -0.5265 -1.6717 -1.1065
14426TIP3    H264694   3.803   1.045  15.967 -0.3206  0.0316  0.4432
14427TIP3   OH264695   2.290   3.651  14.229  0.4875  0.4927 -0.4130
14427TIP3    H164696   2.365   3.603  14.195  1.7828  0.8579  1.7176
14427TIP3    H264697   2.322   3.741  14.240 -0.4544  0.7992 -0.0140
14428TIP3   OH264698   1.660   4.764   1.409 -0.1234 -0.2692 -0.9626
14428TIP3    H164699   1.734   4.824   1.420  0.5040 -0.6011 -3.0101
14428TIP3    H264700   1.633   4.743   1.499  1.2634  1.0633 -0.1826
14429TIP3   OH264701   6.660   4.100   3.568  0.2063  0.1438  0.0697
14429TIP3    H164702   6.612   4.031   3.614  1.9837 -1.2051  0.0034
14429TIP3    H264703   6.648   4.178   3.623  1.5595 -1.2161  2.4424
14430TIP3   OH264704   3.535   6.335   6.013 -0.1678 -0.5679 -0.0265
14430TIP3    H164705   3.468   6.267   6.009  0.2081 -1.2191  2.5087
14430TIP3    H264706   3.524   6.374   6.100 -0.0114  2.3108 -1.1786
14431TIP3   OH264707   3.959   1.824  14.353  0.2831 -0.1615  0.1143
14431TIP3    H164708   3.944   1.754  14.416  0.0286  0.2289  0.4927
14431TIP3    H264709   4.033   1.874  14.389 -0.3376  0.5031  0.4997
14432TIP3   OH264710   2.867   2.200   4.353  0.2254  0.3024  0.7991
14432TIP3    H164711   2.924   2.129   4.382  0.6197  0.1702 -0.2473
14432TIP3    H264712   2.914   2.280   4.377  1.1033  0.1943 -0.4633
14433TIP3   OH264713   4.216   1.670   3.594  0.1170 -0.6245 -0.4524
14433TIP3    H164714   4.239   1.740   3.533  1.2115 -1.1504 -0.6693
14433TIP3    H264715   4.300   1.635   3.623 -0.4068 -1.1487  0.4683
14434TIP3   OH264716   0.166   3.264   0.656 -0.5008  0.1212 -0.4562
14434TIP3    H164717   0.125   3.209   0.722  0.5135  1.0175  0.9498
14434TIP3    H264718   0.111   3.251   0.578 -1.2823 -1.5149  0.3184
14435TIP3   OH264719   4.880   5.212   3.858  0.6473  0.3237  0.0436
14435TIP3    H164720   4.826   5.268   3.913  1.1119  1.0132 -0.1972
14435TIP3    H264721   4.911   5.143   3.917  0.1313  0.3498  0.3534
14436TIP3   OH264722   1.503   2.530   6.317 -0.4022 -0.3083  0.3424
14436TIP3    H164723   1.517   2.623   6.332  1.8949 -0.7129  1.0109
14436TIP3    H264724   1.424   2.510   6.367 -0.8981  1.2444  0.2401
14437TIP3   OH264725   1.872   5.500  16.121  0.5908 -0.1954  0.9071
14437TIP3    H164726   1.868   5.454  16.037 -2.0026 -0.8274  1.2638
14437TIP3    H264727   1.890   5.591  16.098 -2.5865  0.1672 -0.6931
14438TIP3   OH264728   3.250   5.183  10.421 -0.3514 -0.7809 -0.2578
14438TIP3    H164729   3.196   5.240  10.366  0.5656 -0.5187 -0.9169
14438TIP3    H264730   3.192   5.157  10.493  0.0858  3.6353  1.9978
14439TIP3   OH264731   3.543   6.215  17.272 -0.1839 -0.0134  0.2957
14439TIP3    H164732   3.510   6.222  17.182 -0.2289 -0.0854  0.3066
14439TIP3    H264733   3.544   6.121  17.290 -0.8310  0.0319  0.6081
14440TIP3   OH264734   3.126   3.519  12.004 -0.3000 -0.0870 -0.1111
14440TIP3    H164735   3.068   3.472  11.944 -0.4758  2.2182 -1.8809
14440TIP3    H264736   3.076   3.529  12.084 -0.4414 -2.3797  0.1416
14441TIP3   OH264737   1.029   4.227  14.435 -0.4504 -0.1773 -0.0631
14441TIP3    H164738   1.117   4.213  14.399 -1.4130  0.2779 -2.8879
14441TIP3    H264739   0.978   4.152  14.403 -2.1370  1.9123 -2.6339
14442TIP3   OH264740   1.257   4.974   1.013  0.2816 -0.7009 -0.4374
14442TIP3    H164741   1.165   5.001   1.015  0.5416  0.2697 -0.7061
14442TIP3    H264742   1.292   5.013   0.933  1.0207 -0.7096 -0.1325
14443TIP3   OH264743   5.239   0.946   1.553  0.4683 -0.3028  0.1024
14443TIP3    H164744   5.280   0.895   1.483 -0.2528 -0.3578 -0.2917
14443TIP3    H264745   5.150   0.913   1.557  0.8669 -1.3074  2.0415
14444TIP3   OH264746   1.450   3.529  11.220  0.8530  0.5480 -0.3139
14444TIP3    H164747   1.375   3.589  11.224 -0.0906 -0.3438 -2.6420
14444TIP3    H264748   1.509   3.569  11.156  2.0345  0.8172  0.8926
14445TIP3   OH264749   0.885   4.288  14.670  0.6505  0.5631  0.2728
14445TIP3    H164750   0.932   4.258  14.592 -0.1575  0.1672 -0.0693
14445TIP3    H264751   0.952   4.333  14.722  2.6133 -3.6452  1.8879
14446TIP3   OH264752   2.784   0.785   4.159 -0.2181 -0.4965 -0.1750
14446TIP3    H164753   2.848   0.845   4.199  1.5250 -3.1307  1.3148
14446TIP3    H264754   2.794   0.798   4.065  2.0532 -0.3259  0.0387
14447TIP3   OH264755   1.563   0.903   5.080 -0.2138  0.2144  0.2012
14447TIP3    H164756   1.497   0.838   5.103 -0.2848  0.2448  0.0853
14447TIP3    H264757   1.632   0.892   5.145  0.5707 -1.1385 -0.8027
14448TIP3   OH264758   4.237   3.852  12.096 -0.2791  0.2924  0.2680
14448TIP3    H164759   4.197   3.773  12.061  1.8736 -0.0463 -1.6110
14448TIP3    H264760   4.250   3.833  12.189 -0.0523 -1.4592 -0.1019
14449TIP3   OH264761   2.354   2.913  13.221 -0.9588 -0.0691  0.7581
14449TIP3    H164762   2.394   2.826  13.215 -1.3021 -0.1623 -0.7332
14449TIP3    H264763   2.392   2.961  13.147 -0.7899  1.0453  1.5560
14450TIP3   OH264764   4.701   4.477  13.295  0.1142  0.9415  0.0596
14450TIP3    H164765   4.741   4.475  13.208  2.4742 -1.6496  1.0333
14450TIP3    H264766   4.629   4.414  13.289  0.5309  0.4520  0.0382
14451TIP3   OH264767   3.220   4.496  13.245  0.3227 -0.0680 -0.3141
14451TIP3    H164768   3.246   4.520  13.156  0.0818  3.9725  0.5285
14451TIP3    H264769   3.293   4.525  13.300 -1.4617  2.0624  1.1419
14452TIP3   OH264770   5.940   5.682  16.297 -0.1863  0.4646 -0.3810
14452TIP3    H164771   5.899   5.595  16.295  1.5506 -0.4454  0.6330
14452TIP3    H264772   6.011   5.675  16.234  1.3823  0.3337  1.3200
14453TIP3   OH264773   4.177   4.818   4.029  0.3866 -0.2748  0.1724
14453TIP3    H164774   4.214   4.885   3.972  0.5407 -1.4737 -1.1992
14453TIP3    H264775   4.253   4.778   4.071  0.3270  0.0881  0.6334
14454TIP3   OH264776   0.924   3.221   6.730  0.8633  0.3649 -0.3432
14454TIP3    H164777   0.857   3.152   6.719 -0.4308  1.1992  1.7288
14454TIP3    H264778   0.887   3.297   6.685  0.1184  0.9802  1.2522
14455TIP3   OH264779   5.381   1.320   5.323  0.4915  0.3673 -0.5385
14455TIP3    H164780   5.320   1.337   5.395  0.5230  1.1854 -0.6962
14455TIP3    H264781   5.368   1.228   5.302 -0.9802  0.6247 -0.8492
14456TIP3   OH264782   2.344   5.950  15.366 -0.2561 -0.0594 -0.3467
14456TIP3    H164783   2.307   5.862  15.368 -0.7899  0.1112 -1.8184
14456TIP3    H264784   2.426   5.942  15.317  0.7528 -0.0799  1.2673
14457TIP3   OH264785   3.440   5.719   2.828  0.4477 -0.0221  0.1872
14457TIP3    H164786   3.498   5.643   2.838 -0.8308 -0.9285  1.0137
14457TIP3    H264787   3.392   5.724   2.910 -1.0414  0.3504 -0.6633
14458TIP3   OH264788   4.784   0.811   2.636  0.5360  0.2171  0.3261
14458TIP3    H164789   4.766   0.829   2.728 -0.8386  2.3378 -0.2549
14458TIP3    H264790   4.874   0.842   2.622  0.8672 -0.4252  1.0123
14459TIP3   OH264791   5.495   0.329   2.051  0.2102 -0.0388 -0.2809
14459TIP3    H164792   5.479   0.305   2.142  0.7804 -2.7958 -0.8252
14459TIP3    H264793   5.565   0.394   2.055 -0.3955  0.5735  1.2617
14460TIP3   OH264794   4.706   6.540   0.357  0.4736  0.5653 -0.4650
14460TIP3    H164795   4.740   6.480   0.290 -1.2225 -2.9448  1.5143
14460TIP3    H264796   4.611   6.538   0.343  0.3065  1.9300  0.3948
14461TIP3   OH264797   3.745   3.298  12.528  0.3255 -0.4013  0.2248
14461TIP3    H164798   3.822   3.242  12.518 -0.3973 -1.6387  1.2345
14461TIP3    H264799   3.773   3.368  12.586  0.9788 -0.2567 -0.2596
14462TIP3   OH264800   3.185   1.573  14.917  0.4724  0.4440 -0.0793
14462TIP3    H164801   3.220   1.507  14.857  0.8482  0.1540  0.4446
14462TIP3    H264802   3.215   1.544  15.003  0.6186  1.2873  0.1627
14463TIP3   OH264803   5.691   2.194   5.763 -0.7360 -0.0971  0.0290
14463TIP3    H164804   5.660   2.284   5.773 -0.9578 -0.3216  1.6391
14463TIP3    H264805   5.718   2.168   5.852  0.1159 -1.3348 -0.5609
14464TIP3   OH264806   0.234   4.738  17.276  0.3396 -1.0713  0.4381
14464TIP3    H164807   0.320   4.745  17.236  0.4261 -1.0603  0.6265
14464TIP3    H264808   0.216   4.824  17.312 -0.6301 -0.4511 -1.3696
14465TIP3   OH264809   5.544   0.119  16.373 -0.1498 -0.7578 -0.2062
14465TIP3    H164810   5.458   0.095  16.407 -0.4393 -1.1605 -1.1937
14465TIP3    H264811   5.541   0.096  16.280  0.8260 -0.2367 -0.3824
14466TIP3   OH264812   6.214   0.946  14.267  0.3578  0.3961  0.0373
14466TIP3    H164813   6.248   0.920  14.352  0.2169  0.6513  0.1751
14466TIP3    H264814   6.256   1.030  14.249  1.2258 -0.1724 -0.6520
14467TIP3   OH264815   0.662   2.489  15.334  0.0814  0.2528  0.6131
14467TIP3    H164816   0.696   2.400  15.348  0.5212  0.4963  1.0905
14467TIP3    H264817   0.667   2.530  15.420  0.3315  0.9005  0.2919
14468TIP3   OH264818   6.592   4.475  11.103 -0.4892 -0.3325  0.0375
14468TIP3    H164819   6.581   4.568  11.084 -0.1930 -0.0089  1.3945
14468TIP3    H264820   6.687   4.463  11.109 -0.5512 -0.5483  0.6552
14469TIP3   OH264821   1.509   5.365   0.959 -0.5133  0.5590  0.4490
14469TIP3    H164822   1.457   5.291   0.929 -1.3543  0.9248  0.9475
14469TIP3    H264823   1.537   5.409   0.879 -1.8025  0.9021  0.1644
14470TIP3   OH264824   3.165   0.373   6.352  0.3333 -0.6887 -0.9322
14470TIP3    H164825   3.202   0.396   6.437  0.7247 -0.1674 -1.2327
14470TIP3    H264826   3.107   0.447   6.331  0.5622 -0.6125 -1.3035
14471TIP3   OH264827   5.321   6.716   6.146 -0.0291  0.5165  0.1697
14471TIP3    H164828   5.405   6.725   6.189  0.6694  1.1106 -1.2374
14471TIP3    H264829   5.327   6.772   6.069 -1.2463 -0.3831 -0.6338
14472TIP3   OH264830   3.126   3.464   2.872  0.1851 -0.7074 -0.4668
14472TIP3    H164831   3.160   3.428   2.954 -0.0612  2.0534  0.9877
14472TIP3    H264832   3.037   3.492   2.893  0.1543  0.1591 -1.6297
14473TIP3   OH264833   1.417   1.519  15.381  0.2656  0.9949 -0.2094
14473TIP3    H164834   1.323   1.527  15.394 -0.0039 -0.4563 -1.0532
14473TIP3    H264835   1.441   1.592  15.325 -0.3651  1.3390 -0.0316
14474TIP3   OH264836   2.845   0.636  15.428  0.1031 -0.6803  0.1762
14474TIP3    H164837   2.915   0.612  15.367 -1.0478  0.9049 -1.9341
14474TIP3    H264838   2.770   0.583  15.400 -1.1099  1.7113 -1.4690
14475TIP3   OH264839   1.806   4.504  14.498 -0.1128 -0.2941 -0.0696
14475TIP3    H164840   1.881   4.462  14.540 -0.6362 -0.6259  0.5502
14475TIP3    H264841   1.845   4.561  14.431  0.7380  0.3387  0.9305
14476TIP3   OH264842   2.992   2.791  16.848 -0.5865  0.2879 -1.1383
14476TIP3    H164843   2.990   2.724  16.779 -0.5090  1.6524 -2.5378
14476TIP3    H264844   2.903   2.824  16.852 -0.9404 -0.7659  0.4905
14477TIP3   OH264845   3.146   2.060  16.020  0.1890  0.0004 -0.0068
14477TIP3    H164846   3.149   2.136  15.962 -1.0696  0.1463  0.0916
14477TIP3    H264847   3.141   2.097  16.108 -0.6982 -0.1665  0.0286
14478TIP3   OH264848   1.414   0.385  12.968  0.6409  1.3922 -0.2318
14478TIP3    H164849   1.396   0.308  12.914 -2.8287  0.3937  2.0368
14478TIP3    H264850   1.502   0.369  13.003  0.1829 -1.4115 -0.1293
14479TIP3   OH264851   0.146   2.199   5.454  0.1496  0.1012 -0.0398
14479TIP3    H164852   0.165   2.105   5.451 -1.3183 -0.2221 -0.2501
14479TIP3    H264853   0.165   2.230   5.365 -1.4527 -0.4871 -0.6390
14480TIP3   OH264854   2.743   5.710   2.003 -0.3153  0.5077  0.0496
14480TIP3    H164855   2.684   5.690   1.930  1.6010 -0.5317 -1.3138
14480TIP3    H264856   2.735   5.635   2.062  0.5686 -0.3113 -0.8168
14481TIP3   OH264857   1.152   1.317  11.311 -0.0400 -0.2539  0.3028
14481TIP3    H164858   1.173   1.359  11.227 -2.6967  0.2161 -0.2032
14481TIP3    H264859   1.150   1.389  11.374 -1.0883 -0.1090  0.1261
14482TIP3   OH264860   5.038   5.562   4.188  0.6419  0.2630  0.1129
14482TIP3    H164861   5.091   5.495   4.229  0.7283 -0.8429 -1.6957
14482TIP3    H264862   4.949   5.526   4.188  0.5608  0.4541 -0.2294
14483TIP3   OH264863   5.578   1.507  12.791 -0.1524 -0.0035 -0.3171
14483TIP3    H164864   5.630   1.582  12.762  0.2432  0.6728  1.9609
14483TIP3    H264865   5.629   1.430  12.765  2.2052  0.6296  1.9798
14484TIP3   OH264866   3.122   1.214   1.601 -0.5981 -0.5236 -0.4985
14484TIP3    H164867   3.145   1.129   1.563 -0.9987  0.0825 -2.2179
14484TIP3    H264868   3.041   1.197   1.650  0.1392 -1.4175  0.4384
14485TIP3   OH264869   1.295   4.262  15.875  0.3453  0.4586 -0.2338
14485TIP3    H164870   1.337   4.326  15.933  0.0982 -0.3007  0.8281
14485TIP3    H264871   1.357   4.249  15.804  3.1658 -2.3894  2.4314
14486TIP3   OH264872   3.555   6.709  14.692  0.4778 -0.4607  0.3086
14486TIP3    H164873   3.622   6.713  14.761  0.0896 -0.3700  0.6788
14486TIP3    H264874   3.514   6.623  14.703 -1.4519  0.5827  1.9630
14487TIP3   OH264875   3.615   5.264   3.513 -0.4172  0.1846 -0.0180
14487TIP3    H164876   3.585   5.188   3.563 -2.0579 -1.4775 -3.1679
14487TIP3    H264877   3.550   5.331   3.532 -0.0836  0.1617  1.2858
14488TIP3   OH264878   0.196   2.435  12.008  0.6309 -0.5185 -0.1099
14488TIP3    H164879   0.270   2.391  12.050  1.6991 -0.1813 -1.5460
14488TIP3    H264880   0.233   2.518  11.976 -0.2884 -0.4675 -1.0949
14489TIP3   OH264881   1.315   1.220  16.993  0.1057 -0.4990  0.2694
14489TIP3    H164882   1.287   1.141  16.948 -0.8379 -0.5319  0.8864
14489TIP3    H264883   1.283   1.292  16.938 -2.6601 -0.5062  1.7311
14490TIP3   OH264884   3.876   5.279   4.912  0.2507  0.3513 -0.5560
14490TIP3    H164885   3.817   5.245   4.979  0.7033  1.8772  0.6867
14490TIP3    H264886   3.822   5.286   4.833 -0.4164 -1.0323 -0.2596
14491TIP3   OH264887   6.671   5.913   1.198  0.2359 -0.3654  0.5311
14491TIP3    H164888   6.750   5.876   1.159  0.6889  0.9922  0.1171
14491TIP3    H264889   6.633   5.841   1.248  2.2257 -0.8038  1.5024
14492TIP3   OH264890   2.911   2.613   0.441 -0.2338 -0.2218  0.4539
14492TIP3    H164891   2.995   2.571   0.457 -1.1539 -2.7540 -0.6451
14492TIP3    H264892   2.908   2.625   0.346 -1.2489 -0.6308  0.4087
14493TIP3   OH264893   4.467   5.008   5.020 -0.1573  0.0806 -0.3292
14493TIP3    H164894   4.388   5.025   5.070 -0.4694  0.0807 -0.8129
14493TIP3    H264895   4.481   5.087   4.968  0.0349 -0.0017 -0.4052
14494TIP3   OH264896   2.239   2.065  13.251 -0.2381  0.0292  0.1383
14494TIP3    H164897   2.263   2.143  13.202  1.1389  0.4551  1.4247
14494TIP3    H264898   2.283   1.993  13.205 -0.5942  0.1556 -0.4014
14495TIP3   OH264899   0.936   2.127  14.237 -0.7376 -0.5619  0.5801
14495TIP3    H164900   0.965   2.058  14.296  0.8927 -0.2648  0.1712
14495TIP3    H264901   0.878   2.181  14.290  0.6215 -0.3427  1.9267
14496TIP3   OH264902   1.821   4.791  12.564  0.1879 -0.6759  0.5699
14496TIP3    H164903   1.850   4.732  12.494 -0.1020 -1.6823  1.2796
14496TIP3    H264904   1.788   4.867  12.518  0.8447 -0.9325 -0.3640
14497TIP3   OH264905   0.872   2.077   5.440  0.0802  0.4805 -0.0817
14497TIP3    H164906   0.798   2.098   5.384 -1.9465 -1.2235  1.8001
14497TIP3    H264907   0.865   2.139   5.513  0.6256  0.3997  0.0463
14498TIP3   OH264908   3.273   6.525  15.440 -0.4570  0.1689  0.3465
14498TIP3    H164909   3.292   6.461  15.508  1.3110  0.0111 -0.2462
14498TIP3    H264910   3.199   6.487  15.392 -0.3111 -0.7662  0.8399
14499TIP3   OH264911   4.037   5.371   4.608 -0.2717 -0.2266 -0.1006
14499TIP3    H164912   3.976   5.444   4.596  0.8669  0.7806  0.0169
14499TIP3    H264913   4.046   5.333   4.520 -1.1055 -0.4310 -0.1068
14500TIP3   OH264914   6.124   5.791   3.738 -0.5475 -0.3428 -0.4227
14500TIP3    H164915   6.046   5.744   3.710 -1.9080  1.3224  0.3456
14500TIP3    H264916   6.138   5.857   3.670  0.5570 -0.9688 -0.8347
14501TIP3   OH264917   0.960   2.915  14.762 -0.2114  0.0194  0.1314
14501TIP3    H164918   0.874   2.877  14.748 -0.1905  0.3946 -1.0923
14501TIP3    H264919   0.961   2.939  14.855 -1.0852 -0.7903  0.3580
14502TIP3   OH264920   2.036   5.472   1.841  0.7177 -0.3687  0.3674
14502TIP3    H164921   2.036   5.391   1.891 -1.3881  0.0324  1.1373
14502TIP3    H264922   1.953   5.471   1.793  1.7504  0.2279 -1.5353
14503TIP3   OH264923   4.050   3.475   2.645 -0.5167  0.4934  0.0134
14503TIP3    H164924   4.035   3.526   2.725  1.5188  0.2489  0.6114
14503TIP3    H264925   4.145   3.466   2.640 -0.4737  1.4374 -3.0566
14504TIP3   OH264926   4.469   0.345  12.101 -0.0740 -0.6794  0.1987
14504TIP3    H164927   4.499   0.328  12.190  1.8855 -0.2592 -0.3365
14504TIP3    H264928   4.472   0.260  12.058  2.1745 -0.4024 -0.3223
14505TIP3   OH264929   0.171   2.349   0.090 -0.1224 -0.1820 -0.2250
14505TIP3    H164930   0.167   2.370  -0.003  2.5588  1.4248 -0.0896
14505TIP3    H264931   0.264   2.356   0.112 -0.3013 -3.1154  2.0499
14506TIP3   OH264932   3.368   1.988   0.711  0.2266 -0.1810  0.0701
14506TIP3    H164933   3.408   1.902   0.723 -0.4133 -0.6480 -0.9986
14506TIP3    H264934   3.405   2.021   0.629  0.3955  0.5336  0.4217
14507TIP3   OH264935   5.163   2.631  13.950  0.7637  0.3431  0.0014
14507TIP3    H164936   5.083   2.662  13.992  0.4490  1.0064 -1.0475
14507TIP3    H264937   5.218   2.709  13.943  1.5819 -0.1349  0.8518
14508TIP3   OH264938   6.079   3.412   3.821 -0.1012 -0.3953  0.2640
14508TIP3    H164939   6.018   3.354   3.868 -0.0567 -0.2603  0.4877
14508TIP3    H264940   6.163   3.399   3.865  0.2415 -1.2416 -0.5910
14509TIP3   OH264941   4.831   6.312  15.540  0.2657  0.3647 -0.3386
14509TIP3    H164942   4.807   6.265  15.460  2.8078  1.3281 -1.7765
14509TIP3    H264943   4.858   6.243  15.600 -2.7438 -0.4755  0.2414
14510TIP3   OH264944   0.239   0.553   2.995  0.2559  0.3047 -0.5851
14510TIP3    H164945   0.152   0.566   3.033  1.1184  0.0245  1.6631
14510TIP3    H264946   0.257   0.460   3.011  1.5056  0.6730  0.2469
14511TIP3   OH264947   0.644   0.739  15.045  0.2672 -0.4368 -0.3016
14511TIP3    H164948   0.694   0.776  14.972  1.7753 -2.9005 -0.6364
14511TIP3    H264949   0.554   0.735  15.012  0.4589  0.7608 -1.0542
14512TIP3   OH264950   5.132   4.887   5.281 -0.1256  0.2670  0.5796
14512TIP3    H164951   5.079   4.964   5.301 -0.3792  0.7926 -1.8406
14512TIP3    H264952   5.147   4.845   5.366 -2.0853  1.6008  1.6473
14513TIP3   OH264953   2.285   0.270  16.757 -0.8490 -0.5574 -0.0620
14513TIP3    H164954   2.253   0.356  16.728 -0.0477 -0.1626  0.1692
14513TIP3    H264955   2.365   0.256  16.705 -1.0751 -1.2532 -0.2347
14514TIP3   OH264956   2.933   4.472  12.947 -0.7509 -0.0179  0.6287
14514TIP3    H164957   2.875   4.435  12.880  0.4803 -0.3227 -0.3202
14514TIP3    H264958   2.995   4.526  12.897  0.0141 -0.0187  1.5546
14515TIP3   OH264959   5.423   1.988   0.108 -0.4361  0.1858  0.3579
14515TIP3    H164960   5.468   1.904   0.114  0.0663  0.4886  0.9547
14515TIP3    H264961   5.399   1.996   0.016 -0.5242 -0.6231  0.3025
14516TIP3   OH264962   3.184   2.543   0.486  0.2434 -0.3672  0.3950
14516TIP3    H164963   3.273   2.508   0.477  1.3169  2.3443 -0.6505
14516TIP3    H264964   3.131   2.468   0.511  2.5119 -2.4548 -0.6560
14517TIP3   OH264965   4.394   0.206  16.436  0.2766  0.1735  0.2358
14517TIP3    H164966   4.390   0.244  16.348  0.7823 -1.2410 -0.4310
14517TIP3    H264967   4.377   0.113  16.422 -0.6277  0.0702  1.7735
14518TIP3   OH264968   4.046   0.681   1.185  0.3038  0.3938 -0.3996
14518TIP3    H164969   4.090   0.734   1.252 -0.5146 -1.7519  2.0325
14518TIP3    H264970   3.953   0.696   1.201  0.0963  0.3113 -1.4939
14519TIP3   OH264971   2.827   5.409  11.022 -0.2490 -0.2149 -0.1127
14519TIP3    H164972   2.864   5.322  11.037  1.6212  0.6673  0.8207
14519TIP3    H264973   2.787   5.404  10.935 -1.3831 -2.3510  0.4570
14520TIP3   OH264974   0.267   1.648   5.560  0.2751  0.3522  0.0413
14520TIP3    H164975   0.356   1.641   5.525  0.0104  0.8933 -0.7735
14520TIP3    H264976   0.238   1.558   5.571  0.3232  0.1587 -1.2742
14521TIP3   OH264977   2.063   2.749   6.722 -0.1058 -0.4304  0.2183
14521TIP3    H164978   2.146   2.720   6.762 -1.4440 -1.7733  2.1967
14521TIP3    H264979   2.084   2.835   6.684  2.4659 -1.2470 -0.4087
14522TIP3   OH264980   4.286   3.757  14.441  0.7051  0.6766  0.1462
14522TIP3    H164981   4.274   3.838  14.391  0.4201  0.3869 -0.2615
14522TIP3    H264982   4.359   3.776  14.500  2.2760  0.4432 -1.6362
14523TIP3   OH264983   0.300   4.203   5.308 -0.0261 -0.0606 -0.2960
14523TIP3    H164984   0.280   4.136   5.242 -0.9974 -0.6334  0.5514
14523TIP3    H264985   0.225   4.201   5.368 -1.3849  3.4957 -1.5769
14524TIP3   OH264986   1.794   2.179  16.852  0.5777  0.3221  0.4155
14524TIP3    H164987   1.779   2.140  16.938 -0.4872  1.8646  0.9668
14524TIP3    H264988   1.760   2.114  16.790  0.5491 -0.4232  1.1984
14525TIP3   OH264989   2.402   0.599   2.566  0.3560  0.3519  0.2599
14525TIP3    H164990   2.465   0.540   2.608  0.9680  0.7232 -0.1242
14525TIP3    H264991   2.447   0.630   2.487 -0.2313  0.7796  0.0863
14526TIP3   OH264992   4.001   5.988   1.990 -0.2620  0.0291  0.0492
14526TIP3    H164993   3.925   6.043   1.971 -0.8718 -0.1666  1.7653
14526TIP3    H264994   4.038   5.968   1.904 -1.9149  0.4595 -0.8064
14527TIP3   OH264995   4.460   0.639   3.119  0.0896 -0.5399 -0.6873
14527TIP3    H164996   4.482   0.599   3.035  0.2662 -0.5222 -0.6503
14527TIP3    H264997   4.380   0.688   3.102  0.5252  0.0807 -1.0380
14528TIP3   OH264998   5.352   2.359   1.754  0.1599  0.0936 -0.6785
14528TIP3    H164999   5.297   2.331   1.681  1.2352  0.3194 -1.6203
14528TIP3    H265000   5.433   2.309   1.743 -0.0950 -0.7889  1.1017
14529TIP3   OH265001   4.349   4.635   5.508 -0.0201  0.0485  0.0722
14529TIP3    H165002   4.356   4.706   5.445  1.7475  0.3107  0.5071
14529TIP3    H265003   4.306   4.674   5.584  0.8079  0.6408  0.2532
14530TIP3   OH265004   0.872   6.150  13.015  0.8619  0.0251 -0.6273
14530TIP3    H165005   0.857   6.240  12.988  1.3017  0.7491  1.3839
14530TIP3    H265006   0.868   6.152  13.110  1.0074 -2.0689 -0.5183
14531TIP3   OH265007   5.911   6.231   3.074  0.0009  0.5093 -0.2223
14531TIP3    H165008   5.995   6.187   3.062 -0.7639 -0.7575 -1.1280
14531TIP3    H265009   5.920   6.314   3.027  1.5608  1.5302  1.7455
14532TIP3   OH265010   2.325   6.030  14.024 -0.3642  0.3696  0.5559
14532TIP3    H165011   2.319   5.944  14.065  0.5342  0.4629  0.9006
14532TIP3    H265012   2.244   6.074  14.050 -1.5889 -0.9065 -0.9194
14533TIP3   OH265013   5.446   3.674   3.088  0.0878 -0.0563 -0.4049
14533TIP3    H165014   5.429   3.760   3.127  0.5298 -0.4673  0.7365
14533TIP3    H265015   5.487   3.624   3.158 -0.6246 -1.3617 -0.8969
14534TIP3   OH265016   0.458   2.050   3.047  0.4201 -0.0262  0.2505
14534TIP3    H165017   0.485   2.009   2.965 -0.9145 -1.6177  0.5543
14534TIP3    H265018   0.440   2.142   3.024  0.5493 -0.3323 -1.1267
14535TIP3   OH265019   3.986   2.069  13.736 -0.3412 -0.7601  0.1080
14535TIP3    H165020   4.046   2.144  13.737 -1.0463 -0.1875  0.6418
14535TIP3    H265021   3.932   2.081  13.814 -0.9790 -1.4042 -0.2265
14536TIP3   OH265022   6.592   2.389  10.668  0.3957 -0.5462  0.2844
14536TIP3    H165023   6.604   2.301  10.632 -0.6295 -1.0031  1.0146
14536TIP3    H265024   6.507   2.386  10.710  1.1015  0.2713  1.8612
14537TIP3   OH265025   4.347   0.518  14.132 -0.7356  0.1165 -0.3420
14537TIP3    H165026   4.323   0.509  14.040  2.0911 -1.3416 -1.0395
14537TIP3    H265027   4.403   0.443  14.150 -1.3334  0.2479  2.6704
14538TIP3   OH265028   2.907   1.498   2.482  0.5351 -0.4173 -0.0810
14538TIP3    H165029   2.953   1.565   2.533  0.2228 -0.3043  0.0563
14538TIP3    H265030   2.950   1.499   2.397 -1.5089  2.2300 -1.2213
14539TIP3   OH265031   4.817   0.665  16.296 -0.3033  0.1175  0.1796
14539TIP3    H165032   4.841   0.656  16.388 -0.1883 -0.8678  0.0681
14539TIP3    H265033   4.901   0.668  16.250 -0.3296  1.7855  0.1781
14540TIP3   OH265034   5.625   1.963  14.667  0.3445 -0.0438 -0.1766
14540TIP3    H165035   5.628   2.021  14.591  0.8006  0.2448  0.0585
14540TIP3    H265036   5.681   1.889  14.644  0.2645 -0.0870 -0.2302
14541TIP3   OH265037   4.786   0.127  15.796 -0.7881 -0.2170 -0.9263
14541TIP3    H165038   4.817   0.203  15.747 -2.0016 -1.0192 -3.0687
14541TIP3    H265039   4.773   0.159  15.885  1.7218  1.2623 -0.9919
14542TIP3   OH265040   5.218   3.392  15.404  0.0378 -0.1850 -0.3138
14542TIP3    H165041   5.243   3.318  15.349 -1.8506 -1.7462  0.7594
14542TIP3    H265042   5.124   3.380  15.417 -0.2063  2.1030  0.3991
14543TIP3   OH265043   2.711   0.331   2.263 -0.0438  0.2344  0.1371
14543TIP3    H165044   2.662   0.371   2.191  1.2665  0.2612 -0.7629
14543TIP3    H265045   2.644   0.286   2.315 -0.9430 -0.4300 -1.5233
14544TIP3   OH265046   5.824   6.383   0.119  0.3067  0.0660 -0.0222
14544TIP3    H165047   5.781   6.331   0.186  1.1697 -0.2880  0.2771
14544TIP3    H265048   5.917   6.361   0.128  0.3585 -0.6793 -1.9136
14545TIP3   OH265049   5.243   3.782  10.616  0.2529  0.1043 -0.0726
14545TIP3    H165050   5.227   3.724  10.691 -2.6354 -0.7422 -1.2278
14545TIP3    H265051   5.196   3.742  10.544 -0.4925  3.0165 -1.3513
14546TIP3   OH265052   1.867   3.460  16.929  0.1227  0.0635  0.1715
14546TIP3    H165053   1.923   3.513  16.987 -0.1221  0.8084 -0.2522
14546TIP3    H265054   1.900   3.371  16.938  2.5068  0.7081 -1.3613
14547TIP3   OH265055   0.247   1.929   5.461  0.2176 -0.6204 -0.2124
14547TIP3    H165056   0.319   1.919   5.524  0.5893  3.9696  0.4006
14547TIP3    H265057   0.291   1.944   5.377 -0.2014 -2.1018 -0.7279
14548TIP3   OH265058   6.548   4.612   3.604  0.2077 -0.0559  0.5385
14548TIP3    H165059   6.501   4.652   3.531  1.5964 -0.8102 -0.8411
14548TIP3    H265060   6.602   4.683   3.639 -2.2846  0.9845  2.5433
14549TIP3   OH265061   3.680   1.038  14.574  0.2696  0.1903 -0.1478
14549TIP3    H165062   3.754   0.981  14.592  0.0217  0.3295  1.4846
14549TIP3    H265063   3.608   1.003  14.627 -0.4236  0.9052 -0.5746
14550TIP3   OH265064   2.558   2.684  14.540  0.0959  0.2105  0.0739
14550TIP3    H165065   2.542   2.777  14.559  1.0944  0.5814 -0.8165
14550TIP3    H265066   2.652   2.673  14.554  0.3849 -0.1311 -1.9252
14551TIP3   OH265067   0.460   5.061  14.651  0.0639 -0.2397  0.2147
14551TIP3    H165068   0.460   4.966  14.656 -2.1987 -0.3761 -1.1054
14551TIP3    H265069   0.449   5.091  14.741 -2.0759 -1.3406  0.3699
14552TIP3   OH265070   0.134   0.104   1.507  0.2437 -1.0224  0.6688
14552TIP3    H165071   0.119   0.010   1.498  0.4817 -1.2908  2.6489
14552TIP3    H265072   0.229   0.111   1.518  0.1725 -0.5947  0.9938
14553TIP3   OH265073   1.590   3.179   0.234  0.2314  0.6176 -0.0598
14553TIP3    H165074   1.684   3.169   0.216  0.3115  0.6433  0.3300
14553TIP3    H265075   1.586   3.246   0.302  0.0132 -0.2026  0.7573
14554TIP3   OH265076   4.053   2.724  17.130 -0.4963 -0.1648 -0.2129
14554TIP3    H165077   4.144   2.705  17.106  0.6198 -1.0842  3.9589
14554TIP3    H265078   4.057   2.809  17.173 -2.0214  0.6068 -1.4886
14555TIP3   OH265079   5.944   6.072  13.542 -0.1373 -0.0720  0.4221
14555TIP3    H165080   5.972   6.093  13.453 -0.7765  1.8490  0.6422
14555TIP3    H265081   5.867   6.127  13.557 -1.3994 -1.9872  1.3907
14556TIP3   OH265082   3.383   6.059   0.994  0.3947 -0.7249  0.2329
14556TIP3    H165083   3.477   6.068   0.979  0.4831 -0.5639  0.8787
14556TIP3    H265084   3.343   6.085   0.911  0.8628  0.6770  0.4284
14557TIP3   OH265085   3.560   1.537   4.271  0.5904  0.7101 -0.6746
14557TIP3    H165086   3.525   1.625   4.265  0.5552  1.0383  2.7868
14557TIP3    H265087   3.655   1.549   4.282  0.9031  0.1342 -2.2862
14558TIP3   OH265088   0.252   1.051  13.748 -0.2065  0.2877  0.0077
14558TIP3    H165089   0.189   1.087  13.810 -1.0975  1.2230 -1.3903
14558TIP3    H265090   0.200   1.023  13.674  0.8102 -1.1021 -0.2181
14559TIP3   OH265091   2.634   0.293   5.562 -0.4869  0.2104  0.3248
14559TIP3    H165092   2.703   0.335   5.512  0.2567  0.2935  1.3830
14559TIP3    H265093   2.613   0.213   5.514 -0.4065  0.7124 -0.5616
14560TIP3   OH265094   6.609   3.919   4.082 -0.7399 -0.1778 -0.3178
14560TIP3    H165095   6.515   3.914   4.094 -0.6229 -2.7055  0.0064
14560TIP3    H265096   6.646   3.857   4.145  1.2568  1.6747  0.4751
14561TIP3   OH265097   6.688   1.997  12.034 -0.4672 -0.4993  0.5712
14561TIP3    H165098   6.658   2.086  12.054 -1.7708 -1.1764  1.8376
14561TIP3    H265099   6.630   1.940  12.085  0.9208 -2.0502  0.5031
14562TIP3   OH265100   4.845   2.951  13.836 -0.2961 -0.1565 -0.2292
14562TIP3    H165101   4.807   2.873  13.795 -0.1486 -0.8202  0.8391
14562TIP3    H265102   4.830   2.937  13.930  1.0809  0.3832  0.0825
14563TIP3   OH265103   6.172   3.442   3.501 -0.0351  0.1908 -0.1479
14563TIP3    H165104   6.225   3.442   3.421 -1.6256  0.1320 -1.2515
14563TIP3    H265105   6.235   3.455   3.571  1.2208  2.1599 -1.5378
14564TIP3   OH265106   0.511   2.891  14.164  0.2330 -0.1906 -0.3908
14564TIP3    H165107   0.445   2.853  14.222  0.1313  0.1669 -0.2703
14564TIP3    H265108   0.528   2.978  14.202 -0.6103  0.4823 -1.4967
14565TIP3   OH265109   0.452   3.834   4.537  0.4857  0.1167 -0.6783
14565TIP3    H165110   0.386   3.781   4.492  0.8916 -0.0158 -1.1338
14565TIP3    H265111   0.434   3.822   4.630 -0.1862  0.1547 -0.8022
14566TIP3   OH265112   0.864   2.456   3.020 -0.1482 -0.1162 -0.0922
14566TIP3    H165113   0.800   2.489   2.958 -1.0200 -0.7987  0.4206
14566TIP3    H265114   0.820   2.457   3.104  0.5191 -0.5726  0.2785
14567TIP3   OH265115   0.132   6.127   0.091  0.8313 -0.0099  0.2127
14567TIP3    H165116   0.136   6.065   0.019  1.7854 -0.0738  0.3109
14567TIP3    H265117   0.070   6.194   0.062 -1.2063 -1.6314  0.6236
14568TIP3   OH265118   6.411   0.762   0.717  0.5405 -0.1626  0.2269
14568TIP3    H165119   6.492   0.712   0.731  2.3155  2.3415 -0.2220
14568TIP3    H265120   6.371   0.768   0.804  0.9778 -1.2253  0.5157
14569TIP3   OH265121   3.523   0.580   5.003 -0.1979 -0.7342  0.0457
14569TIP3    H165122   3.595   0.605   4.945 -0.5435  0.0647 -0.0529
14569TIP3    H265123   3.529   0.641   5.077 -2.4900  1.3509 -1.3258
14570TIP3   OH265124   6.315   3.029  11.674 -0.0581  0.1553 -0.3153
14570TIP3    H165125   6.309   3.125  11.671 -0.6730  0.1122 -0.5667
14570TIP3    H265126   6.271   3.000  11.594 -1.4986 -0.4049  0.6473
14571TIP3   OH265127   6.462   3.991  14.938 -0.1534 -0.0376  0.2689
14571TIP3    H165128   6.494   3.913  14.982  1.2016  1.4273  1.9935
14571TIP3    H265129   6.540   4.042  14.918 -1.1278  2.0581  1.5149
14572TIP3   OH265130   0.850   5.295  12.998 -0.4065 -0.2601  0.3763
14572TIP3    H165131   0.763   5.264  13.024  0.2101 -1.1525  1.4450
14572TIP3    H265132   0.861   5.262  12.909 -1.5637  0.7396 -0.1647
14573TIP3   OH265133   0.751   0.196   3.362  0.5158 -0.2622  0.1554
14573TIP3    H165134   0.693   0.203   3.438  2.5587  2.4572  1.6634
14573TIP3    H265135   0.729   0.272   3.308 -0.0897 -1.5099 -1.4226
14574TIP3   OH265136   4.155   1.279   0.814 -0.1291  0.0803  0.1536
14574TIP3    H165137   4.154   1.365   0.773 -0.2211 -0.3814 -0.8532
14574TIP3    H265138   4.226   1.283   0.878 -0.0660  0.8644  0.0424
14575TIP3   OH265139   2.393   3.306   2.932  0.0947  0.3380 -0.1382
14575TIP3    H165140   2.479   3.278   2.962 -0.2365 -1.3720 -0.7070
14575TIP3    H265141   2.334   3.284   3.004  0.2179  2.4384  0.6822
14576TIP3   OH265142   6.685   5.956   3.335 -0.0249 -0.0978 -0.5871
14576TIP3    H165143   6.732   5.960   3.418  0.0652  2.3160 -0.6859
14576TIP3    H265144   6.637   5.874   3.339  0.7189 -0.4960  1.4380
14577TIP3   OH265145   6.326   6.670  13.505  0.1716  0.0745  0.6823
14577TIP3    H165146   6.251   6.681  13.447 -0.4079 -1.3374  1.1286
14577TIP3    H265147   6.330   6.752  13.555 -1.5977 -0.1535  1.2524
14578TIP3   OH265148   4.546   6.760   6.067  0.6974  0.0647  0.4121
14578TIP3    H165149   4.596   6.831   6.025 -1.4400  0.1470 -2.3271
14578TIP3    H265150   4.571   6.682   6.018 -0.5476 -0.1813  0.1452
14579TIP3   OH265151   5.550   2.081  16.716 -0.0122 -0.3637  0.4770
14579TIP3    H165152   5.639   2.117  16.716 -0.2441  0.2352 -0.2785
14579TIP3    H265153   5.504   2.131  16.648 -1.0909 -0.2632  1.2655
14580TIP3   OH265154   3.818   0.440   3.438 -0.0414 -0.2740 -0.0387
14580TIP3    H165155   3.848   0.510   3.496 -1.6272 -0.1181  0.6515
14580TIP3    H265156   3.753   0.483   3.381  1.0584 -0.5540 -1.5848
14581TIP3   OH265157   4.236   2.560  13.755  0.1506 -1.2585  0.1357
14581TIP3    H165158   4.307   2.539  13.695  0.3100  2.4395 -1.1675
14581TIP3    H265159   4.158   2.562  13.700 -0.5730 -2.5436  1.0429
14582TIP3   OH265160   4.128   5.980  15.144  0.2946 -0.5756 -0.0709
14582TIP3    H165161   4.129   5.962  15.238  1.7040  0.7388  0.2061
14582TIP3    H265162   4.190   6.052  15.133 -1.9613  1.2491 -1.6333
14583TIP3   OH265163   1.862   2.315   2.301  0.7263  0.4206  0.0858
14583TIP3    H165164   1.822   2.383   2.247  0.0448 -1.1524 -1.5020
14583TIP3    H265165   1.954   2.316   2.276  0.3601 -0.5323 -1.4886
14584TIP3   OH265166   3.346   5.346   5.812 -0.0332 -0.3017 -0.2353
14584TIP3    H165167   3.394   5.429   5.816 -1.5730  0.6312 -0.2019
14584TIP3    H265168   3.279   5.361   5.746  0.0017 -1.7303 -0.6165
14585TIP3   OH265169   1.500   5.266   3.724 -0.0034  0.6725 -0.3217
14585TIP3    H165170   1.414   5.224   3.737 -0.3633  1.9625  1.8732
14585TIP3    H265171   1.488   5.321   3.646 -0.7946 -0.0179 -0.7103
14586TIP3   OH265172   0.638   3.612   5.202 -0.1360 -0.8777  1.2482
14586TIP3    H165173   0.559   3.659   5.176  0.0326 -1.3689 -0.2945
14586TIP3    H265174   0.709   3.675   5.192 -0.0420 -1.1279  0.1933
14587TIP3   OH265175   6.718   1.454   2.819 -0.1630  0.4605  0.5847
14587TIP3    H165176   6.784   1.474   2.752 -0.5065  0.8146  0.3487
14587TIP3    H265177   6.681   1.539   2.842  0.1873  0.3770  1.4773
14588TIP3   OH265178   0.581   6.255  13.838 -0.1547 -0.4637 -0.1713
14588TIP3    H165179   0.578   6.201  13.916 -0.0005  1.2995  1.1315
14588TIP3    H265180   0.515   6.323  13.853  2.4821  2.2198  0.3394
14589TIP3   OH265181   0.211   3.696  13.753  0.4882  0.0935  0.7688
14589TIP3    H165182   0.145   3.632  13.725  0.7002 -0.4273  1.4343
14589TIP3    H265183   0.253   3.655  13.828 -0.5541  1.7501  2.3373
14590TIP3   OH265184   1.053   2.566   3.168  0.2419 -0.3324 -0.1355
14590TIP3    H165185   0.979   2.572   3.108 -0.5212 -1.8335  0.6200
14590TIP3    H265186   1.106   2.493   3.134  0.3341 -0.5409  0.4524
14591TIP3   OH265187   3.843   5.513  15.333  0.0170 -0.4100  0.1990
14591TIP3    H165188   3.781   5.469  15.275  0.3355 -1.0334  0.3183
14591TIP3    H265189   3.887   5.441  15.379  1.9222 -0.0785 -0.9993
14592TIP3   OH265190   5.875   5.466   3.370  0.1398 -0.1330 -0.3736
14592TIP3    H165191   5.963   5.493   3.398  0.0537 -0.7421  0.5326
14592TIP3    H265192   5.890   5.389   3.315  0.2255  0.2294 -0.8545
14593TIP3   OH265193   4.067   6.067  12.246 -0.7831  0.4696 -0.3898
14593TIP3    H165194   4.052   6.108  12.160 -3.0814 -1.2470 -0.9010
14593TIP3    H265195   4.131   5.998  12.228 -1.6436 -0.2183 -0.8405
14594TIP3   OH265196   3.237   3.048   1.680  0.5878 -0.2551 -0.3311
14594TIP3    H165197   3.319   3.090   1.657  0.6855 -0.4828 -0.3941
14594TIP3    H265198   3.184   3.052   1.600  1.7662 -3.1184 -1.3847
14595TIP3   OH265199   4.719   2.465  11.196  0.0067 -0.2239  0.3606
14595TIP3    H165200   4.805   2.497  11.170  0.4406 -1.5349  0.1257
14595TIP3    H265201   4.687   2.416  11.120 -0.2708 -1.0410  0.9880
14596TIP3   OH265202   3.181   2.052  12.912 -0.7288 -0.0480 -0.4558
14596TIP3    H165203   3.205   2.061  13.005 -0.4281  0.6780 -0.5991
14596TIP3    H265204   3.237   1.981  12.880  0.1182  0.5707 -0.3941
14597TIP3   OH265205   4.964   1.000  16.822  0.2073  0.1712 -0.3888
14597TIP3    H165206   4.953   1.093  16.803  1.8371  0.0633 -2.0663
14597TIP3    H265207   4.952   0.957  16.737  2.0310 -0.8848 -0.1496
14598TIP3   OH265208   4.381   5.885   1.291  0.1577 -0.0274  0.3242
14598TIP3    H165209   4.307   5.943   1.275 -0.1125 -0.6281 -0.7301
14598TIP3    H265210   4.405   5.900   1.382 -0.4157  1.1370  0.2961
14599TIP3   OH265211   1.389   3.170   1.284 -0.1604  0.0260 -0.2701
14599TIP3    H165212   1.334   3.106   1.328 -1.9871  0.6727 -1.5127
14599TIP3    H265213   1.457   3.118   1.241 -0.7425 -0.9351 -0.0434
14600TIP3   OH265214   0.886   0.335   2.079  0.6468  0.0557 -0.5474
14600TIP3    H165215   0.842   0.263   2.123  0.2774  0.1024 -0.8345
14600TIP3    H265216   0.844   0.414   2.114  0.9272  0.1276 -0.3656
14601TIP3   OH265217   4.191   0.672  16.337 -0.1807 -0.3359  0.2940
14601TIP3    H165218   4.103   0.704  16.358  1.3379  2.7345  2.8676
14601TIP3    H265219   4.185   0.643  16.246 -3.7695 -0.0622  0.3137
14602TIP3   OH265220   5.776   4.935   3.945 -0.5678 -0.0480  0.4045
14602TIP3    H165221   5.755   4.967   4.033 -0.1750 -0.0454  0.4988
14602TIP3    H265222   5.750   5.006   3.887  0.3728  0.4764  0.6186
14603TIP3   OH265223   3.923   4.061   2.085  0.1848 -1.0643 -0.0120
14603TIP3    H165224   4.008   4.095   2.111  0.2209 -0.4881 -0.8388
14603TIP3    H265225   3.910   4.095   1.996 -1.1482 -0.7072  0.3029
14604TIP3   OH265226   0.676   0.892   5.660 -0.1034 -0.0065  0.1581
14604TIP3    H165227   0.633   0.978   5.661  0.5421  0.3356 -0.6342
14604TIP3    H265228   0.676   0.866   5.568 -0.0961 -0.7610  0.3642
14605TIP3   OH265229   3.083   5.894   0.824 -0.1776 -0.4097  0.1020
14605TIP3    H165230   3.041   5.941   0.895  0.9431  0.1383  0.4249
14605TIP3    H265231   3.133   5.961   0.776 -0.2884 -0.9032 -0.7303
14606TIP3   OH265232   5.788   6.080   2.026  0.3356 -0.0836  0.3081
14606TIP3    H165233   5.876   6.103   2.057  0.7765 -0.2205 -0.8025
14606TIP3    H265234   5.792   5.986   2.009 -0.0005 -0.0737  0.1694
14607TIP3   OH265235   1.161   6.551   6.111 -0.9154 -0.2452  0.2189
14607TIP3    H165236   1.216   6.495   6.165 -0.2805  1.7612  1.7910
14607TIP3    H265237   1.077   6.505   6.105 -0.0942 -1.8329  0.5136
14608TIP3   OH265238   4.260   1.218  14.534  0.2147 -0.2023  0.2902
14608TIP3    H165239   4.325   1.151  14.554 -1.4744 -1.3767  2.2653
14608TIP3    H265240   4.233   1.199  14.444  3.6289  1.3446 -1.2449
14609TIP3   OH265241   1.878   4.421  15.140 -0.4486 -0.6230 -0.3477
14609TIP3    H165242   1.958   4.474  15.144 -0.3017 -0.8587 -0.1233
14609TIP3    H265243   1.864   4.405  15.046  0.7684 -2.0735 -0.3293
14610TIP3   OH265244   4.936   4.622   1.858 -0.2193  0.6071  0.0413
14610TIP3    H165245   4.851   4.637   1.816 -0.2442  0.8514  0.1789
14610TIP3    H265246   4.969   4.542   1.817 -1.0330 -0.1522  0.7904
14611TIP3   OH265247   1.483   1.719   1.371 -0.1617 -0.1155 -0.4841
14611TIP3    H165248   1.467   1.797   1.318 -0.5195  0.5304  0.5489
14611TIP3    H265249   1.422   1.727   1.444  0.2827 -1.0172 -0.0046
14612TIP3   OH265250   4.072   3.176  16.056  0.0637  0.3415 -0.0025
14612TIP3    H165251   4.094   3.093  16.013  0.0164 -1.0108  2.4113
14612TIP3    H265252   4.088   3.242  15.989  0.3082 -1.5731 -1.9713
14613TIP3   OH265253   6.116   1.253   1.828 -0.2230 -0.2033  0.3483
14613TIP3    H165254   6.131   1.295   1.912  0.4837 -0.7425  0.5032
14613TIP3    H265255   6.190   1.194   1.817 -0.0254  0.2425 -0.8957
14614TIP3   OH265256   0.026   2.126  12.618  0.0944  0.3965  0.3148
14614TIP3    H165257  -0.005   2.104  12.530  0.1817  2.2400 -0.2214
14614TIP3    H265258  -0.046   2.100  12.676 -1.0083  1.3727 -0.5594
14615TIP3   OH265259   3.768   3.722  14.561 -0.1035  0.1907 -0.3296
14615TIP3    H165260   3.690   3.769  14.533  1.1534  2.2130 -0.6716
14615TIP3    H265261   3.793   3.669  14.485 -0.2315  0.8124 -0.8158
14616TIP3   OH265262   0.613   1.493  16.553  0.1900 -0.8317 -0.1694
14616TIP3    H165263   0.664   1.436  16.495 -0.9546 -0.7981 -1.2598
14616TIP3    H265264   0.669   1.569  16.567  1.0741 -1.4890 -0.0308
14617TIP3   OH265265   4.207   6.439  13.365 -0.2249  0.4773  0.1262
14617TIP3    H165266   4.112   6.435  13.353 -0.2668 -0.4630  0.6895
14617TIP3    H265267   4.239   6.360  13.323  0.4240  1.2626 -0.9116
14618TIP3   OH265268   6.188   0.323  15.998  0.2353  0.0457 -0.1276
14618TIP3    H165269   6.222   0.407  15.967  1.1072 -0.0881  0.4490
14618TIP3    H265270   6.128   0.346  16.069  0.4927  0.1767  0.0464
14619TIP3   OH265271   1.247   4.871  11.130  0.8738  0.4306  0.3611
14619TIP3    H165272   1.259   4.809  11.202  0.8503  1.5525  1.3671
14619TIP3    H265273   1.335   4.880  11.093  0.7196 -0.8381 -0.3560
14620TIP3   OH265274   2.776   2.862  12.083  0.2816 -0.2399  0.4161
14620TIP3    H165275   2.825   2.928  12.034  0.1651  0.6076  1.3964
14620TIP3    H265276   2.820   2.857  12.168  0.4336 -1.6247  0.2780
14621TIP3   OH265277   4.556   3.776   0.920  0.0768 -0.1874  0.2793
14621TIP3    H165278   4.494   3.730   0.977 -0.3386 -0.6645 -0.5460
14621TIP3    H265279   4.550   3.731   0.836  1.7404 -0.3969  0.2509
14622TIP3   OH265280   2.583   6.618   4.074 -0.7202  0.2718  0.0442
14622TIP3    H165281   2.496   6.656   4.084 -0.7662 -0.0090  0.7679
14622TIP3    H265282   2.598   6.572   4.157  0.2002  0.4929  0.0041
14623TIP3   OH265283   1.919   0.582   2.668 -0.7072 -0.0581 -0.2905
14623TIP3    H165284   1.972   0.639   2.724 -1.4617 -0.0357  0.4179
14623TIP3    H265285   1.952   0.494   2.686 -2.1577 -0.2645  1.6222
14624TIP3   OH265286   3.072   4.748  13.189 -0.4252  0.1597 -0.1355
14624TIP3    H165287   2.999   4.787  13.237 -0.7500  0.1809 -0.6374
14624TIP3    H265288   3.144   4.746  13.252 -0.5650  1.0723  0.0627
14625TIP3   OH265289   1.768   2.115  14.870 -0.3018  0.2935 -0.0217
14625TIP3    H165290   1.833   2.176  14.836 -0.0476 -0.6526 -1.3043
14625TIP3    H265291   1.818   2.036  14.890 -0.0582  1.2971  4.4356
14626TIP3   OH265292   2.614   3.585   5.507  0.0440  0.0385  0.6281
14626TIP3    H165293   2.611   3.633   5.589  1.0797  1.0321  0.1107
14626TIP3    H265294   2.707   3.574   5.488 -0.1683 -1.3437  0.2423
14627TIP3   OH265295   5.564   0.011  16.111  0.2667 -0.2474  0.3881
14627TIP3    H165296   5.634   0.074  16.094  2.4623 -3.2338 -3.1637
14627TIP3    H265297   5.514   0.007  16.030 -0.5937 -2.1297  0.9330
14628TIP3   OH265298   1.328   3.288   2.891  0.4909 -0.3239 -0.6571
14628TIP3    H165299   1.408   3.261   2.936  0.1142 -1.7065 -0.7577
14628TIP3    H265300   1.332   3.242   2.807 -1.5579 -2.4877  0.3124
14629TIP3   OH265301   1.437   6.287   1.797 -0.8587  0.1685  0.4390
14629TIP3    H165302   1.398   6.220   1.853 -0.0996 -0.6092  0.0666
14629TIP3    H265303   1.449   6.363   1.855 -1.1814 -0.2198  1.0205
14630TIP3   OH265304   5.719   4.024   5.481  0.4296 -0.2288  0.2318
14630TIP3    H165305   5.783   3.968   5.437  0.2214 -0.1626 -0.1529
14630TIP3    H265306   5.731   4.110   5.441  0.4081 -0.1114  0.4764
14631TIP3   OH265307   2.635   4.765  14.106  0.4597 -0.1084 -0.8060
14631TIP3    H165308   2.670   4.748  14.194  0.6023  1.4261 -0.5339
14631TIP3    H265309   2.655   4.685  14.057  1.0651 -0.7006  0.3449
14632TIP3   OH265310   4.248   2.981  13.772  0.1915 -0.5886  0.3501
14632TIP3    H165311   4.158   2.971  13.804  0.3765 -1.2629  0.6822
14632TIP3    H265312   4.291   2.900  13.799  0.8431 -0.3549  0.0072
14633TIP3   OH265313   3.369   4.961  14.750  0.2298 -0.1002  0.1399
14633TIP3    H165314   3.462   4.973  14.771 -0.3035  0.8250  2.1822
14633TIP3    H265315   3.342   5.044  14.711 -0.2967  0.5473  1.8323
14634TIP3   OH265316   0.664   0.393  14.798  0.1342  0.8599 -0.0782
14634TIP3    H165317   0.659   0.398  14.893 -0.2501  0.0281 -0.0457
14634TIP3    H265318   0.605   0.321  14.775 -0.2277  1.4373 -0.9884
14635TIP3   OH265319   0.725   1.051  16.454  1.1252 -0.0161  0.9146
14635TIP3    H165320   0.763   1.130  16.492 -0.2612  0.5067  1.2896
14635TIP3    H265321   0.798   1.006  16.412  2.0705  1.0908  1.3360
14636TIP3   OH265322   0.685   1.921  14.889 -0.1907 -0.3201 -0.3759
14636TIP3    H165323   0.664   1.900  14.798  0.7260 -1.9159 -0.2511
14636TIP3    H265324   0.616   1.877  14.940  1.4805 -2.8440 -0.1370
14637TIP3   OH265325   6.700   3.241   4.867 -0.1429  0.4986 -0.1862
14637TIP3    H165326   6.726   3.323   4.825  1.9052  0.2675  0.5264
14637TIP3    H265327   6.651   3.268   4.944 -1.8661  0.9565 -1.3780
14638TIP3   OH265328   3.943   2.432  13.229  0.0243 -0.4317 -0.5319
14638TIP3    H165329   3.855   2.434  13.266  0.5459 -0.0698  0.7416
14638TIP3    H265330   3.968   2.524  13.222 -0.1144 -0.4828 -1.9574
14639TIP3   OH265331   1.042   0.067  13.441  0.1582 -0.2543  0.0692
14639TIP3    H165332   0.948   0.050  13.451 -0.0368  1.0962  0.8029
14639TIP3    H265333   1.066   0.113  13.521  1.4787 -0.6739 -0.0707
14640TIP3   OH265334   5.850   6.325  14.631 -0.1316 -0.1442 -0.3431
14640TIP3    H165335   5.769   6.291  14.594 -0.7960  2.3939 -1.4271
14640TIP3    H265336   5.914   6.321  14.559  0.3853 -1.0222  0.1494
14641TIP3   OH265337   2.708   2.825  13.210  0.2134 -0.3990  0.1934
14641TIP3    H165338   2.660   2.851  13.132 -0.1485 -0.2336  0.4681
14641TIP3    H265339   2.665   2.744  13.238  1.0747 -1.0873 -0.4269
14642TIP3   OH265340   3.727   0.665   0.693 -0.6277  0.1769  0.0029
14642TIP3    H165341   3.699   0.574   0.689 -1.9049  0.5838 -1.0300
14642TIP3    H265342   3.689   0.698   0.775 -2.4000  0.4464 -0.8851
14643TIP3   OH265343   6.596   2.985  11.639 -0.0188 -0.4735 -0.2886
14643TIP3    H165344   6.502   2.985  11.656  0.2558 -0.5737  1.4190
14643TIP3    H265345   6.605   3.022  11.551 -1.5236  1.4694  0.3105
14644TIP3   OH265346   5.569   1.216  15.750 -0.5594 -0.0930 -0.7066
14644TIP3    H165347   5.638   1.212  15.683  0.5592 -0.6546  0.4319
14644TIP3    H265348   5.545   1.309  15.753  0.1816  0.1249 -1.1142
14645TIP3   OH265349   1.362   1.672  16.632 -0.4815  0.3539 -0.1603
14645TIP3    H165350   1.336   1.714  16.714 -1.2689  0.1429 -0.2928
14645TIP3    H265351   1.383   1.582  16.656  0.3236  0.5694 -0.0245
14646TIP3   OH265352   0.550   5.452  16.692  0.5088  0.1863  0.7218
14646TIP3    H165353   0.561   5.536  16.647  2.4060 -1.0664 -1.3612
14646TIP3    H265354   0.462   5.423  16.666  1.2884 -0.1859 -1.8414
14647TIP3   OH265355   2.776   3.760   2.148 -0.0772 -0.4771  0.0954
14647TIP3    H165356   2.719   3.722   2.215 -1.2485 -0.2102 -0.7131
14647TIP3    H265357   2.854   3.704   2.149 -0.1470 -0.5906  1.5245
14648TIP3   OH265358   6.469   5.925   4.812 -0.0176 -0.3397 -0.5320
14648TIP3    H165359   6.410   5.984   4.859  0.2518  0.5704 -1.3174
14648TIP3    H265360   6.515   5.878   4.882 -0.7455 -0.1490  0.0987
14649TIP3   OH265361   2.996   5.378   4.534  0.1977  1.0437 -0.1164
14649TIP3    H165362   3.003   5.409   4.625 -0.4345  1.1250 -0.0898
14649TIP3    H265363   2.929   5.435   4.496 -1.6369 -0.8335  0.1702
14650TIP3   OH265364   4.722   4.425   1.776 -0.2052 -0.4641  0.0006
14650TIP3    H165365   4.786   4.397   1.841  0.8825  0.7691 -0.5070
14650TIP3    H265366   4.692   4.510   1.806 -2.7788 -1.6199  1.0248
14651TIP3   OH265367   1.053   1.231   4.728  0.8460 -0.5318 -0.3199
14651TIP3    H165368   1.086   1.213   4.816  0.6345 -1.8952 -0.4905
14651TIP3    H265369   1.063   1.147   4.682 -0.1546 -0.1672 -1.2349
14652TIP3   OH265370   3.608   5.074  12.110  0.6123 -0.1270 -0.3678
14652TIP3    H165371   3.682   5.065  12.051  1.7150 -0.1190  0.9816
14652TIP3    H265372   3.645   5.070  12.198 -0.9603  0.0416  0.3536
14653TIP3   OH265373   2.024   2.766   6.370  0.3338 -0.2740 -0.1297
14653TIP3    H165374   2.059   2.679   6.384  1.8104  0.1145 -1.1287
14653TIP3    H265375   1.932   2.752   6.348  0.8403 -1.6903 -1.4935
14654TIP3   OH265376   4.392   3.060  11.914 -0.4378  0.1079  0.0982
14654TIP3    H165377   4.399   3.151  11.888  0.2723  0.7106  2.1963
14654TIP3    H265378   4.298   3.042  11.916 -1.0436  2.4017  4.3770
14655TIP3   OH265379   3.246   0.695   4.370 -0.0570  0.2904 -0.1481
14655TIP3    H165380   3.212   0.774   4.412  0.3579 -0.5544  1.8906
14655TIP3    H265381   3.331   0.721   4.336  1.0286  0.2704  2.3565
14656TIP3   OH265382   6.729   6.710   1.694  0.6102  0.3245  0.6052
14656TIP3    H165383   6.700   6.778   1.633 -1.6427  0.2149  1.4481
14656TIP3    H265384   6.727   6.629   1.643  2.3321  0.6937 -0.1257
14657TIP3   OH265385   4.230   2.315   2.041  0.2875  0.6031 -0.0775
14657TIP3    H165386   4.181   2.394   2.065 -0.1043  0.7464 -1.2808
14657TIP3    H265387   4.319   2.331   2.075 -0.1516  0.9048  0.9817
14658TIP3   OH265388   5.940   2.694  11.043 -0.3885  0.7030  0.1892
14658TIP3    H165389   5.960   2.771  11.096  3.1032 -0.2792  0.5439
14658TIP3    H265390   5.965   2.719  10.954 -2.4656  1.0068 -0.3739
14659TIP3   OH265391   5.110   2.479  12.551  0.0744  0.3351  0.2213
14659TIP3    H165392   5.186   2.521  12.510 -0.0511  1.4464  1.0769
14659TIP3    H265393   5.099   2.525  12.634 -0.2081 -1.2823  1.1188
14660TIP3   OH265394   0.284   0.212   2.914 -0.0414 -0.6692 -0.4103
14660TIP3    H165395   0.260   0.120   2.927 -1.8295 -0.3449 -1.1332
14660TIP3    H265396   0.323   0.239   2.997  2.1755 -2.5275 -0.7475
14661TIP3   OH265397   6.409   6.081   4.245 -0.0481  0.7550  0.3235
14661TIP3    H165398   6.432   6.165   4.206 -0.2172  0.1507 -1.1442
14661TIP3    H265399   6.317   6.069   4.222  0.4315 -0.6168 -1.0286
14662TIP3   OH265400   0.757   3.751  15.205  0.2850  0.3236  0.0294
14662TIP3    H165401   0.838   3.755  15.255 -0.7672 -0.0502  1.8406
14662TIP3    H265402   0.693   3.713  15.265 -0.8658 -0.8994 -1.8590
14663TIP3   OH265403   3.957   0.806   5.329  0.0260 -0.5125  0.1279
14663TIP3    H165404   3.933   0.760   5.249 -2.3931  0.2085  0.3623
14663TIP3    H265405   3.916   0.756   5.399  3.1239 -1.8516  1.1585
14664TIP3   OH265406   5.981   6.558  16.678  0.2880 -0.0282 -0.0736
14664TIP3    H165407   6.070   6.552  16.712 -0.5015  0.3497  2.2551
14664TIP3    H265408   5.975   6.487  16.614  1.8673 -0.8959  0.6769
14665TIP3   OH265409   5.011   3.829   0.636  0.1868 -0.0571 -0.1446
14665TIP3    H165410   5.036   3.810   0.726 -1.3161  0.8479  0.5052
14665TIP3    H265411   5.061   3.767   0.583 -0.0641 -1.6601  1.4238
14666TIP3   OH265412   1.224   3.685  14.685 -0.0778 -0.6741 -0.1635
14666TIP3    H165413   1.216   3.741  14.608 -0.5211 -0.8234 -0.2293
14666TIP3    H265414   1.300   3.719  14.732 -1.1834  0.9057  0.5566
14667TIP3   OH265415   5.897   4.188  16.654  0.4075  0.3638 -0.0433
14667TIP3    H165416   5.857   4.118  16.602 -0.2632  0.8199 -0.1636
14667TIP3    H265417   5.905   4.262  16.593 -1.7345  1.3910  0.7972
14668TIP3   OH265418   4.537   5.361  11.562 -0.4834  0.7772  0.2255
14668TIP3    H165419   4.623   5.345  11.523 -0.9188 -0.7065 -0.1673
14668TIP3    H265420   4.550   5.348  11.655 -0.8558 -2.4569 -0.0613
14669TIP3   OH265421   3.656   0.502  12.611 -0.4048  0.5035 -0.3288
14669TIP3    H165422   3.646   0.407  12.613  2.1317  0.1420  1.9321
14669TIP3    H265423   3.620   0.531  12.695  0.9589  1.1863  0.0519
14670TIP3   OH265424   5.946   3.160  15.007 -0.2357 -0.8269  0.0107
14670TIP3    H165425   5.995   3.136  15.086 -2.3608  1.0428  2.0166
14670TIP3    H265426   5.999   3.228  14.965 -0.1997 -0.1398  1.1429
14671TIP3   OH265427   5.247   0.446   4.602 -0.2553 -0.5059 -0.3852
14671TIP3    H165428   5.273   0.420   4.690  1.1904 -1.0479 -0.9400
14671TIP3    H265429   5.203   0.369   4.566 -0.3842 -0.4637 -0.3182
14672TIP3   OH265430   0.187   3.808   1.981  0.1238 -0.7411 -0.2141
14672TIP3    H165431   0.190   3.878   2.046 -0.1801 -0.6124 -0.3370
14672TIP3    H265432   0.218   3.730   2.027 -0.2110 -0.6791  0.1193
14673TIP3   OH265433   4.507   0.729  16.050  0.0496  0.1536 -0.3559
14673TIP3    H165434   4.570   0.763  15.986 -0.0247  0.6038 -0.1954
14673TIP3    H265435   4.442   0.799  16.059  1.4137  1.2169  2.1090
14674TIP3   OH265436   5.839   3.581   4.700  0.1769  0.1152 -0.0708
14674TIP3    H165437   5.906   3.648   4.707  0.8318 -0.4486 -0.7469
14674TIP3    H265438   5.761   3.620   4.739  0.7762  0.9450  0.3144
14675TIP3   OH265439   2.316   1.971   0.472  0.2004 -0.4600  0.0096
14675TIP3    H165440   2.290   2.039   0.410  0.4659 -0.8701 -0.5602
14675TIP3    H265441   2.396   1.934   0.434  0.4292 -0.6393  0.6581
14676TIP3   OH265442   1.085   1.042   1.578 -0.2373 -0.1833 -0.1352
14676TIP3    H165443   1.168   1.030   1.531  0.2500 -0.6966  0.8369
14676TIP3    H265444   1.098   1.121   1.631  0.2015 -1.1243  1.1960
14677TIP3   OH265445   0.538   5.596  12.026 -0.6812 -0.0242 -0.2629
14677TIP3    H165446   0.557   5.503  12.034  1.8082 -0.0395 -3.8079
14677TIP3    H265447   0.525   5.610  11.932 -1.2590  3.1546  0.1605
14678TIP3   OH265448   0.190   4.477   4.589 -1.0609  0.1354 -0.1754
14678TIP3    H165449   0.275   4.438   4.568 -0.8290 -0.0091  0.9621
14678TIP3    H265450   0.170   4.534   4.515  0.5052  0.9393 -0.0177
14679TIP3   OH265451   5.255   5.650  11.890  0.6195 -0.7368 -0.6100
14679TIP3    H165452   5.330   5.640  11.949  1.2422 -1.7973 -1.5444
14679TIP3    H265453   5.254   5.744  11.869 -0.3946 -0.0704  2.0096
14680TIP3   OH265454   2.599   0.955   5.329 -0.2053  0.0731  0.0703
14680TIP3    H165455   2.620   0.949   5.236 -2.7910  4.2672 -1.0419
14680TIP3    H265456   2.506   0.976   5.332  0.2405  2.5014  3.3557
14681TIP3   OH265457   5.908   0.778   2.057 -0.0779 -0.0052 -0.3122
14681TIP3    H165458   5.858   0.827   2.122  1.0738  1.9394 -0.8097
14681TIP3    H265459   5.863   0.795   1.974 -0.9263 -1.6076 -0.2086
14682TIP3   OH265460   1.494   3.310   5.888 -0.4786  0.0700  0.4026
14682TIP3    H165461   1.515   3.377   5.954 -2.1148  0.2475  0.7998
14682TIP3    H265462   1.555   3.327   5.816  0.9326  0.2749  1.5947
14683TIP3   OH265463   1.380   5.845   0.093  0.0038  0.4352 -0.2289
14683TIP3    H165464   1.358   5.911   0.028 -0.2702  1.2246  0.6498
14683TIP3    H265465   1.409   5.894   0.170  0.7195 -0.4836  0.1175
14684TIP3   OH265466   3.692   5.667  11.420  0.6512  0.2501  0.5966
14684TIP3    H165467   3.632   5.607  11.465 -0.1394  1.4168  1.1516
14684TIP3    H265468   3.662   5.667  11.329 -0.5555  1.2173  0.9680
14685TIP3   OH265469   3.932   2.572  11.424  0.0289 -0.4339 -0.3743
14685TIP3    H165470   3.916   2.560  11.518  0.4587  1.0227 -0.0909
14685TIP3    H265471   4.022   2.541  11.412  0.8136  1.4840  0.1788
14686TIP3   OH265472   3.496   1.400   0.345  0.7564 -0.2673  0.6557
14686TIP3    H165473   3.436   1.392   0.420 -0.3528 -1.3494 -0.2958
14686TIP3    H265474   3.575   1.353   0.372  0.3335 -0.7285  1.1289
14687TIP3   OH265475   2.905   0.415   3.290 -0.0608  0.3414  0.2105
14687TIP3    H165476   2.870   0.470   3.360  2.3204  1.0906  0.9082
14687TIP3    H265477   2.963   0.472   3.241  0.5522 -0.9316 -0.6013
14688TIP3   OH265478   1.069   1.451  16.532  0.0421  0.0519  0.3496
14688TIP3    H165479   1.097   1.435  16.442  1.8787  0.4115  0.8063
14688TIP3    H265480   0.998   1.515  16.524  1.6498  1.8023 -0.7759
14689TIP3   OH265481   2.822   1.472   4.578 -0.0507 -0.4896 -0.4191
14689TIP3    H165482   2.774   1.417   4.516 -0.8554  1.4491 -1.5941
14689TIP3    H265483   2.756   1.501   4.641 -0.0013  0.4645 -0.7930
14690TIP3   OH265484   0.938   2.126   0.644  0.1535  0.3112  0.5557
14690TIP3    H165485   0.913   2.101   0.555 -2.2713  1.3692  0.8631
14690TIP3    H265486   0.888   2.068   0.700  2.2009 -0.8295  1.2966
14691TIP3   OH265487   3.956   1.978  15.055  0.3106  0.3609 -0.2046
14691TIP3    H165488   3.876   2.000  15.102  0.1880 -0.3936 -0.0503
14691TIP3    H265489   4.027   2.012  15.110  0.0605  2.8372 -1.3065
14692TIP3   OH265490   6.630   2.380  13.037 -0.1274  0.1918 -0.1416
14692TIP3    H165491   6.620   2.286  13.023 -0.4041  0.2260 -0.1861
14692TIP3    H265492   6.625   2.418  12.949 -2.2298  0.4388  0.0401
14693TIP3   OH265493   1.103   5.312   4.196 -0.0709  0.7610  0.7191
14693TIP3    H165494   1.185   5.358   4.175  0.8502 -0.8755  0.5725
14693TIP3    H265495   1.118   5.275   4.283 -0.4700  0.0681  0.4988
14694TIP3   OH265496   0.520   2.810  12.863  0.2412  0.3580  0.1155
14694TIP3    H165497   0.598   2.854  12.894 -0.4497 -0.2963  3.0466
14694TIP3    H265498   0.553   2.745  12.801  1.5586  2.6333 -1.7253
14695TIP3   OH265499   4.674   4.771  11.204  0.8997 -0.1421 -0.1691
14695TIP3    H165500   4.686   4.689  11.155  1.0732 -1.1489  1.4927
14695TIP3    H265501   4.579   4.785  11.205  0.8655 -0.3433 -0.4101
14696TIP3   OH265502   5.945   2.894  13.965  0.2616 -0.2733 -0.0461
14696TIP3    H165503   5.938   2.891  13.870  0.8342 -0.6575 -0.0811
14696TIP3    H265504   5.909   2.810  13.995 -2.0779  0.7450  0.2418
14697TIP3   OH265505   1.165   5.116   3.895 -0.4441 -0.0353  0.0898
14697TIP3    H165506   1.079   5.118   3.853 -0.4393  2.4524  0.0498
14697TIP3    H265507   1.197   5.206   3.888  3.1219 -1.2512 -1.8059
14698TIP3   OH265508   3.810   1.699   5.070  0.5493  0.3973 -0.3127
14698TIP3    H165509   3.766   1.627   5.025  2.2985 -0.0985 -1.3201
14698TIP3    H265510   3.748   1.772   5.065 -1.1257 -0.8907  0.4510
14699TIP3   OH265511   4.986   6.688   5.985 -0.3256 -0.6541 -0.2236
14699TIP3    H165512   5.006   6.738   6.064 -0.6519 -2.8003  1.3133
14699TIP3    H265513   4.902   6.645   6.004 -0.7720 -0.6812 -2.0290
14700TIP3   OH265514   3.903   4.472   4.306  0.1040 -0.2464 -0.5867
14700TIP3    H165515   3.849   4.531   4.252 -0.1316  0.5720  0.4927
14700TIP3    H265516   3.993   4.496   4.285  0.0243 -0.2824 -0.9792
14701TIP3   OH265517   3.745   3.593  13.833  0.2757  0.3837  0.0023
14701TIP3    H165518   3.694   3.521  13.794 -1.5465  1.3095  0.5367
14701TIP3    H265519   3.820   3.551  13.874  0.1000 -1.0321 -1.0568
14702TIP3   OH265520   5.872   2.868   5.243  0.3109  0.0873 -0.4991
14702TIP3    H165521   5.905   2.952   5.213 -1.4804  0.9740 -0.1066
14702TIP3    H265522   5.851   2.882   5.336 -0.3343 -0.6793 -0.5140
14703TIP3   OH265523   6.103   0.892  11.174 -0.1747 -0.1792 -0.0157
14703TIP3    H165524   6.016   0.931  11.165  0.0560  0.6487  1.0983
14703TIP3    H265525   6.139   0.891  11.086 -1.2695 -0.4189 -0.4692
14704TIP3   OH265526   2.056   5.645   3.655  0.0046 -0.2388  0.5216
14704TIP3    H165527   2.054   5.558   3.694  0.4574  0.3809  1.9685
14704TIP3    H265528   2.148   5.671   3.658  0.1237 -0.3190 -1.3487
14705TIP3   OH265529   1.341   1.880  12.090  0.0506  0.3020 -0.0964
14705TIP3    H165530   1.354   1.883  11.995 -1.4753  3.3482 -0.3361
14705TIP3    H265531   1.424   1.913  12.126  1.0054 -1.7861 -0.2259
14706TIP3   OH265532   4.332   0.225   5.176  0.2710 -0.8836 -0.1653
14706TIP3    H165533   4.327   0.297   5.113 -1.7305 -1.0510 -0.2727
14706TIP3    H265534   4.302   0.148   5.128  1.1164 -1.5199  0.3166
14707TIP3   OH265535   4.873   2.389  14.367  0.0654  1.1740 -0.3069
14707TIP3    H165536   4.952   2.428  14.405  0.1886 -0.4424  1.2108
14707TIP3    H265537   4.906   2.313  14.318 -0.6423 -0.9447  2.2924
14708TIP3   OH265538   2.078   3.882  12.707  0.0268  0.1456  0.1965
14708TIP3    H165539   2.086   3.969  12.668 -1.9491  0.3290  0.0735
14708TIP3    H265540   2.079   3.822  12.633  1.8697 -0.0137  0.3139
14709TIP3   OH265541   0.724   6.318   4.249  0.4756 -0.6047 -0.2914
14709TIP3    H165542   0.631   6.333   4.228  0.3386 -0.9622  0.0508
14709TIP3    H265543   0.733   6.348   4.339  1.2650  1.7730 -1.0775
14710TIP3   OH265544   1.110   1.075  12.566  0.3187  0.0056  0.0709
14710TIP3    H165545   1.159   1.132  12.506  0.5528  0.0683  0.3206
14710TIP3    H265546   1.104   0.991  12.520 -1.1825  0.5933 -0.8925
14711TIP3   OH265547   3.441   1.519  10.874  0.9606  0.2133 -0.1503
14711TIP3    H165548   3.385   1.541  10.949  2.4070  0.4289  0.9119
14711TIP3    H265549   3.396   1.447  10.831  0.3453 -0.2694  1.2535
14712TIP3   OH265550   1.905   6.530   2.667 -0.3812 -0.0720  0.1140
14712TIP3    H165551   1.827   6.477   2.658  0.7577 -2.1061  1.3921
14712TIP3    H265552   1.928   6.556   2.577 -1.9009 -0.3213 -0.3623
14713TIP3   OH265553   2.583   6.462   1.555 -0.1980  0.1908 -0.0731
14713TIP3    H165554   2.532   6.394   1.597 -0.9629  0.4066 -0.6380
14713TIP3    H265555   2.656   6.416   1.514  0.0135 -0.1267  0.6414
14714TIP3   OH265556   2.770   0.879   4.647 -0.5023  0.3977 -0.4084
14714TIP3    H165557   2.808   0.941   4.585 -1.4774  2.3484  0.8445
14714TIP3    H265558   2.690   0.849   4.605 -0.6046  0.8715 -0.5568
14715TIP3   OH265559   3.944   3.210  15.041 -0.6152 -0.1960  0.0921
14715TIP3    H165560   3.959   3.303  15.022 -1.6134 -0.2856 -1.3068
14715TIP3    H265561   4.025   3.180  15.081 -0.0489  1.1281 -0.0148
14716TIP3   OH265562   2.100   0.205   5.375 -0.4688  0.0893  0.7632
14716TIP3    H165563   2.162   0.265   5.416  0.1584 -0.2788  0.3736
14716TIP3    H265564   2.114   0.217   5.281 -0.3913 -0.5979  0.6799
14717TIP3   OH265565   4.314   1.158  13.385 -0.2295 -0.2741 -0.1179
14717TIP3    H165566   4.226   1.170  13.348 -0.0013 -1.1216 -0.9691
14717TIP3    H265567   4.340   1.246  13.412 -0.0283  0.6138 -2.8689
14718TIP3   OH265568   3.144   0.560   2.651  0.9903  0.5805 -0.9692
14718TIP3    H165569   3.100   0.484   2.613  0.6528 -0.2856  1.0499
14718TIP3    H265570   3.232   0.529   2.672  0.2277  0.0442  1.7600
14719TIP3   OH265571   6.157   2.344  15.840  0.5046 -0.5573 -0.6095
14719TIP3    H165572   6.239   2.299  15.858  0.2696  0.0233  2.5070
14719TIP3    H265573   6.115   2.291  15.771  1.3490 -3.7168  1.0857
14720TIP3   OH265574   4.109   0.743  13.515  0.2946 -0.2816  0.9033
14720TIP3    H165575   4.139   0.654  13.530  0.2217 -0.6577 -0.9934
14720TIP3    H265576   4.016   0.741  13.536  0.0906 -0.9052  0.0087
14721TIP3   OH265577   3.020   4.148  14.087 -0.5164 -0.0386  0.1473
14721TIP3    H165578   3.097   4.146  14.031 -0.8190 -0.6950 -0.2599
14721TIP3    H265579   2.965   4.218  14.051 -0.8719 -0.6901 -0.6163
14722TIP3   OH265580   2.601   3.025   4.128  0.5120  0.3202  0.3322
14722TIP3    H165581   2.624   3.116   4.110 -0.4908  0.0511 -2.9456
14722TIP3    H265582   2.533   3.005   4.064  0.5904 -2.7047  1.0751
14723TIP3   OH265583   6.214   0.852  11.973 -0.0348  0.9527 -0.1735
14723TIP3    H165584   6.277   0.847  11.901  0.0514  1.7838 -0.1631
14723TIP3    H265585   6.128   0.856  11.930 -0.0747  0.0757 -0.1921
14724TIP3   OH265586   2.463   2.303   0.845  0.0951 -0.0784  0.5372
14724TIP3    H165587   2.540   2.317   0.791 -0.2289  1.8817  0.5147
14724TIP3    H265588   2.468   2.211   0.870  1.6439 -0.3672 -0.6562
14725TIP3   OH265589   1.311   5.358  11.430 -0.3642  0.7434  0.1126
14725TIP3    H165590   1.279   5.399  11.511  0.6169 -1.9753  2.0258
14725TIP3    H265591   1.232   5.326  11.387 -0.7275 -1.8727  2.4593
14726TIP3   OH265592   5.466   3.798   0.092 -0.0815 -0.1291 -0.1236
14726TIP3    H165593   5.375   3.766   0.097 -0.7375  1.6590  0.1628
14726TIP3    H265594   5.518   3.720   0.074 -1.5758 -1.3564  0.6445
14727TIP3   OH265595   6.727   0.281   1.988 -0.3655  0.1714  0.4838
14727TIP3    H165596   6.658   0.311   2.047 -1.2850  2.3549 -1.5445
14727TIP3    H265597   6.681   0.254   1.909  0.9217 -1.3822  0.2261
14728TIP3   OH265598   6.150   1.123   2.243 -0.2615 -0.4267  0.7386
14728TIP3    H165599   6.245   1.131   2.232 -0.3753 -0.2763 -0.2696
14728TIP3    H265600   6.117   1.212   2.229 -0.5535 -0.4861  1.0396
14729TIP3   OH265601   0.820   0.615  12.964  0.4746  0.0149  0.2243
14729TIP3    H165602   0.747   0.574  13.010  0.3832 -0.4804 -0.3557
14729TIP3    H265603   0.896   0.598  13.019  0.3477 -0.4838  0.2457
14730TIP3   OH265604   4.476   0.566  11.013  0.0654  0.3013 -0.1310
14730TIP3    H165605   4.561   0.583  11.052 -0.5828  0.7554  1.1228
14730TIP3    H265606   4.460   0.641  10.956  1.2412 -0.6121 -1.7650
14731TIP3   OH265607   3.954   0.236   3.910 -0.4412 -0.0894 -0.2249
14731TIP3    H165608   4.022   0.252   3.845  0.3595 -0.3716  0.5199
14731TIP3    H265609   3.880   0.291   3.883  0.9879  2.2451  0.3505
14732TIP3   OH265610   4.207   6.551   1.397 -0.6968  0.0723  0.4214
14732TIP3    H165611   4.172   6.639   1.405  0.9043  0.6441  1.7073
14732TIP3    H265612   4.217   6.521   1.488 -1.4442 -1.5298  0.0017
14733TIP3   OH265613   3.596   1.326  10.660  0.4623 -0.5565  0.1329
14733TIP3    H165614   3.504   1.307  10.678  0.8587  0.0803  3.4293
14733TIP3    H265615   3.602   1.323  10.564 -3.7457  2.6592 -0.5564
14734TIP3   OH265616   1.276   4.963  13.000  0.1293 -0.0618 -0.2888
14734TIP3    H165617   1.221   5.038  13.024 -0.2049 -0.4922  0.3351
14734TIP3    H265618   1.360   4.981  13.043  0.4981  0.6144 -1.2724
14735TIP3   OH265619   3.301   4.989   0.027  0.3484 -0.0072  0.0952
14735TIP3    H165620   3.355   5.007   0.103 -0.2049  0.6435  0.3391
14735TIP3    H265621   3.260   4.905   0.046  1.2195 -0.4874 -0.0722
14736TIP3   OH265622   0.759   6.244  15.260  0.0375  0.3883 -0.0294
14736TIP3    H165623   0.742   6.202  15.176  0.8861  0.1117 -0.0697
14736TIP3    H265624   0.674   6.245  15.305  0.1246 -2.0266  0.2817
14737TIP3   OH265625   1.083   6.073   3.754 -0.0151 -0.0331 -0.3568
14737TIP3    H165626   1.027   6.143   3.721 -0.3028 -0.2674 -0.3687
14737TIP3    H265627   1.060   6.065   3.846 -0.9882 -1.0497 -0.6663
14738TIP3   OH265628   0.090   3.541  12.183 -0.3379 -0.3307  0.4422
14738TIP3    H165629   0.034   3.618  12.183  0.7769  0.5095 -0.1435
14738TIP3    H265630   0.149   3.553  12.258  1.0119  0.3122 -0.6676
14739TIP3   OH265631   4.206   3.125   4.740  0.0858 -0.1778  0.5218
14739TIP3    H165632   4.176   3.056   4.800  0.7157  0.4170  1.5581
14739TIP3    H265633   4.189   3.206   4.788 -2.2957  0.5610 -1.3792
14740TIP3   OH265634   6.710   3.443  14.386  0.1864 -0.3813  0.2959
14740TIP3    H165635   6.690   3.536  14.382 -0.1863 -0.3720  1.8065
14740TIP3    H265636   6.633   3.400  14.352 -0.3236 -0.1707  1.1497
14741TIP3   OH265637   4.407   3.341  11.850  0.1171  0.6082  0.0802
14741TIP3    H165638   4.376   3.387  11.772  0.1217  0.8245  0.2051
14741TIP3    H265639   4.433   3.411  11.910  1.0644  0.4281 -0.1045
14742TIP3   OH265640   6.704   5.102  15.727 -0.1902 -0.5308 -0.3911
14742TIP3    H165641   6.617   5.075  15.699 -0.7295 -0.5006  1.1413
14742TIP3    H265642   6.728   5.039  15.795  0.7461 -0.2041 -0.4026
14743TIP3   OH265643   2.137   4.673   1.972 -0.1815 -0.0513  0.2052
14743TIP3    H165644   2.096   4.730   1.907 -2.2490 -0.6311  0.9183
14743TIP3    H265645   2.113   4.584   1.946  2.4498 -0.6363 -0.5149
14744TIP3   OH265646   1.426   2.850  16.837 -0.9916 -0.0376 -0.2990
14744TIP3    H165647   1.450   2.835  16.746  1.2247  0.6314  0.1295
14744TIP3    H265648   1.365   2.924  16.834 -0.7279  0.1470 -1.1979
14745TIP3   OH265649   4.660   3.437   6.050  0.0098  0.2894 -0.7445
14745TIP3    H165650   4.654   3.525   6.087 -0.3781  0.8639 -2.1158
14745TIP3    H265651   4.738   3.399   6.090  1.3175  1.9731 -1.5896
14746TIP3   OH265652   0.649   6.414   4.532 -0.1070 -0.3274 -0.3089
14746TIP3    H165653   0.725   6.472   4.542 -0.1846 -0.3629  0.6088
14746TIP3    H265654   0.595   6.432   4.609 -0.1587 -1.5768 -0.0314
14747TIP3   OH265655   1.332   2.793  12.816 -0.0823 -0.5132 -0.1455
14747TIP3    H165656   1.272   2.765  12.886  1.3097 -0.8589  0.9431
14747TIP3    H265657   1.274   2.810  12.742 -1.5424 -0.8208  0.8611
14748TIP3   OH265658   1.416   1.999  16.177 -0.0317 -0.2324  0.1366
14748TIP3    H165659   1.409   1.979  16.084 -1.1751 -0.3730  0.2356
14748TIP3    H265660   1.460   2.083  16.181  0.3420 -0.3896 -0.5099
14749TIP3   OH265661   5.810   0.216   2.182  0.2362  0.2753  0.3442
14749TIP3    H165662   5.877   0.180   2.240  1.8073  1.2035 -0.8019
14749TIP3    H265663   5.834   0.308   2.172  0.3296  0.0586 -2.1333
14750TIP3   OH265664   0.137   5.005  11.723  0.4222  0.3130  0.2068
14750TIP3    H165665   0.100   5.092  11.741 -2.0648 -1.0945  2.4655
14750TIP3    H265666   0.117   4.989  11.630 -1.5848  1.0483  0.4683
14751TIP3   OH265667   0.683   2.146  10.756 -0.0123 -0.5708 -0.3405
14751TIP3    H165668   0.619   2.213  10.730  0.3148  0.8483  2.2095
14751TIP3    H265669   0.757   2.195  10.790  0.9013 -2.2225  0.1645
14752TIP3   OH265670   0.118   1.501  16.921  0.3532  0.2041 -0.1177
14752TIP3    H165671   0.117   1.584  16.968 -0.5993 -0.2693  0.7596
14752TIP3    H265672   0.109   1.525  16.829  0.5262  1.0915  0.0888
14753TIP3   OH265673   3.302   0.964  11.413 -0.5318 -0.1321 -0.2953
14753TIP3    H165674   3.371   0.900  11.430  0.3473  0.6698 -0.7539
14753TIP3    H265675   3.240   0.918  11.357 -0.1772 -0.7434 -0.1959
14754TIP3   OH265676   4.516   6.421   2.902  0.2919  0.2334  0.3207
14754TIP3    H165677   4.482   6.510   2.902 -1.3336 -0.3517  0.0766
14754TIP3    H265678   4.468   6.377   2.831 -0.4609 -1.3626  1.7605
14755TIP3   OH265679   2.784   4.087   5.255 -0.2976 -0.1906  0.0904
14755TIP3    H165680   2.745   4.070   5.169  2.1490 -0.5681 -1.0546
14755TIP3    H265681   2.853   4.152   5.237 -0.0793  0.1193  1.8779
14756TIP3   OH265682   0.122   0.468   2.365  0.9366 -0.1808  0.4397
14756TIP3    H165683   0.163   0.415   2.297  1.1199 -0.0110  0.4172
14756TIP3    H265684   0.045   0.506   2.322 -0.5280 -2.2364  1.0787
14757TIP3   OH265685   4.368   6.091  15.727  0.2963 -0.0394 -0.0202
14757TIP3    H165686   4.417   6.170  15.701 -0.1236  0.6428  1.1457
14757TIP3    H265687   4.277   6.112  15.708  0.1811 -0.2320  0.3098
14758TIP3   OH265688   6.312   1.485   2.912 -0.0991  0.0562 -0.1334
14758TIP3    H165689   6.361   1.531   2.981  2.0005 -3.0033  0.6099
14758TIP3    H265690   6.259   1.420   2.960 -0.7382 -0.2742 -1.2631
14759TIP3   OH265691   2.229   4.724   6.292 -0.2981 -0.0498 -0.1219
14759TIP3    H165692   2.299   4.660   6.280  1.9242  1.7243  2.2172
14759TIP3    H265693   2.170   4.684   6.356  0.2956 -0.3599  0.2434
14760TIP3   OH265694   6.122   0.252   4.678  0.0671 -0.5759  0.0979
14760TIP3    H165695   6.212   0.232   4.706  0.5804  0.3106 -0.8564
14760TIP3    H265696   6.131   0.285   4.589 -0.7721  2.7871  1.1045
14761TIP3   OH265697   4.809   0.306   2.606 -0.0945 -0.9275  0.0232
14761TIP3    H165698   4.883   0.344   2.652 -0.9617 -0.7231  1.3084
14761TIP3    H265699   4.752   0.273   2.675 -0.4558 -2.5193 -0.9833
14762TIP3   OH265700   1.636   4.351  15.231  0.4213  0.4577  0.1447
14762TIP3    H165701   1.718   4.398  15.216  1.0016 -0.9552 -1.3345
14762TIP3    H265702   1.592   4.351  15.146 -0.5323  0.0979  0.6196
14763TIP3   OH265703   2.278   0.855   0.786  0.7106 -0.2941  0.5708
14763TIP3    H165704   2.235   0.814   0.711  0.0135  1.3586  0.0209
14763TIP3    H265705   2.359   0.891   0.751 -0.2010  1.5742  0.2668
14764TIP3   OH265706   6.137   3.827   1.004  0.1124  0.7954 -0.8647
14764TIP3    H165707   6.170   3.912   1.030 -2.1756  1.5435 -0.1051
14764TIP3    H265708   6.076   3.846   0.932 -2.7988  0.3468  1.2694
14765TIP3   OH265709   2.089   0.090  13.433 -0.1811 -0.5970  0.9831
14765TIP3    H165710   2.058   0.173  13.396 -0.6050 -0.9575  0.4916
14765TIP3    H265711   2.018   0.028  13.412  0.3077 -1.1620  0.9872
14766TIP3   OH265712   3.377   5.999  16.200 -0.2521 -0.0242 -0.0358
14766TIP3    H165713   3.450   6.060  16.204  0.2413 -0.6460  0.6768
14766TIP3    H265714   3.328   6.026  16.122  1.5002 -0.4457 -1.3621
14767TIP3   OH265715   1.787   0.409  11.113 -0.0241 -0.7762  0.0292
14767TIP3    H165716   1.716   0.384  11.053 -1.3090 -0.7642  1.4732
14767TIP3    H265717   1.822   0.326  11.144  1.2920 -0.8037 -1.3945
14768TIP3   OH265718   1.287   5.849   4.349  0.0538  0.0055  0.3096
14768TIP3    H165719   1.326   5.922   4.303 -0.1076  0.6079  1.1049
14768TIP3    H265720   1.355   5.820   4.410  0.7307 -1.5909 -1.1186
14769TIP3   OH265721   5.068   0.497  16.709 -0.2409 -0.4544 -0.1265
14769TIP3    H165722   5.049   0.548  16.630  4.1150 -0.0523 -1.1761
14769TIP3    H265723   5.005   0.425  16.707 -2.2561  1.2218 -2.2538
14770TIP3   OH265724   1.075   0.084   0.190  0.6295  0.1204 -0.3641
14770TIP3    H165725   1.019   0.089   0.113  0.2883 -1.0515 -0.2163
14770TIP3    H265726   1.036   0.015   0.244  0.3130  1.5564  1.3249
14771TIP3   OH265727   1.244   1.513   1.819 -0.0783 -0.9741 -0.0251
14771TIP3    H165728   1.338   1.524   1.806  0.0309 -0.9478  0.7571
14771TIP3    H265729   1.236   1.456   1.895 -0.6874 -2.3647 -1.0924
14772TIP3   OH265730   3.303   6.699  11.719 -0.5711  0.2439 -0.5269
14772TIP3    H165731   3.390   6.741  11.726 -1.2478  1.6601 -0.1602
14772TIP3    H265732   3.276   6.717  11.629  0.9530 -3.2931 -1.8746
14773TIP3   OH265733   6.313   3.314  11.692  0.1293  0.2514 -0.1189
14773TIP3    H165734   6.249   3.302  11.761 -0.0907 -0.0534 -0.3741
14773TIP3    H265735   6.270   3.371  11.629  0.1480  0.1352 -0.2374
14774TIP3   OH265736   1.122   0.340  10.826 -0.2234  0.5817 -0.1452
14774TIP3    H165737   1.154   0.422  10.789 -1.1488  1.1874  0.3707
14774TIP3    H265738   1.067   0.303  10.757  1.2939 -0.3321 -0.9308
14775TIP3   OH265739   2.399   3.647   2.502 -0.1268  0.2279 -0.0793
14775TIP3    H165740   2.429   3.627   2.591  1.5932 -1.3283 -0.9278
14775TIP3    H265741   2.323   3.591   2.489 -0.4498  0.5403  0.4413
14776TIP3   OH265742   1.307   4.467  15.330 -0.2127  0.6294 -0.3302
14776TIP3    H165743   1.389   4.504  15.297  0.8455 -1.4634 -0.2563
14776TIP3    H265744   1.239   4.503  15.274  0.7487  2.2784 -0.5158
14777TIP3   OH265745   0.206   6.258  14.888 -0.0213  0.2296  0.1109
14777TIP3    H165746   0.212   6.332  14.949 -1.6532  1.1887 -0.8218
14777TIP3    H265747   0.146   6.196  14.932 -0.4978  0.5233 -0.1165
14778TIP3   OH265748   3.534   2.007   5.247 -0.0274 -0.6402  0.2353
14778TIP3    H165749   3.500   1.954   5.319  1.8605 -1.3517  0.6654
14778TIP3    H265750   3.507   2.096   5.268 -0.8718 -1.0586  0.9697
14779TIP3   OH265751   5.981   0.387  12.539 -0.2163  0.1191 -0.0887
14779TIP3    H165752   5.983   0.360  12.630 -0.5621 -2.1892 -0.6983
14779TIP3    H265753   5.922   0.462  12.537 -0.1313  0.2539  1.5776
14780TIP3   OH265754   4.798   6.555   1.910  0.3180 -0.2016  0.3674
14780TIP3    H165755   4.807   6.599   1.995  1.3563  1.0574 -0.3498
14780TIP3    H265756   4.729   6.603   1.865  0.9528  0.2407 -0.1439
14781TIP3   OH265757   3.165   1.954  12.211  0.4311 -0.1307 -0.3951
14781TIP3    H165758   3.120   1.955  12.296  0.1184 -1.3359 -0.5411
14781TIP3    H265759   3.095   1.955  12.147  0.6223  3.4064 -0.7675
14782TIP3   OH265760   4.670   2.990   5.297 -0.1580  0.4560  0.4422
14782TIP3    H165761   4.667   3.085   5.312 -1.4461  0.4529  0.3036
14782TIP3    H265762   4.581   2.960   5.313 -0.0940 -0.5252 -0.8551
14783TIP3   OH265763   5.649   6.612   3.245  0.0788  0.1543  0.2506
14783TIP3    H165764   5.579   6.637   3.185  0.7969  1.3816 -0.0977
14783TIP3    H265765   5.684   6.531   3.208  0.3743  0.7843 -0.8882
14784TIP3   OH265766   4.256   3.415   2.073  0.4829  0.2424 -0.5554
14784TIP3    H165767   4.286   3.415   1.982  0.1077  0.2331 -0.6842
14784TIP3    H265768   4.324   3.462   2.121  1.1008 -0.4938 -0.6937
14785TIP3   OH265769   1.925   1.499   2.258 -0.0645 -0.6349  0.3380
14785TIP3    H165770   2.018   1.497   2.235  0.4195  1.8947  1.6462
14785TIP3    H265771   1.885   1.555   2.191 -0.2337 -0.0330  0.9305
14786TIP3   OH265772   1.569   3.589   1.551  0.4294 -0.4715  0.0744
14786TIP3    H165773   1.562   3.521   1.484  0.2974  0.0602 -0.4595
14786TIP3    H265774   1.601   3.666   1.504 -1.8139  0.5812  0.1473
14787TIP3   OH265775   3.823   1.714  15.159 -0.0302  0.2843 -0.5779
14787TIP3    H165776   3.780   1.630  15.175 -0.0618  0.3816 -0.1518
14787TIP3    H265777   3.797   1.769  15.233  0.6088  0.4280 -0.4567
14788TIP3   OH265778   2.671   1.648  10.915 -0.6724 -0.4098 -0.4334
14788TIP3    H165779   2.761   1.669  10.941 -0.3622 -2.7940  0.6367
14788TIP3    H265780   2.618   1.715  10.958  0.4663  0.0986  0.2187
14789TIP3   OH265781   1.718   5.566   2.951 -0.0314  0.0892 -0.0499
14789TIP3    H165782   1.636   5.570   2.901  0.3697  1.5503 -0.6399
14789TIP3    H265783   1.705   5.628   3.023  0.4519  0.0995  0.0302
14790TIP3   OH265784   1.135   1.009   0.927 -0.1890  0.5340  0.4327
14790TIP3    H165785   1.064   0.945   0.914 -0.4173  1.0369 -0.9514
14790TIP3    H265786   1.091   1.093   0.932  0.1594  0.6612  1.7131
14791TIP3   OH265787   2.231   3.157  15.707  0.0889  0.1131 -0.3847
14791TIP3    H165788   2.314   3.115  15.729  0.1934  1.8955  3.3803
14791TIP3    H265789   2.256   3.242  15.671 -0.0308  0.6985  0.8596
14792TIP3   OH265790   2.169   0.833  16.585  0.8422 -0.0850 -0.5655
14792TIP3    H165791   2.242   0.777  16.558 -0.5905 -2.9368  1.1051
14792TIP3    H265792   2.208   0.897  16.645  2.4094  0.4213 -2.0380
14793TIP3   OH265793   4.367   5.356   5.212  0.1127  0.2422 -0.1649
14793TIP3    H165794   4.309   5.420   5.170 -0.3858  0.5627  0.9772
14793TIP3    H265795   4.401   5.401   5.289 -0.7860 -1.0673  1.0570
14794TIP3   OH265796   5.206   6.063  13.345  0.4630  0.1020 -0.0252
14794TIP3    H165797   5.111   6.055  13.353  0.1226  2.5100 -0.7679
14794TIP3    H265798   5.237   5.974  13.332 -1.9295 -0.5673 -1.8329
14795TIP3   OH265799   4.120   2.626   2.499 -0.3576  0.3925  0.4346
14795TIP3    H165800   4.029   2.647   2.477 -0.6976 -0.8290  0.6076
14795TIP3    H265801   4.121   2.624   2.595 -0.6539 -1.5440  0.4409
14796TIP3   OH265802   1.135   0.431   4.838 -0.5716 -0.1069 -0.2594
14796TIP3    H165803   1.043   0.418   4.862 -0.7332 -0.5341 -1.0825
14796TIP3    H265804   1.182   0.428   4.922 -1.5010  2.1987  0.4231
14797TIP3   OH265805   1.285   4.202   4.152 -0.4673 -0.8146  0.1753
14797TIP3    H165806   1.328   4.122   4.182  1.3264 -0.2166 -0.7034
14797TIP3    H265807   1.309   4.268   4.217  0.4234 -0.3618 -0.5872
14798TIP3   OH265808   5.065   2.817   4.988  1.3992  0.1620  0.2235
14798TIP3    H165809   5.142   2.776   5.026  1.6807  0.5221  0.0495
14798TIP3    H265810   5.005   2.830   5.062  1.5751  0.0370  0.3881
14799TIP3   OH265811   3.684   0.951  11.597  0.0248 -0.4646 -0.0207
14799TIP3    H165812   3.624   0.878  11.616  3.1976 -2.8429  1.9562
14799TIP3    H265813   3.647   1.025  11.644 -1.7648 -1.5810  0.4464
14800TIP3   OH265814   0.009   5.420   5.473  0.5273 -0.1444  0.0392
14800TIP3    H165815   0.070   5.428   5.546  0.4362  2.8237 -0.0896
14800TIP3    H265816   0.045   5.350   5.418  1.9730 -0.6832  1.5971
14801TIP3   OH265817   6.459   4.466   0.352 -0.6382 -0.5891  0.5207
14801TIP3    H165818   6.471   4.425   0.267 -0.3496 -1.6452  1.0584
14801TIP3    H265819   6.409   4.545   0.334 -1.5852 -1.3971 -0.4929
14802TIP3   OH265820   0.215   4.523   1.805  0.1547  0.0839  0.0208
14802TIP3    H165821   0.243   4.459   1.739  1.8252 -0.5560  1.2779
14802TIP3    H265822   0.180   4.470   1.877 -0.5214  0.7162  0.1737
14803TIP3   OH265823   1.373   6.536  13.825  0.0395 -0.3196  0.2369
14803TIP3    H165824   1.412   6.455  13.792 -0.7761 -0.4761 -0.3846
14803TIP3    H265825   1.328   6.573  13.749 -1.3533 -0.3571  1.0078
14804TIP3   OH265826   1.356   2.485   0.938  0.3625  0.1568 -0.4013
14804TIP3    H165827   1.349   2.505   0.845 -0.0156 -1.5733 -0.7852
14804TIP3    H265828   1.265   2.483   0.970  0.4798  0.5918 -0.0357
14805TIP3   OH265829   5.356   6.421   0.733  0.0639  0.9352  0.6062
14805TIP3    H165830   5.424   6.483   0.763 -0.1490  2.3134 -1.5738
14805TIP3    H265831   5.381   6.400   0.643 -0.8626 -0.8245  0.7214
14806TIP3   OH265832   0.230   5.911   4.517  0.3114  0.2971 -0.1221
14806TIP3    H165833   0.286   5.893   4.442  0.6765 -1.0891  0.4550
14806TIP3    H265834   0.159   5.846   4.510 -0.4002  1.0412 -0.0036
14807TIP3   OH265835   4.479   4.146  13.822  0.4799 -0.2764  0.4782
14807TIP3    H165836   4.568   4.146  13.858  1.5244  1.2594 -1.8761
14807TIP3    H265837   4.471   4.229  13.776 -1.8781 -0.7725 -0.1828
14808TIP3   OH265838   3.032   1.697   2.642  0.1774 -0.3468 -0.4860
14808TIP3    H165839   3.056   1.653   2.724 -1.7079  0.1775  0.4014
14808TIP3    H265840   3.092   1.771   2.636  0.6751 -0.6875  0.1462
14809TIP3   OH265841   2.174   1.980   1.088 -0.5674 -0.0698 -0.4111
14809TIP3    H165842   2.121   2.002   1.011 -0.8914  1.8697  0.2882
14809TIP3    H265843   2.170   2.059   1.142  0.1896 -1.1446  1.2956
14810TIP3   OH265844   5.208   4.512  10.498  0.6384  0.4125 -0.0642
14810TIP3    H165845   5.135   4.484  10.442  0.5447  0.1535  0.1842
14810TIP3    H265846   5.284   4.463  10.464  0.4108 -0.4139  0.5758
14811TIP3   OH265847   5.234   2.751  16.352 -0.1059  0.1114  0.2356
14811TIP3    H165848   5.255   2.664  16.316 -1.1664 -0.5343  1.0993
14811TIP3    H265849   5.302   2.808  16.317  0.1623 -0.9041 -1.0030
14812TIP3   OH265850   2.482   2.106   2.956  0.0857  0.1103 -0.1911
14812TIP3    H165851   2.398   2.061   2.950 -0.7144  1.5051 -0.0496
14812TIP3    H265852   2.498   2.114   3.050 -0.3072  1.0166 -0.1903
14813TIP3   OH265853   0.172   4.383  13.604 -0.5796  0.2069 -0.2619
14813TIP3    H165854   0.229   4.311  13.633 -0.2195  0.9367  0.8744
14813TIP3    H265855   0.233   4.451  13.574 -0.8590  0.8081  0.5163
14814TIP3   OH265856   2.351   3.139  13.972  0.0809  0.1969  1.0363
14814TIP3    H165857   2.314   3.101  13.892 -2.5106 -2.7615  3.3901
14814TIP3    H265858   2.445   3.124  13.965 -0.1714 -0.7169 -1.0854
14815TIP3   OH265859   1.013   6.422   3.499  0.2974 -0.3077  0.4336
14815TIP3    H165860   0.938   6.480   3.497 -0.6500 -1.4834  0.6744
14815TIP3    H265861   1.089   6.480   3.501 -0.6305  0.9080  1.3254
14816TIP3   OH265862   6.089   0.888  16.089  0.1090 -0.1197 -0.8888
14816TIP3    H165863   6.095   0.983  16.078  2.6056 -0.2172 -0.8803
14816TIP3    H265864   6.057   0.877  16.179  0.5850  0.7471 -0.5916
14817TIP3   OH265865   3.892   5.427  17.208  0.6404 -0.6018 -0.0399
14817TIP3    H165866   3.976   5.406  17.250 -0.0581 -1.2960  1.0736
14817TIP3    H265867   3.896   5.385  17.123  2.3863  1.4344 -1.0405
14818TIP3   OH265868   2.615   5.208   0.306  0.3233 -0.5038 -0.2277
14818TIP3    H165869   2.536   5.251   0.272  0.4572 -1.9125 -2.5035
14818TIP3    H265870   2.687   5.249   0.257  0.8098 -0.6670  0.3508
14819TIP3   OH265871   2.196   1.895   4.163  0.2164  0.3576 -0.3286
14819TIP3    H165872   2.199   1.985   4.197  1.3438 -0.3775  1.7558
14819TIP3    H265873   2.124   1.854   4.212  0.7929 -0.2995 -0.0201
14820TIP3   OH265874   6.735   6.088  10.725  0.3379 -0.0891 -0.4448
14820TIP3    H165875   6.726   6.006  10.676 -0.2056  0.6894 -1.6772
14820TIP3    H265876   6.663   6.085  10.789  1.4055 -1.3777  0.7715
14821TIP3   OH265877   3.646   4.702  15.276 -0.3965 -0.1306 -0.2606
14821TIP3    H165878   3.694   4.747  15.207 -1.2056 -0.9913 -1.4310
14821TIP3    H265879   3.711   4.649  15.321 -0.1402 -0.9248 -1.5256
14822TIP3   OH265880   3.876   1.873   1.394  0.1168 -0.3676 -0.0891
14822TIP3    H165881   3.946   1.852   1.455  0.2663  0.6158  0.0845
14822TIP3    H265882   3.835   1.788   1.375 -0.3804 -0.6378  1.9114
14823TIP3   OH265883   4.523   6.137  12.382  0.4232 -0.0170  0.0994
14823TIP3    H165884   4.497   6.049  12.411  0.3800  0.5944  2.0685
14823TIP3    H265885   4.446   6.170  12.336 -0.7541  0.0903  2.0079
14824TIP3   OH265886   3.371   5.426   3.499 -0.1387  0.0590  0.3174
14824TIP3    H165887   3.320   5.363   3.549 -1.1921  0.7526  0.1453
14824TIP3    H265888   3.392   5.382   3.417 -0.2602 -0.3088  0.4843
14825TIP3   OH265889   5.013   1.679  14.279  0.2003 -0.0185 -0.4278
14825TIP3    H165890   5.067   1.681  14.200  0.1867 -1.8252 -0.5178
14825TIP3    H265891   5.050   1.748  14.334 -2.1024  4.0106 -3.3580
14826TIP3   OH265892   6.733   3.509  13.270  0.1822  0.0557  0.0622
14826TIP3    H165893   6.690   3.569  13.210 -1.9167 -3.0580 -1.7970
14826TIP3    H265894   6.771   3.442  13.214  3.0501 -0.1273  2.0078
14827TIP3   OH265895   3.848   5.634   3.114  0.3565 -0.3215 -0.2144
14827TIP3    H165896   3.817   5.685   3.188  2.4417 -0.2497  0.6614
14827TIP3    H265897   3.941   5.619   3.131  1.4052  1.1804 -3.6103
14828TIP3   OH265898   0.424   6.498  14.125 -0.3127  0.0853  0.6635
14828TIP3    H165899   0.397   6.443  14.052 -0.4714 -2.1292  2.2828
14828TIP3    H265900   0.426   6.587  14.090 -1.7223 -0.7294 -1.6242
14829TIP3   OH265901   5.430   4.983   2.472  0.3042 -0.0618 -0.0894
14829TIP3    H165902   5.420   5.012   2.381 -1.0777 -1.8070 -0.5824
14829TIP3    H265903   5.427   4.887   2.466 -0.3307 -0.2079  1.8273
14830TIP3   OH265904   0.976   4.552   6.208  0.4110 -0.2647 -0.7257
14830TIP3    H165905   1.064   4.542   6.171  0.0139  1.0677 -2.1602
14830TIP3    H265906   0.921   4.493   6.156  0.1896  0.0886 -0.8947
14831TIP3   OH265907   3.113   5.723  11.442 -0.0163 -0.3689 -0.1791
14831TIP3    H165908   3.020   5.716  11.462  0.4012  0.2343  2.4982
14831TIP3    H265909   3.130   5.817  11.441  0.5399 -0.4722 -0.7281
14832TIP3   OH265910   4.034   1.814  13.692  0.0478  0.2507 -0.1525
14832TIP3    H165911   3.974   1.751  13.733  0.7619 -0.1090  0.3602
14832TIP3    H265912   3.993   1.899  13.708 -0.4441 -0.0070 -0.0111
14833TIP3   OH265913   0.405   1.936   0.291 -0.4561  0.2749 -0.0135
14833TIP3    H165914   0.436   2.027   0.281  0.3126 -0.0055 -0.2308
14833TIP3    H265915   0.322   1.945   0.338 -0.7812  1.1491 -0.6992
14834TIP3   OH265916   5.930   1.328   2.608  0.4799  0.2194 -0.0622
14834TIP3    H165917   5.941   1.413   2.566 -1.9331  1.7229  2.0455
14834TIP3    H265918   5.960   1.342   2.698 -1.4970 -0.5718  0.7924
14835TIP3   OH265919   5.021   0.844  10.758  0.3592  0.5040 -0.1395
14835TIP3    H165920   4.958   0.904  10.719 -1.4549 -1.4378 -0.3837
14835TIP3    H265921   4.969   0.769  10.787  2.2696 -0.1953  1.8049
14836TIP3   OH265922   0.930   5.969   2.985  0.7827 -0.7286 -0.3148
14836TIP3    H165923   0.943   5.976   2.891  0.5921  0.2849 -0.2761
14836TIP3    H265924   1.017   5.980   3.023  0.8883 -1.3311 -0.3778
14837TIP3   OH265925   3.672   4.981  12.562  0.2705  0.0959 -0.8648
14837TIP3    H165926   3.639   4.919  12.498  0.8034  0.2723 -1.3136
14837TIP3    H265927   3.767   4.984  12.547  0.3002  0.7300 -0.6011
14838TIP3   OH265928   6.044   2.616   3.497 -0.2675  0.2202 -0.4395
14838TIP3    H165929   6.062   2.710   3.508  1.4717 -0.1121 -0.1803
14838TIP3    H265930   5.982   2.612   3.425 -1.1400  1.6253  0.1763
14839TIP3   OH265931   3.304   5.672   4.139 -0.1845  0.4845 -0.1262
14839TIP3    H165932   3.277   5.606   4.203 -0.8888  1.7466  0.9274
14839TIP3    H265933   3.369   5.725   4.186 -0.7819  1.4897 -0.4024
14840TIP3   OH265934   2.102   0.754   6.493  0.2244  0.1552 -0.0846
14840TIP3    H165935   2.102   0.659   6.503  0.5548  0.1475 -0.1254
14840TIP3    H265936   2.018   0.782   6.529  1.5099  0.1645  3.3206
14841TIP3   OH265937   0.934   2.573   5.591 -0.2017  0.1136  0.2066
14841TIP3    H165938   0.957   2.556   5.499 -1.3822  4.0896 -0.9894
14841TIP3    H265939   0.992   2.514   5.640  0.1319 -2.5727 -3.0072
14842TIP3   OH265940   3.716   2.327   0.604  0.4951  0.1643 -0.2702
14842TIP3    H165941   3.797   2.298   0.646 -0.5892 -1.3087  0.9329
14842TIP3    H265942   3.731   2.312   0.510  1.4278 -0.5528 -0.0244
14843TIP3   OH265943   6.212   0.669   0.228  0.1061 -0.7195  0.1634
14843TIP3    H165944   6.118   0.655   0.236 -0.1394  0.6247 -0.0764
14843TIP3    H265945   6.232   0.736   0.294  0.9931 -1.3718  0.5748
14844TIP3   OH265946   4.928   3.591  14.034 -0.2905 -0.0018  0.5315
14844TIP3    H165947   4.977   3.523  13.989 -0.8552  0.1859 -0.3993
14844TIP3    H265948   4.970   3.600  14.119  2.7353  1.7264 -0.9826
14845TIP3   OH265949   6.662   3.364  15.531  0.2460 -0.1815  0.2730
14845TIP3    H165950   6.659   3.331  15.441  1.2598  1.5183 -0.4241
14845TIP3    H265951   6.603   3.306  15.579  1.2255 -2.4342 -1.0374
14846TIP3   OH265952   0.217   6.673   3.324  0.6024  0.2694 -0.0679
14846TIP3    H165953   0.139   6.713   3.361  0.6700 -0.1808  0.5832
14846TIP3    H265954   0.205   6.579   3.339  1.2086  0.1898 -0.0593
14847TIP3   OH265955   3.541   2.627  11.524 -0.3202  0.1230 -0.6401
14847TIP3    H165956   3.620   2.612  11.576 -1.4158 -2.7308  0.3957
14847TIP3    H265957   3.555   2.575  11.445 -0.2480  1.4631 -1.5437
14848TIP3   OH265958   6.225   3.007   4.177 -0.6817  0.2441  0.0863
14848TIP3    H165959   6.264   3.094   4.177  0.7074 -0.3518  1.1302
14848TIP3    H265960   6.266   2.962   4.103 -0.7767  0.1872  0.0675
14849TIP3   OH265961   2.074   1.820   4.793 -0.7713 -0.1278 -0.2200
14849TIP3    H165962   2.028   1.858   4.718 -1.1010 -0.3649 -0.1414
14849TIP3    H265963   2.070   1.726   4.779  0.7383 -0.1227 -0.8183
14850TIP3   OH265964   4.208   5.770   1.133  0.4430 -0.0440 -1.3818
14850TIP3    H165965   4.214   5.820   1.052 -0.2938  0.4071 -1.1710
14850TIP3    H265966   4.284   5.797   1.184 -0.6836  2.0075 -0.6628
14851TIP3   OH265967   0.260   3.600   0.941  0.5362 -0.2319  0.7566
14851TIP3    H165968   0.282   3.544   0.867  0.9267 -0.6063  1.1487
14851TIP3    H265969   0.328   3.667   0.941 -0.2040  0.5480 -0.0066
14852TIP3   OH265970   2.308   2.558   5.033 -0.2868  0.1255  0.5704
14852TIP3    H165971   2.262   2.641   5.042  1.3772  1.1040  0.4132
14852TIP3    H265972   2.401   2.581   5.033  0.2135 -1.6241 -0.4995
14853TIP3   OH265973   4.116   6.624   4.494  0.4303  0.2293 -0.1216
14853TIP3    H165974   4.162   6.618   4.578  0.9352 -1.9654 -0.4886
14853TIP3    H265975   4.024   6.625   4.518  0.5851  0.9206  0.4921
14854TIP3   OH265976   6.402   6.362   0.796  0.2970 -0.0709  0.4936
14854TIP3    H165977   6.359   6.381   0.712  0.0546 -0.3305  0.5588
14854TIP3    H265978   6.385   6.439   0.850 -0.1916 -0.2192  0.5582
14855TIP3   OH265979   5.231   3.233  11.889 -0.2536 -0.5418 -0.1808
14855TIP3    H165980   5.144   3.194  11.886 -0.5068  0.0471 -2.5351
14855TIP3    H265981   5.219   3.314  11.938 -0.9782 -0.6356 -0.1949
14856TIP3   OH265982   0.689   1.276   0.197  0.3931 -0.0358 -0.2742
14856TIP3    H165983   0.695   1.235   0.283  2.3020  0.9698  0.1149
14856TIP3    H265984   0.614   1.335   0.204 -0.3281 -0.9794  0.2181
14857TIP3   OH265985   2.118   2.366   4.437  0.2086 -0.1887 -0.7196
14857TIP3    H165986   2.032   2.332   4.414  0.2053 -1.5205  1.0053
14857TIP3    H265987   2.101   2.455   4.468 -0.6003 -0.5379 -0.1232
14858TIP3   OH265988   4.953   6.080   3.412  0.1362  0.6894 -0.1966
14858TIP3    H165989   5.028   6.051   3.360 -0.7515 -0.5314 -0.8470
14858TIP3    H265990   4.978   6.062   3.503  0.9018  0.9524 -0.3530
14859TIP3   OH265991   4.187   1.180   5.368 -0.1581 -0.5178  0.2329
14859TIP3    H165992   4.232   1.096   5.363  0.5185 -0.0870 -1.8779
14859TIP3    H265993   4.252   1.240   5.406  0.0510 -0.5278 -0.1053
14860TIP3   OH265994   0.945   1.076  14.413 -0.0511 -0.2265  0.3245
14860TIP3    H165995   0.969   1.169  14.416  0.8024 -0.3410 -1.4918
14860TIP3    H265996   0.973   1.041  14.497  0.3433  1.0056  0.7224
14861TIP3   OH265997   2.072   5.577   1.238 -0.3699 -0.6860  0.0490
14861TIP3    H165998   2.099   5.652   1.186  2.7658 -0.5973  1.5715
14861TIP3    H265999   1.980   5.592   1.257  0.0694  2.6207  0.0234
14862TIP3   OH266000   2.395   4.949   0.652 -0.1093  0.5028 -0.0436
14862TIP3    H166001   2.378   4.896   0.574  2.6848  0.4352 -0.7278
14862TIP3    H266002   2.373   5.038   0.626  2.4906  0.7814 -1.6667
14863TIP3   OH266003   3.521   5.941  17.337 -0.1647 -0.4349 -0.3308
14863TIP3    H166004   3.439   5.911  17.377 -3.6948  3.7607 -3.4355
14863TIP3    H266005   3.517   5.906  17.248  1.1300  0.3020 -0.6904
14864TIP3   OH266006   5.210   3.560   4.552 -0.0320 -0.5498 -0.0577
14864TIP3    H166007   5.257   3.488   4.512 -0.9596 -0.5827 -1.1173
14864TIP3    H266008   5.273   3.632   4.553  1.0599 -1.4672  1.4514
14865TIP3   OH266009   3.555   4.767  12.406  0.0603  1.2711 -0.2875
14865TIP3    H166010   3.627   4.735  12.351  0.5435  1.2344  0.3470
14865TIP3    H266011   3.491   4.802  12.344 -0.3200 -0.5482 -0.9951
14866TIP3   OH266012   0.201   3.608   2.161  0.5170 -0.2897  0.4169
14866TIP3    H166013   0.120   3.565   2.134 -0.5285  1.9921 -0.3479
14866TIP3    H266014   0.270   3.546   2.138 -0.7139 -0.6654 -2.8006
14867TIP3   OH266015   5.084   6.523   1.916  0.1551  0.5442  0.1359
14867TIP3    H166016   5.064   6.590   1.982 -0.8053  2.4197 -1.9221
14867TIP3    H266017   4.998   6.496   1.883  0.6456  0.2956 -0.9647
14868TIP3   OH266018   6.312   4.921   0.000 -0.0351 -0.4214 -0.0759
14868TIP3    H166019   6.395   4.908  -0.046 -0.0704  0.7011 -0.5008
14868TIP3    H266020   6.277   4.833   0.014  2.5677 -1.1811  2.6775
14869TIP3   OH266021   3.752   4.007   3.471 -0.0158  0.4996  0.1286
14869TIP3    H166022   3.820   3.983   3.534 -0.4736 -1.6476 -0.1216
14869TIP3    H266023   3.770   3.953   3.394 -1.4648  0.5587 -0.2784
14870TIP3   OH266024   0.902   4.851   5.747  0.2247  0.2243  0.1896
14870TIP3    H166025   0.913   4.811   5.661  0.1935  1.5183 -0.4424
14870TIP3    H266026   0.808   4.870   5.752  0.2591  0.3405  0.4110
14871TIP3   OH266027   5.204   5.858   6.530  0.2604 -0.5056  0.8508
14871TIP3    H166028   5.149   5.888   6.602 -0.3851  0.8850 -0.1686
14871TIP3    H266029   5.293   5.861   6.565  0.0357  0.9268  1.3837
14872TIP3   OH266030   1.917   2.484   0.573 -0.3372 -0.6746 -0.3474
14872TIP3    H166031   1.915   2.418   0.503  1.4454 -0.5129 -0.5967
14872TIP3    H266032   1.886   2.438   0.651  2.9111 -2.5703  0.0138
14873TIP3   OH266033   3.351   0.032   4.294 -0.3803 -0.1659 -0.2347
14873TIP3    H166034   3.430   0.086   4.294 -1.1631  1.0225 -0.7787
14873TIP3    H266035   3.305   0.057   4.213 -0.9305 -1.4036 -0.3193
14874TIP3   OH266036   1.966   5.182  16.683 -0.0049 -0.3754 -0.7095
14874TIP3    H166037   1.945   5.172  16.590 -1.4452  0.0886 -0.4652
14874TIP3    H266038   1.885   5.157  16.729  0.6029 -0.3632  0.4079
14875TIP3   OH266039   0.271   1.428   4.179  0.0490 -0.1065 -0.4214
14875TIP3    H166040   0.228   1.475   4.108 -0.7179 -2.2063 -1.4092
14875TIP3    H266041   0.360   1.413   4.147  0.0154 -0.1448 -0.4971
14876TIP3   OH266042   5.753   5.891   3.597  0.7132 -0.2965 -0.2835
14876TIP3    H166043   5.766   5.931   3.683 -0.0622 -0.5910 -0.0156
14876TIP3    H266044   5.684   5.943   3.556  0.9407 -0.2800 -0.6487
14877TIP3   OH266045   4.397   5.013  13.734 -0.0402 -0.2615  0.2123
14877TIP3    H166046   4.411   5.103  13.764 -0.5667  0.3124 -1.1901
14877TIP3    H266047   4.379   4.964  13.814  0.6267  0.7954  1.0418
14878TIP3   OH266048   1.567   0.203  11.568  0.1647  0.1290 -0.6001
14878TIP3    H166049   1.596   0.150  11.641 -0.1337  0.1096 -0.4931
14878TIP3    H266050   1.471   0.205  11.576  0.0308 -0.8055 -1.6311
14879TIP3   OH266051   0.383   2.532   5.580 -0.0658  0.3935  0.0967
14879TIP3    H166052   0.367   2.446   5.618  0.2626 -0.4271 -1.5193
14879TIP3    H266053   0.303   2.582   5.597 -0.9949 -0.8420 -0.5334
14880TIP3   OH266054   3.941   1.778   2.127  0.2587 -0.4101  0.2199
14880TIP3    H166055   4.021   1.830   2.137  0.4814 -0.7134  0.0653
14880TIP3    H266056   3.973   1.694   2.093  0.4262 -2.1775  4.2224
14881TIP3   OH266057   0.383   1.874   3.625  0.1329 -0.2335 -0.4601
14881TIP3    H166058   0.410   1.956   3.585 -0.6494  0.1747 -0.1643
14881TIP3    H266059   0.288   1.882   3.635  0.2874 -0.3685  1.3932
14882TIP3   OH266060   5.979   0.453  17.113 -0.7713 -0.2190  0.0566
14882TIP3    H166061   5.940   0.403  17.040  0.1948 -0.9153 -0.0031
14882TIP3    H266062   5.985   0.389  17.184  0.8355 -0.3178 -0.1367
14883TIP3   OH266063   0.337   3.629  16.122  0.3346  0.5501  0.2586
14883TIP3    H166064   0.300   3.684  16.190 -0.5141  0.2324  0.0652
14883TIP3    H266065   0.264   3.574  16.093  0.9468 -0.0609 -0.1584
14884TIP3   OH266066   2.896   4.214   2.661 -0.2791  0.1162 -0.5326
14884TIP3    H166067   2.829   4.254   2.606 -0.9878 -0.2500  0.0308
14884TIP3    H266068   2.853   4.204   2.746  0.6967  0.4121  0.0039
14885TIP3   OH266069   2.882   3.589   1.064  0.2989 -0.1150  0.0605
14885TIP3    H166070   2.839   3.635   1.136 -2.1543 -1.9169 -0.1286
14885TIP3    H266071   2.908   3.505   1.101 -1.7143 -1.3917 -1.2429
14886TIP3   OH266072   1.558   5.207   4.003  0.0004 -0.1074 -0.3144
14886TIP3    H166073   1.575   5.232   3.912 -2.6355  1.5086 -0.4731
14886TIP3    H266074   1.519   5.285   4.042  0.9545 -0.8007  2.2198
14887TIP3   OH266075   5.006   2.254  11.191 -0.2830  0.0365 -0.5990
14887TIP3    H166076   4.969   2.334  11.154 -2.0572 -0.7804 -0.7350
14887TIP3    H266077   5.093   2.248  11.154 -0.6549  1.1600 -1.7236
14888TIP3   OH266078   0.760   0.943   5.955  0.9170 -0.1883 -0.3793
14888TIP3    H166079   0.755   0.989   6.039 -0.6708  0.0712 -0.5909
14888TIP3    H266080   0.743   1.011   5.890  0.5530 -0.6889 -0.8141
14889TIP3   OH266081   6.466   3.833   5.042  0.2711  0.2262  0.2717
14889TIP3    H166082   6.497   3.827   4.951  1.2620  1.0330  0.5371
14889TIP3    H266083   6.371   3.821   5.036  0.3575 -0.0604 -0.8294
14890TIP3   OH266084   1.691   1.491  12.824  0.1929 -0.8160 -0.1877
14890TIP3    H166085   1.596   1.495  12.841  0.4006  0.5722  0.8489
14890TIP3    H266086   1.729   1.549  12.889  1.7325 -0.9268 -0.9475
14891TIP3   OH266087   5.702   0.769  13.154 -0.3779 -0.0252  0.6928
14891TIP3    H166088   5.657   0.852  13.140 -1.9077 -1.0875 -1.1797
14891TIP3    H266089   5.657   0.707  13.096  2.3321 -1.6109  0.1183
14892TIP3   OH266090   4.762   0.005   1.493  0.7250  0.6185 -0.4429
14892TIP3    H166091   4.673   0.017   1.461  0.6396 -1.1695 -0.9595
14892TIP3    H266092   4.817   0.035   1.420  0.5281 -0.4887 -1.0664
14893TIP3   OH266093   5.253   0.353  12.334 -0.5007 -0.5394  0.0963
14893TIP3    H166094   5.328   0.409  12.317 -0.1620 -1.1849 -0.5899
14893TIP3    H266095   5.273   0.311  12.418 -0.6165  0.1195  0.4611
14894TIP3   OH266096   3.363   5.399   2.081 -0.0376 -0.2461  0.1444
14894TIP3    H166097   3.364   5.423   1.988  1.5060 -3.0058 -0.6978
14894TIP3    H266098   3.450   5.423   2.113 -0.8412  1.4448  1.1566
14895TIP3   OH266099   6.367   5.326   1.260  0.1569 -0.3714  0.5636
14895TIP3    H166100   6.413   5.307   1.342  0.1742  0.9828  0.8931
14895TIP3    H266101   6.289   5.374   1.287  0.8974  1.3919 -0.2709
14896TIP3   OH266102   6.754   1.736   2.926 -0.0039 -0.5042  0.2781
14896TIP3    H166103   6.780   1.724   2.835  2.1322  2.0325  0.4212
14896TIP3    H266104   6.817   1.800   2.960 -0.2138 -1.9325  3.7693
14897TIP3   OH266105   5.755   0.523  13.760  0.1449 -0.2074  0.2131
14897TIP3    H166106   5.704   0.515  13.679  1.6306  1.2354 -0.9358
14897TIP3    H266107   5.709   0.589  13.812  0.9368  1.3669 -0.9836
14898TIP3   OH266108   5.573   5.414   5.429  0.1924  0.4607  0.2961
14898TIP3    H166109   5.500   5.474   5.444  0.2010  0.2277  1.3277
14898TIP3    H266110   5.632   5.427   5.503  1.3666  0.8510 -0.6646
14899TIP3   OH266111   6.037   5.505   4.115 -0.5449 -0.5681  0.2241
14899TIP3    H166112   6.030   5.476   4.206  0.0953  0.1566  0.5070
14899TIP3    H266113   6.062   5.597   4.120  2.0199 -1.1296 -0.6610
14900TIP3   OH266114   3.771   6.045  15.790 -1.0183 -0.3416 -0.4134
14900TIP3    H166115   3.841   6.009  15.736 -1.6204 -0.1870 -1.3156
14900TIP3    H266116   3.769   5.988  15.867 -1.0505 -1.4162 -1.1889
14901TIP3   OH266117   2.276   2.755   4.451  0.5606  0.1085  0.3780
14901TIP3    H166118   2.254   2.708   4.532  2.3085 -0.6302  0.4824
14901TIP3    H266119   2.221   2.714   4.384 -1.1061  0.9140  1.2106
14902TIP3   OH266120   2.730   2.619   4.267 -0.2883  0.0292  0.4792
14902TIP3    H166121   2.704   2.705   4.234 -0.3554  0.1570  0.8493
14902TIP3    H266122   2.798   2.589   4.207 -0.1159  0.4360  0.4694
14903TIP3   OH266123   4.690   6.522  14.436 -0.0418  0.6661  0.5085
14903TIP3    H166124   4.719   6.473  14.358 -3.4666 -0.6368 -0.1251
14903TIP3    H266125   4.723   6.611  14.422 -0.3462  0.4201 -2.3593
14904TIP3   OH266126   5.203   6.319  13.456 -0.2421 -0.5357  0.3377
14904TIP3    H166127   5.202   6.249  13.390  0.0278 -2.2849  2.0819
14904TIP3    H266128   5.291   6.315  13.494 -0.0596  1.1115  0.1507
14905TIP3   OH266129   2.931   0.303   4.640  0.3088  0.2166 -0.2994
14905TIP3    H166130   2.954   0.364   4.711 -0.4835 -0.6959  0.7809
14905TIP3    H266131   2.836   0.297   4.644  0.3669 -1.0954 -0.3593
14906TIP3   OH266132   0.303   4.641  14.340  0.4042 -0.1089 -0.7740
14906TIP3    H166133   0.250   4.597  14.274  0.3247  0.1780 -0.9027
14906TIP3    H266134   0.277   4.733  14.334 -0.7510 -0.3044  0.7249
14907TIP3   OH266135   1.079   3.873  14.132 -0.0790 -0.4361 -0.0952
14907TIP3    H166136   1.120   3.803  14.080 -1.2423 -1.8422  0.8182
14907TIP3    H266137   1.134   3.949  14.116  1.1492 -1.5086 -1.2566
14908TIP3   OH266138   1.531   4.933  16.394  0.2142 -0.3698 -0.2672
14908TIP3    H166139   1.570   4.856  16.353 -0.9975 -1.1127 -0.0971
14908TIP3    H266140   1.478   4.973  16.325  0.7328  0.2426 -0.3175
14909TIP3   OH266141   4.591   0.123   4.054 -0.5039 -0.1478  0.6884
14909TIP3    H166142   4.576   0.177   3.976 -0.5395 -1.1910 -0.0543
14909TIP3    H266143   4.581   0.183   4.128  0.4954  1.0893 -0.1336
14910TIP3   OH266144   5.152   6.325   3.876  0.1428  0.5756 -0.1785
14910TIP3    H166145   5.126   6.251   3.930  0.1354  0.0829 -0.8446
14910TIP3    H266146   5.227   6.363   3.922  0.2591  0.0477  0.0770
14911TIP3   OH266147   5.582   1.855   1.873 -0.1582  0.3368  0.8526
14911TIP3    H166148   5.513   1.902   1.828 -0.6582  0.6125  1.8632
14911TIP3    H266149   5.537   1.788   1.924  0.4269 -0.2710  0.5874
14912TIP3   OH266150   3.151   6.160  11.947 -0.2337 -0.3954  0.3732
14912TIP3    H166151   3.162   6.193  11.858  0.2187 -1.7364 -0.1031
14912TIP3    H266152   3.127   6.236  11.999 -1.5146  0.2377 -1.0877
14913TIP3   OH266153   0.432   4.370   4.489 -0.1757 -0.6282 -0.3379
14913TIP3    H166154   0.471   4.400   4.407  0.2312 -0.8621 -0.2312
14913TIP3    H266155   0.407   4.279   4.472 -2.0824 -0.0572 -0.9032
14914TIP3   OH266156   0.671   5.562   2.966  0.2040  0.2245  1.1968
14914TIP3    H166157   0.591   5.610   2.944  0.5141 -0.1561 -1.0561
14914TIP3    H266158   0.728   5.627   3.006 -0.5785  0.9319  1.1939
14915TIP3   OH266159   6.609   2.560  11.945  0.1067 -0.1871  1.2346
14915TIP3    H166160   6.683   2.549  12.004  1.4943 -1.2704 -0.5813
14915TIP3    H266161   6.603   2.654  11.930 -0.9630  0.2393  3.8102
14916TIP3   OH266162   5.853   5.234   3.214  0.2798  0.2132 -0.2615
14916TIP3    H166163   5.909   5.178   3.159  0.8650  1.1805 -0.6821
14916TIP3    H266164   5.861   5.197   3.302 -0.1790 -0.9851 -0.6990
14917TIP3   OH266165   5.858   1.918   4.430 -0.3033 -0.2079 -0.7669
14917TIP3    H166166   5.928   1.880   4.377  0.5880 -1.5511  1.2921
14917TIP3    H266167   5.818   1.844   4.475 -3.0630  0.5168 -1.7887
14918TIP3   OH266168   2.274   5.723   5.499 -0.2140  0.1808 -0.6096
14918TIP3    H166169   2.236   5.749   5.583  2.1130  1.0528  0.2705
14918TIP3    H266170   2.278   5.804   5.449 -1.3340 -0.2874 -1.5001
14919TIP3   OH266171   4.007   6.706  13.139 -0.0491 -0.4127  0.2605
14919TIP3    H166172   3.928   6.726  13.088 -2.5415 -4.1971  2.2025
14919TIP3    H266173   4.043   6.792  13.161 -2.7613  1.4795 -1.9217
14920TIP3   OH266174   4.545   2.779   3.156 -0.1284 -0.8025  0.2477
14920TIP3    H166175   4.527   2.845   3.222  1.6484 -0.3890  0.3832
14920TIP3    H266176   4.595   2.826   3.089 -1.6940 -1.2592 -1.3127
14921TIP3   OH266177   3.530   0.104  16.450  0.0085 -0.0947  0.2248
14921TIP3    H166178   3.504   0.102  16.358  0.2328  0.9490  0.1258
14921TIP3    H266179   3.614   0.151  16.451 -0.2192  0.3183  1.0123
14922TIP3   OH266180   0.791   3.648   3.967 -0.3583  0.1711  0.1613
14922TIP3    H166181   0.793   3.740   3.942  1.3848  0.4126  1.0256
14922TIP3    H266182   0.809   3.648   4.061 -1.0380 -1.0282  0.3257
14923TIP3   OH266183   1.834   2.617   6.554  0.6385  0.9482 -0.2271
14923TIP3    H166184   1.900   2.673   6.595  0.4754  1.3567 -0.5295
14923TIP3    H266185   1.803   2.666   6.478  0.9388  0.1960 -0.8548
14924TIP3   OH266186   0.323   5.676  11.498  0.1796 -0.1193  0.0856
14924TIP3    H166187   0.245   5.623  11.515  0.0861 -0.2706 -0.7454
14924TIP3    H266188   0.365   5.634  11.423  1.5046 -0.5063  1.0034
14925TIP3   OH266189   1.043   4.557   1.952  0.0524  0.4332  0.8493
14925TIP3    H166190   1.002   4.476   1.982 -1.3449  0.5652 -0.5739
14925TIP3    H266191   1.102   4.530   1.882  0.4859  0.5296  1.1728
14926TIP3   OH266192   2.734   3.268   1.273 -0.1172 -0.7543  0.2596
14926TIP3    H166193   2.743   3.287   1.180 -0.4660  2.8263  0.8068
14926TIP3    H266194   2.649   3.224   1.280 -0.9310  0.4983 -1.0187
14927TIP3   OH266195   2.514   0.845  11.776 -0.2912  0.0733 -0.4368
14927TIP3    H166196   2.452   0.875  11.709 -0.4646 -0.2539 -0.4215
14927TIP3    H266197   2.521   0.919  11.836 -1.9430 -0.4681  0.4769
14928TIP3   OH266198   0.305   0.292  12.526 -0.4741 -0.1257 -0.5510
14928TIP3    H166199   0.246   0.250  12.463 -0.4052  2.2458 -2.3561
14928TIP3    H266200   0.385   0.240  12.522 -0.5753 -0.2050 -2.2691
14929TIP3   OH266201   5.819   6.006  12.056  0.5802  0.6978 -0.4100
14929TIP3    H166202   5.880   5.953  12.107  1.9578  0.6361 -2.0382
14929TIP3    H266203   5.733   5.981  12.089  1.2095 -1.9909 -0.5291
14930TIP3   OH266204   4.530   1.417  16.342 -0.4458  0.3094  0.3171
14930TIP3    H166205   4.488   1.332  16.344 -3.1367  1.5121 -0.4358
14930TIP3    H266206   4.547   1.438  16.434  0.1792 -0.9632  0.5078
14931TIP3   OH266207   1.655   5.213   2.917 -0.5098 -0.1351 -0.0682
14931TIP3    H166208   1.563   5.236   2.929 -0.4282 -0.2090  0.7596
14931TIP3    H266209   1.670   5.140   2.976  0.3997  0.7028  0.7995
14932TIP3   OH266210   1.066   0.939  14.612 -0.0567  0.0061  0.4371
14932TIP3    H166211   1.105   1.008  14.666  0.1623 -1.0098  1.6321
14932TIP3    H266212   1.115   0.860  14.635 -0.0953 -0.5114 -1.1228
14933TIP3   OH266213   2.639   6.207   4.810  0.1429  0.0798  0.1501
14933TIP3    H166214   2.718   6.152   4.807  0.1820  0.0718  0.9417
14933TIP3    H266215   2.618   6.212   4.903  1.9605  4.0035  0.5331
14934TIP3   OH266216   0.267   3.754   3.508  0.2957 -0.5975  0.7960
14934TIP3    H166217   0.303   3.666   3.518  1.3974 -0.0012  2.5691
14934TIP3    H266218   0.193   3.756   3.568  0.3308 -0.2891  0.8285
14935TIP3   OH266219   1.913   3.539  11.880  0.4866  0.2373 -0.0411
14935TIP3    H166220   1.932   3.628  11.849  0.0134  0.2069 -0.4181
14935TIP3    H266221   1.899   3.550  11.974 -1.5589  0.9016 -0.3775
14936TIP3   OH266222   6.397   4.784  11.135  0.3973 -0.0636  0.0021
14936TIP3    H166223   6.370   4.864  11.089  0.1202 -0.3084 -0.2603
14936TIP3    H266224   6.451   4.816  11.207  0.2137  0.3677 -0.0451
14937TIP3   OH266225   1.206   1.454  10.701 -0.6819 -0.4575  0.5821
14937TIP3    H166226   1.224   1.378  10.757  0.2557 -0.5737  0.1469
14937TIP3    H266227   1.270   1.447  10.630 -0.3008  0.9706  0.7517
14938TIP3   OH266228   0.477   3.891   1.915  0.0609  0.2947  0.4677
14938TIP3    H166229   0.459   3.920   1.826 -0.1047  1.9017  0.9830
14938TIP3    H266230   0.521   3.807   1.905 -1.5386 -0.4168 -1.0530
14939TIP3   OH266231   1.350   3.297   4.825  0.5241  0.3117 -0.4246
14939TIP3    H166232   1.439   3.331   4.822  0.4138  0.6171 -0.2483
14939TIP3    H266233   1.346   3.233   4.754  1.6921 -1.6374  1.1363
14940TIP3   OH266234   6.146   2.228  16.380  0.2473 -0.0465 -0.0003
14940TIP3    H166235   6.221   2.195  16.430  0.2216 -0.0534  0.0328
14940TIP3    H266236   6.178   2.233  16.290  0.6314  0.9511  0.1732
14941TIP3   OH266237   5.666   3.817   2.037 -0.4444 -0.2132  0.0729
14941TIP3    H166238   5.625   3.889   2.086 -1.3862 -0.2548 -0.6346
14941TIP3    H266239   5.673   3.746   2.101  1.7860  0.9103  1.1842
14942TIP3   OH266240   4.948   2.067  17.160  0.4996  0.5583  0.2805
14942TIP3    H166241   4.871   2.123  17.171 -0.7743 -0.6368 -1.9093
14942TIP3    H266242   5.006   2.117  17.103 -0.1065  0.1934 -0.6836
14943TIP3   OH266243   2.575   1.778  14.728 -0.6127 -0.3387  0.3747
14943TIP3    H166244   2.481   1.757  14.723 -0.7439  0.3571 -0.3924
14943TIP3    H266245   2.608   1.758  14.640  0.0398 -0.9469  0.7570
14944TIP3   OH266246   4.350   4.954   3.238  0.5667  0.0063  0.2425
14944TIP3    H166247   4.362   4.941   3.144  1.3006  1.6768  0.0739
14944TIP3    H266248   4.318   5.043   3.247 -2.1575 -0.9832  1.4447
14945TIP3   OH266249   3.982   2.763  11.806  0.3534  0.0045  0.3803
14945TIP3    H166250   3.954   2.707  11.734 -0.4041 -0.7821  1.2597
14945TIP3    H266251   3.971   2.709  11.884 -4.0605  2.4279  1.7965
14946TIP3   OH266252   6.249   2.532   5.180 -0.4056 -0.0649  0.3267
14946TIP3    H166253   6.251   2.523   5.275  1.3401 -0.8716  0.2486
14946TIP3    H266254   6.248   2.626   5.164  1.2696  0.1349  1.1655
14947TIP3   OH266255   0.051   2.257   0.340  0.9327 -0.3349  0.8200
14947TIP3    H166256   0.089   2.272   0.253  0.0844 -2.3237  0.0569
14947TIP3    H266257   0.090   2.325   0.395  3.8831 -0.9058 -0.3932
14948TIP3   OH266258   1.922   5.375   1.018 -0.0306  0.0612  0.3111
14948TIP3    H166259   1.877   5.370   1.102 -0.0776 -1.6069  0.2217
14948TIP3    H266260   2.013   5.356   1.038  0.2218  1.0797  0.1668
14949TIP3   OH266261   1.257   1.619  16.384  0.0650  0.5686 -0.2132
14949TIP3    H166262   1.272   1.639  16.477 -2.4292  4.3890 -0.3754
14949TIP3    H266263   1.312   1.682  16.337  2.3064 -2.1536 -1.5484
14950TIP3   OH266264   1.479   6.153  14.949 -0.2061  0.2995  0.5939
14950TIP3    H166265   1.417   6.085  14.922  0.2294 -0.4869  1.5315
14950TIP3    H266266   1.437   6.197  15.022 -1.1859  2.1347 -0.9947
14951TIP3   OH266267   4.067   4.526   1.860 -0.1258 -0.1881  0.2027
14951TIP3    H166268   4.091   4.597   1.919 -1.7596  0.8689 -0.3503
14951TIP3    H266269   4.019   4.464   1.914  2.9504 -1.9835  1.1590
14952TIP3   OH266270   2.835   5.452  12.024  0.7591  0.6652  0.4187
14952TIP3    H166271   2.911   5.427  11.972 -0.4448  0.1784 -1.1879
14952TIP3    H266272   2.791   5.518  11.971  0.2730  1.2600  1.5240
14953TIP3   OH266273   5.418   3.844  16.544  0.3332 -0.6211  0.2198
14953TIP3    H166274   5.455   3.929  16.569  2.2911 -1.5151  0.5497
14953TIP3    H266275   5.483   3.805  16.486 -0.8012 -1.6748 -0.3956
14954TIP3   OH266276   5.402   2.362  11.566 -0.9070 -0.4260 -0.9747
14954TIP3    H166277   5.483   2.342  11.520 -1.3754 -1.3622 -1.4327
14954TIP3    H266278   5.333   2.340  11.504 -1.5227  0.7450 -0.7426
14955TIP3   OH266279   5.553   3.331  17.311  0.3681  0.5699 -0.7636
14955TIP3    H166280   5.570   3.401  17.374  0.2339  0.9601 -1.1543
14955TIP3    H266281   5.569   3.372  17.225  0.7741 -0.0188 -0.9713
14956TIP3   OH266282   5.611   2.613   4.390 -0.5764  0.5750 -0.1531
14956TIP3    H166283   5.629   2.558   4.314 -0.6891 -0.8213  0.8034
14956TIP3    H266284   5.520   2.640   4.378 -0.6582  0.1950 -0.4175
14957TIP3   OH266285   1.955   6.431  11.825 -0.5884  0.7180  0.0982
14957TIP3    H166286   1.975   6.524  11.836  3.2889  0.0414  0.2567
14957TIP3    H266287   1.949   6.419  11.731  0.8889  0.8605 -0.0355
14958TIP3   OH266288   1.175   0.533  16.428  0.3820 -0.5090  0.1853
14958TIP3    H166289   1.249   0.522  16.488  2.1556  0.5841 -1.6728
14958TIP3    H266290   1.133   0.614  16.458  0.5461 -0.6011  0.6744
14959TIP3   OH266291   2.380   1.229   0.418 -0.1821  0.1339 -0.2059
14959TIP3    H166292   2.373   1.324   0.406  0.2212  0.1208 -0.5857
14959TIP3    H266293   2.408   1.196   0.332  0.4688 -0.2369  0.1450
14960TIP3   OH266294   2.071   2.989  16.364  0.1744 -0.0191  0.1010
14960TIP3    H166295   2.010   2.968  16.434 -1.0789 -0.2607 -1.0266
14960TIP3    H266296   2.039   2.941  16.288  1.3255  0.4546 -0.7286
14961TIP3   OH266297   0.410   0.944  13.480  0.0325  0.2482  0.5597
14961TIP3    H166298   0.425   0.865  13.428 -1.2788 -0.7761  1.6681
14961TIP3    H266299   0.411   1.015  13.416 -0.7458 -0.8871 -0.7791
14962TIP3   OH266300   2.573   5.948   3.898  0.0937  0.1279  0.3084
14962TIP3    H166301   2.611   5.999   3.969  0.0571  0.4281  0.1152
14962TIP3    H266302   2.645   5.895   3.865  0.0579 -0.1800  0.7128
14963TIP3   OH266303   5.462   3.134  15.775  0.0850  0.2189 -0.2534
14963TIP3    H166304   5.535   3.176  15.729  1.6828  0.1425  2.0425
14963TIP3    H266305   5.500   3.103  15.857 -2.1444 -1.5214  0.2135
14964TIP3   OH266306   1.077   0.457   0.373 -0.1716  0.2629 -0.3373
14964TIP3    H166307   1.018   0.388   0.404 -0.2201 -0.1420 -1.2965
14964TIP3    H266308   1.069   0.526   0.438 -1.2983 -0.0076 -0.1607
14965TIP3   OH266309   2.054   0.549  14.918 -0.7553 -0.0829  0.5488
14965TIP3    H166310   2.109   0.571  14.843 -0.8967  0.1551  0.5152
14965TIP3    H266311   2.075   0.614  14.985 -2.2592  1.1196 -0.0806
14966TIP3   OH266312   1.663   1.729   3.732 -0.3429  0.1405 -0.4601
14966TIP3    H166313   1.577   1.697   3.703  0.3094 -0.3398 -1.9720
14966TIP3    H266314   1.694   1.782   3.659  0.7788  0.0808 -0.0383
14967TIP3   OH266315   5.064   5.831   5.808  0.1567  0.0268  0.0459
14967TIP3    H166316   5.018   5.771   5.749  0.2856  0.2354 -0.2684
14967TIP3    H266317   4.997   5.892   5.838  0.3081  0.5812 -0.7311
14968TIP3   OH266318   0.465   6.583   4.384  0.1791  0.4865  0.4195
14968TIP3    H166319   0.507   6.530   4.452  0.1906 -0.4559 -0.3054
14968TIP3    H266320   0.534   6.597   4.318 -0.0004  0.8874  0.3135
14969TIP3   OH266321   6.308   2.703   5.605  0.1760  0.3757  0.3260
14969TIP3    H166322   6.234   2.689   5.546  0.5150  0.1288 -0.0460
14969TIP3    H266323   6.330   2.795   5.594  0.5392  0.2190 -0.2946
14970TIP3   OH266324   4.670   4.774  14.293 -0.2032  0.0093  0.0380
14970TIP3    H166325   4.610   4.771  14.368  1.0660  0.1920  1.1128
14970TIP3    H266326   4.648   4.856  14.248 -1.6136 -0.5681 -0.3658
14971TIP3   OH266327   0.755   3.520   5.863  0.1959 -0.2882 -0.5315
14971TIP3    H166328   0.728   3.569   5.786 -0.7112  0.4353  0.2337
14971TIP3    H266329   0.716   3.433   5.851 -2.5565  0.7012  0.5120
14972TIP3   OH266330   1.293   2.680  15.755 -0.0683 -0.4418 -0.1986
14972TIP3    H166331   1.362   2.741  15.782 -0.7659 -0.1368  0.9460
14972TIP3    H266332   1.251   2.654  15.837 -0.9550 -1.0636 -0.8343
14973TIP3   OH266333   1.776   6.718   4.784  0.1284 -0.6252 -0.3602
14973TIP3    H166334   1.701   6.660   4.796 -0.9810  0.8182  0.0526
14973TIP3    H266335   1.796   6.750   4.872 -1.2007  1.8489 -0.8688
14974TIP3   OH266336   0.641   3.295  10.616 -0.3226 -0.5488 -0.3714
14974TIP3    H166337   0.713   3.244  10.653  0.0856 -0.3347 -0.8562
14974TIP3    H266338   0.638   3.374  10.670  0.4217 -0.1316 -0.9163
14975TIP3   OH266339   4.589   0.830  14.980  0.3018  0.1427 -0.3420
14975TIP3    H166340   4.506   0.872  14.957  0.2343  0.0728 -0.2262
14975TIP3    H266341   4.656   0.893  14.953  0.2235  0.0688 -0.7197
14976TIP3   OH266342   0.134   6.656  16.276 -0.1778 -0.1655  0.6463
14976TIP3    H166343   0.069   6.617  16.218  0.1031  0.0915  0.1562
14976TIP3    H266344   0.210   6.599  16.269  0.2792  0.5345 -0.1737
14977TIP3   OH266345   0.178   6.387   0.283 -0.3520 -0.0133 -0.5850
14977TIP3    H166346   0.111   6.338   0.330  0.9029 -1.0877  0.1366
14977TIP3    H266347   0.239   6.321   0.251  1.9122  1.0637  1.2299
14978TIP3   OH266348   5.020   5.279  16.907 -0.0567 -0.2796  0.0307
14978TIP3    H166349   4.968   5.244  16.835  1.6379 -1.4719 -0.6926
14978TIP3    H266350   4.961   5.278  16.982 -1.0134 -1.8846 -0.6829
14979TIP3   OH266351   0.545   5.229   4.075  0.9246  0.0304 -0.5079
14979TIP3    H166352   0.532   5.185   3.991  0.4611  0.7371 -0.8223
14979TIP3    H266353   0.539   5.322   4.054 -3.2454  0.2823  0.8360
14980TIP3   OH266354   1.531   1.236  14.972  0.3945 -0.3309 -0.2063
14980TIP3    H166355   1.581   1.213  15.050  1.0312  1.4511 -0.0309
14980TIP3    H266356   1.452   1.278  15.006  0.6531  0.4136 -0.4860
14981TIP3   OH266357   5.126   0.271   5.435 -0.0211 -0.0552  0.0941
14981TIP3    H166358   5.052   0.258   5.494 -2.3801  0.4847 -2.5043
14981TIP3    H266359   5.126   0.192   5.380  1.9437 -0.4448  0.5803
14982TIP3   OH266360   1.304   5.931  11.150 -0.1830  1.2789  0.1022
14982TIP3    H166361   1.330   5.935  11.242  0.0149 -0.0096  0.1191
14982TIP3    H266362   1.378   5.970  11.103 -0.1186  1.5945  0.4530
14983TIP3   OH266363   4.635   1.217  12.952 -0.1779  0.8269  0.2633
14983TIP3    H166364   4.662   1.258  13.034  0.8196  3.0009 -1.0745
14983TIP3    H266365   4.543   1.195  12.965 -0.4134  2.4017  1.4887
14984TIP3   OH266366   6.370   4.499  15.114 -0.7853 -0.0294  0.2386
14984TIP3    H166367   6.304   4.536  15.054 -0.1459  1.2129  0.2635
14984TIP3    H266368   6.320   4.474  15.192 -1.5137 -0.9583 -0.4998
14985TIP3   OH266369   5.208   3.845  16.264  0.4136  0.0373  0.8500
14985TIP3    H166370   5.198   3.918  16.203  0.4679  0.5738  1.4715
14985TIP3    H266371   5.273   3.875  16.327  1.8132 -1.2397  0.1032
14986TIP3   OH266372   4.992   4.521  14.830 -0.3694 -0.2024  0.3645
14986TIP3    H166373   4.994   4.597  14.888  1.7111 -0.3720  0.5755
14986TIP3    H266374   5.008   4.446  14.888  1.9334 -0.3566 -0.3617
14987TIP3   OH266375   4.552   3.440   5.560  0.0870  0.1654 -0.2430
14987TIP3    H166376   4.617   3.479   5.618 -1.0580  0.4802  0.8616
14987TIP3    H266377   4.468   3.460   5.601 -0.6826 -0.7585 -1.3200
14988TIP3   OH266378   5.408   6.196  12.635  0.1426 -0.1508  0.5249
14988TIP3    H166379   5.321   6.222  12.607  1.2667  2.8579 -0.6443
14988TIP3    H266380   5.447   6.276  12.670  2.5073 -1.3203  0.8075
14989TIP3   OH266381   3.739   4.250  12.843  0.1710  0.6352  0.7036
14989TIP3    H166382   3.650   4.257  12.807  0.1957  1.7462  0.8064
14989TIP3    H266383   3.779   4.179  12.794 -0.3250  1.0577 -0.3519
14990TIP3   OH266384   2.317   3.615   5.527 -0.4571  0.2615  0.1798
14990TIP3    H166385   2.406   3.645   5.546 -0.1990 -0.1623 -0.3229
14990TIP3    H266386   2.293   3.663   5.447 -0.8710  0.7454  0.5929
14991TIP3   OH266387   5.099   6.414   1.180  0.5457  0.0779  0.3284
14991TIP3    H166388   5.125   6.464   1.258 -0.8529  2.6349 -0.7094
14991TIP3    H266389   5.156   6.447   1.110 -1.1212  1.0852 -0.6071
14992TIP3   OH266390   4.392   6.317   6.614  0.1422 -0.2399  0.2895
14992TIP3    H166391   4.383   6.412   6.607 -2.0561 -0.3318  1.1326
14992TIP3    H266392   4.486   6.302   6.628  0.4132  1.8503  0.9846
14993TIP3   OH266393   6.497   6.249   4.967 -0.3664 -0.0178 -0.2832
14993TIP3    H166394   6.586   6.264   4.935 -0.2790 -0.0614 -0.0657
14993TIP3    H266395   6.443   6.313   4.921 -0.1616  0.2688 -0.1268
14994TIP3   OH266396   0.437   0.361   4.806 -0.2452  0.2004  0.4177
14994TIP3    H166397   0.512   0.320   4.848 -0.4635 -1.1336 -0.4543
14994TIP3    H266398   0.369   0.294   4.806 -0.7948  0.7317 -0.5512
14995TIP3   OH266399   1.077   1.359   4.424 -0.0510  0.3637  0.2980
14995TIP3    H166400   1.061   1.408   4.505 -0.9643  1.6865 -0.6429
14995TIP3    H266401   0.993   1.318   4.404 -0.0865  0.7840 -0.4465
14996TIP3   OH266402   2.255   5.148   4.750 -0.0552  1.1143 -0.0826
14996TIP3    H166403   2.204   5.072   4.775 -1.6308  2.5083  1.2099
14996TIP3    H266404   2.326   5.152   4.814  0.2977  0.5138 -0.4266
14997TIP3   OH266405   2.357   0.132   4.022 -0.1545  0.7172  0.6521
14997TIP3    H166406   2.292   0.158   4.087 -0.5369 -0.8432  0.9364
14997TIP3    H266407   2.321   0.163   3.939 -0.3267  1.5180  1.0131
14998TIP3   OH266408   0.815   4.148   5.571  0.2274 -0.0293 -0.1918
14998TIP3    H166409   0.842   4.057   5.566 -0.6067 -0.2468 -0.7768
14998TIP3    H266410   0.831   4.183   5.484  0.7137  0.4362  0.0792
14999TIP3   OH266411   1.556   6.153  12.989  0.4549 -0.0755 -0.2979
14999TIP3    H166412   1.635   6.113  13.025  0.2730  0.1816  0.4074
14999TIP3    H266413   1.510   6.081  12.946  0.8154 -0.3344 -0.2581
15000TIP3   OH266414   3.905   6.713   0.355  0.3908 -0.3155 -0.6360
15000TIP3    H166415   3.837   6.781   0.350 -0.3775 -1.0628 -0.5216
15000TIP3    H266416   3.965   6.746   0.421 -0.0980  0.1582 -0.4126
15001TIP3   OH266417   2.943   0.914   1.100 -0.1084 -0.0927  0.3178
15001TIP3    H166418   2.954   0.822   1.074 -1.9579 -0.5883  1.1232
15001TIP3    H266419   2.850   0.932   1.087 -0.2211  0.9950  2.1963
15002TIP3   OH266420   0.410   4.123   1.717 -0.1690 -0.1038 -0.0790
15002TIP3    H166421   0.329   4.080   1.692 -0.4772  0.1219  0.5269
15002TIP3    H266422   0.403   4.136   1.811 -0.4785  2.0833 -0.3640
15003TIP3   OH266423   2.503   1.705  14.167  0.2749  0.5292  0.2402
15003TIP3    H166424   2.584   1.701  14.116  1.0011 -0.1910  1.4022
15003TIP3    H266425   2.528   1.749  14.249  0.1035 -1.8318  1.6379
15004TIP3   OH266426   0.381   0.390   4.318  0.0849  0.8091 -0.0759
15004TIP3    H166427   0.392   0.472   4.270  2.4454  0.6480  0.0463
15004TIP3    H266428   0.415   0.409   4.406 -1.0223  0.1721  0.5115
15005TIP3   OH266429   3.691   3.068   2.269  0.3140  0.2094  0.5800
15005TIP3    H166430   3.609   3.057   2.317 -1.6793  1.0823 -2.3249
15005TIP3    H266431   3.695   2.991   2.212  0.7130  0.8937 -0.3405
15006TIP3   OH266432   4.941   2.630   3.696 -0.4378  0.3960 -0.2643
15006TIP3    H166433   4.949   2.648   3.603 -0.5388 -0.9331 -0.5430
15006TIP3    H266434   4.861   2.578   3.704  2.0943 -4.0158 -0.1989
15007TIP3   OH266435   6.661   1.502   1.352 -0.4779  0.3621 -0.1565
15007TIP3    H166436   6.588   1.538   1.302  1.0270  0.6151 -2.3139
15007TIP3    H266437   6.694   1.429   1.299  2.0196  1.4691 -0.2620
15008TIP3   OH266438   1.132   2.119  15.330  0.0044 -0.1763  1.0672
15008TIP3    H166439   1.181   2.201  15.332 -0.2106 -0.0319  0.6074
15008TIP3    H266440   1.040   2.146  15.327 -0.1486 -0.4468  2.4929
15009TIP3   OH266441   5.384   5.187  10.831 -0.0223  0.1732  0.5821
15009TIP3    H166442   5.371   5.246  10.906 -0.3871  0.2339  0.4743
15009TIP3    H266443   5.455   5.226  10.782  1.1426 -0.5851  1.6124
15010TIP3   OH266444   3.381   1.999  13.676 -0.1525  0.0208 -0.2450
15010TIP3    H166445   3.300   2.041  13.645  0.6495  1.9923  0.1460
15010TIP3    H266446   3.423   2.066  13.730  0.7913 -1.6595  1.2283
15011TIP3   OH266447   1.786   5.042   2.089 -0.0156 -0.1549 -0.4209
15011TIP3    H166448   1.856   4.978   2.080  0.3135  0.4045 -2.2278
15011TIP3    H266449   1.745   5.021   2.173 -1.2823 -4.1138 -1.8041
15012TIP3   OH266450   3.960   0.766   4.381  0.4405  0.4649 -0.1343
15012TIP3    H166451   3.979   0.757   4.287  0.6133 -0.2355 -0.0355
15012TIP3    H266452   3.887   0.706   4.396  0.1989  0.8171  0.1216
15013TIP3   OH266453   5.928   3.093  17.240  0.1488  0.3931  0.3893
15013TIP3    H166454   5.874   3.086  17.319  0.9290 -2.1033  0.7869
15013TIP3    H266455   5.934   3.003  17.207  1.2325  1.1304 -1.5695
15014TIP3   OH266456   3.828   5.655  12.700  0.2758  0.4996 -0.5192
15014TIP3    H166457   3.770   5.653  12.624 -0.4263  2.2053 -0.0586
15014TIP3    H266458   3.824   5.565  12.734 -3.3280  0.8213  0.3650
15015TIP3   OH266459   2.057   1.634  16.481  0.2881 -0.5921 -0.3357
15015TIP3    H166460   2.005   1.557  16.506  0.7040 -0.1957  2.0392
15015TIP3    H266461   2.139   1.623  16.531  0.5504  1.1361 -0.3499
15016TIP3   OH266462   3.688   3.681   3.034  0.1400  0.5678 -0.0811
15016TIP3    H166463   3.694   3.737   2.957 -2.0120 -0.6299 -1.1877
15016TIP3    H266464   3.595   3.683   3.059  0.4405 -0.6342  1.2902
15017TIP3   OH266465   2.148   1.178   1.981 -0.2775  0.5992 -0.3175
15017TIP3    H166466   2.156   1.264   1.940  0.7230  0.3022 -0.7758
15017TIP3    H266467   2.079   1.135   1.932 -0.2623  0.8713 -0.5862
15018TIP3   OH266468   4.988   0.862   0.717  0.4143  0.1868  0.2549
15018TIP3    H166469   4.964   0.954   0.724  0.7707  0.3005 -0.0440
15018TIP3    H266470   5.075   0.856   0.756  0.4748  0.0092  0.0949
15019TIP3   OH266471   3.499   0.434   4.635 -0.0305 -0.4760  0.3863
15019TIP3    H166472   3.580   0.439   4.685  0.6273 -0.6570 -0.6340
15019TIP3    H266473   3.452   0.360   4.673 -0.4788  0.5834  2.0354
15020TIP3   OH266474   0.068   2.102  17.114  0.0030 -0.4973  0.3570
15020TIP3    H166475   0.045   2.029  17.171  0.6717  0.6068  2.1171
15020TIP3    H266476   0.142   2.069  17.062  0.2787 -1.0960  1.1019
15021TIP3   OH266477   6.469   1.287   3.968  0.2995 -0.9380  0.1022
15021TIP3    H166478   6.537   1.220   3.959  0.0663 -1.2511  0.6469
15021TIP3    H266479   6.454   1.293   4.062 -0.3395 -0.7761 -0.0100
15022TIP3   OH266480   4.474   2.493  16.564 -0.1905 -0.1441 -0.6182
15022TIP3    H166481   4.446   2.406  16.592  0.6879 -0.3010 -0.1961
15022TIP3    H266482   4.565   2.500  16.595 -1.0572  1.9750  1.7506
15023TIP3   OH266483   4.721   3.361   4.458 -0.2195  0.5917  0.7600
15023TIP3    H166484   4.810   3.359   4.490  0.1087  0.4091 -0.1286
15023TIP3    H266485   4.678   3.286   4.500  0.8661 -1.1445 -1.0245
15024TIP3   OH266486   1.564   6.334   0.554  0.1605 -0.0917 -0.2813
15024TIP3    H166487   1.492   6.295   0.604  0.7918  0.2375  0.9198
15024TIP3    H266488   1.527   6.415   0.518  0.0910  0.3797  0.8252
15025TIP3   OH266489   0.119   6.338  15.269 -0.1296 -0.2189  0.0520
15025TIP3    H166490   0.118   6.365  15.361 -0.3499 -1.4197  0.4224
15025TIP3    H266491   0.086   6.248  15.270  0.6354 -0.5369 -1.1088
15026TIP3   OH266492   1.623   2.480   2.868  0.4075 -0.2204  0.3789
15026TIP3    H166493   1.616   2.523   2.783 -1.2066 -1.7126 -0.2990
15026TIP3    H266494   1.560   2.528   2.923 -0.5927 -0.9766 -0.0742
15027TIP3   OH266495   1.069   6.011   0.825  0.3630  0.3151  0.1159
15027TIP3    H166496   1.159   6.044   0.816  0.8798 -1.0422  0.0460
15027TIP3    H266497   1.078   5.916   0.819 -1.1826  0.1872 -0.6198
15028TIP3   OH266498   4.265   3.342  16.947 -0.1697 -0.3395 -0.8525
15028TIP3    H166499   4.281   3.342  17.042  1.3206 -0.1240 -1.0701
15028TIP3    H266500   4.180   3.383  16.937  0.8837  2.3736  0.2560
15029TIP3   OH266501   6.555   5.115   0.461 -0.1984  0.4007 -0.2314
15029TIP3    H166502   6.465   5.092   0.440  0.8408 -1.5673 -3.1746
15029TIP3    H266503   6.591   5.150   0.379  2.1897 -0.5629  0.3097
15030TIP3   OH266504   5.772   4.920  15.591 -0.2409  0.2864  0.2902
15030TIP3    H166505   5.706   4.896  15.525 -0.4341  0.8721  0.2706
15030TIP3    H266506   5.814   4.998  15.557 -2.1404  2.2121  2.0305
15031TIP3   OH266507   0.452   0.389   1.542  0.1802  0.1240 -0.1987
15031TIP3    H166508   0.360   0.385   1.570  0.6575 -0.5413  1.3761
15031TIP3    H266509   0.483   0.474   1.573 -0.0145  0.5466 -1.1391
15032TIP3   OH266510   1.651   1.754   6.042 -0.4932 -0.8003  0.4726
15032TIP3    H166511   1.649   1.805   5.960  0.0925  0.8333  1.4299
15032TIP3    H266512   1.728   1.786   6.088 -1.4342 -0.8581  2.1666
15033TIP3   OH266513   3.504   0.210   2.421 -0.3186 -0.1556 -0.0758
15033TIP3    H166514   3.451   0.289   2.433 -1.7795 -1.1814  0.5304
15033TIP3    H266515   3.569   0.214   2.491  0.0782  0.8505 -0.4882
15034TIP3   OH266516   6.708   5.352   2.213  0.0710 -0.4872  0.3090
15034TIP3    H166517   6.788   5.304   2.189  0.2732  0.2223 -0.4754
15034TIP3    H266518   6.659   5.290   2.267  1.3559 -0.7855  1.1973
15035TIP3   OH266519   3.060   0.689   2.413 -0.7132  0.1015  0.3155
15035TIP3    H166520   2.987   0.752   2.410 -0.2603  0.6355  0.2406
15035TIP3    H266521   3.087   0.690   2.505 -0.1667  0.6528  0.1532
15036TIP3   OH266522   5.124   2.978   1.918 -0.0937 -0.4663  0.1359
15036TIP3    H166523   5.116   2.888   1.951  0.1619 -1.3041 -1.9284
15036TIP3    H266524   5.210   2.980   1.877 -0.4912  0.4229 -0.6792
15037TIP3   OH266525   1.927   1.526  13.262 -0.0334 -0.1534 -0.3252
15037TIP3    H166526   1.920   1.617  13.291 -0.2625 -0.2438 -0.0855
15037TIP3    H266527   1.837   1.502  13.239  0.2612  0.1567 -1.8849
15038TIP3   OH266528   0.020   0.722   4.181 -0.2190 -0.5178 -0.4506
15038TIP3    H166529   0.008   0.691   4.271  2.7329 -1.6811 -0.3555
15038TIP3    H266530  -0.049   0.679   4.131  0.0207 -2.3744  0.7532
15039TIP3   OH266531   3.517   6.003  16.588  0.6574  0.0241  0.8514
15039TIP3    H166532   3.429   5.977  16.562  1.1397  1.5969 -2.9843
15039TIP3    H266533   3.572   5.926  16.568  0.5248 -0.0223  0.6686
15040TIP3   OH266534   5.583   5.879  12.173 -0.3521 -0.0604  0.0792
15040TIP3    H166535   5.545   5.792  12.190 -2.4562  0.9308  0.7495
15040TIP3    H266536   5.627   5.902  12.255  0.3882 -0.5361 -0.1660
15041TIP3   OH266537   3.282   0.814   0.657 -0.4972  0.6225  0.4626
15041TIP3    H166538   3.300   0.850   0.743 -0.2704 -2.0278  1.6058
15041TIP3    H266539   3.368   0.810   0.614 -0.3808  0.5063  0.7061
15042TIP3   OH266540   0.899   2.774   2.777 -0.6367  0.0334  0.2518
15042TIP3    H166541   0.902   2.856   2.728  1.7115 -0.5416 -0.7081
15042TIP3    H266542   0.895   2.705   2.710 -2.7447 -0.7148  1.0399
15043TIP3   OH266543   2.758   4.880  16.560 -0.2478 -0.0569  0.3856
15043TIP3    H166544   2.769   4.864  16.466 -1.4237 -1.4385  0.4507
15043TIP3    H266545   2.722   4.969  16.565 -1.7650 -0.5712 -0.6123
15044TIP3   OH266546   2.323   3.085   0.428 -0.0081  0.7527  0.3388
15044TIP3    H166547   2.376   3.057   0.354 -0.0501 -0.9858  0.9154
15044TIP3    H266548   2.370   3.053   0.505 -1.6531 -0.5140  0.8795
15045TIP3   OH266549   2.065   5.975  11.056 -0.0480  0.5716  0.4811
15045TIP3    H166550   2.005   5.981  10.981  0.3303 -0.3059  0.0981
15045TIP3    H266551   2.071   6.065  11.088  1.7150  1.4743 -2.0775
15046TIP3   OH266552   1.482   4.999   1.340 -0.0102  0.0249 -0.0952
15046TIP3    H166553   1.441   5.010   1.425  0.2740 -0.2845  0.0841
15046TIP3    H266554   1.567   4.958   1.359  1.6117  3.0472 -0.1816
15047TIP3   OH266555   3.827   4.845   4.950 -0.3517  0.4298 -0.0110
15047TIP3    H166556   3.777   4.808   4.876 -0.1212  0.5130 -0.2115
15047TIP3    H266557   3.890   4.776   4.972 -2.8802 -1.2513  2.6511
15048TIP3   OH266558   4.605   0.995   2.553  0.0573 -0.4259  0.6045
15048TIP3    H166559   4.568   1.039   2.630  0.3419 -0.1840  0.6007
15048TIP3    H266560   4.657   0.924   2.589 -0.6563 -0.9685  0.6028
15049TIP3   OH266561   0.421   3.075   1.676  0.4393 -0.3924 -0.2599
15049TIP3    H166562   0.411   3.170   1.687  1.3387 -0.4207  0.9269
15049TIP3    H266563   0.356   3.037   1.736 -0.9894 -0.5639 -1.8314
15050TIP3   OH266564   5.605   5.244  13.082 -0.0168  0.1601 -0.2833
15050TIP3    H166565   5.661   5.185  13.030 -0.8647 -1.0040  0.0786
15050TIP3    H266566   5.618   5.216  13.172 -0.9438  0.0671 -0.1670
15051TIP3   OH266567   0.107   4.017   0.494  0.2368  0.1671 -0.0741
15051TIP3    H166568   0.170   3.951   0.467  0.5257  1.0406 -1.6676
15051TIP3    H266569   0.051   4.031   0.417 -0.7762  0.6925  0.7223
15052TIP3   OH266570   2.252   5.284  10.543 -0.1614  0.1708 -0.0294
15052TIP3    H166571   2.206   5.207  10.575 -0.4957  0.4232  0.0996
15052TIP3    H266572   2.331   5.249  10.501 -1.5013 -0.4381 -2.1839
15053TIP3   OH266573   2.706   3.151   3.209 -0.3730 -0.6013  0.3655
15053TIP3    H166574   2.629   3.142   3.154  0.4354 -0.8856 -0.7535
15053TIP3    H266575   2.693   3.088   3.280  0.3104 -3.0907 -1.6033
15054TIP3   OH266576   6.567   0.663  13.276 -0.3437 -0.3096  0.0802
15054TIP3    H166577   6.539   0.714  13.352 -2.4009 -1.9721  0.5270
15054TIP3    H266578   6.662   0.667  13.279 -0.3980  1.9880  1.0850
15055TIP3   OH266579   0.253   3.686   0.032  0.3689  0.2037 -0.3100
15055TIP3    H166580   0.237   3.640   0.114  0.8874 -0.2341 -0.4476
15055TIP3    H266581   0.181   3.658  -0.025  1.7075 -2.0398 -1.0442
15056TIP3   OH266582   4.173   1.310   0.521  0.4993 -0.0729  0.1187
15056TIP3    H166583   4.242   1.247   0.544  0.6378 -0.8309 -2.1222
15056TIP3    H266584   4.193   1.388   0.572  1.8049 -0.9831  1.0585
15057TIP3   OH266585   5.222   0.662  12.212  0.0309  0.1588  0.6905
15057TIP3    H166586   5.141   0.626  12.246 -1.1556  2.3190  0.3041
15057TIP3    H266587   5.263   0.705  12.288 -1.0733  2.2432  0.2035
15058TIP3   OH266588   2.734   0.927   5.837 -0.1866 -0.4389 -0.2838
15058TIP3    H166589   2.669   0.859   5.852 -1.0152 -0.4165 -3.1020
15058TIP3    H266590   2.731   0.942   5.742  2.7689  0.7572 -0.2813
15059TIP3   OH266591   4.166   4.900   4.672 -1.3147 -0.4324  0.2789
15059TIP3    H166592   4.189   4.851   4.751 -2.6727  0.0370  1.0045
15059TIP3    H266593   4.148   4.833   4.607  0.6210 -0.8187  0.0827
15060TIP3   OH266594   5.003   4.431   2.163  0.1880  0.4182 -0.3099
15060TIP3    H166595   5.075   4.415   2.223  1.9365 -0.9421 -2.6364
15060TIP3    H266596   5.020   4.518   2.128  0.7162  0.0995 -0.8553
15061TIP3   OH266597   2.447   6.250   3.016 -0.3713 -0.2767  0.3386
15061TIP3    H166598   2.421   6.159   3.002 -1.9400  0.2140 -0.1109
15061TIP3    H266599   2.440   6.262   3.111 -0.4205 -0.5465  0.3704
15062TIP3   OH266600   4.810   3.906   5.941  0.4114  0.7248 -0.3632
15062TIP3    H166601   4.757   3.846   5.994  1.9649  0.7936  1.3733
15062TIP3    H266602   4.884   3.852   5.912  0.5949  1.2101 -0.8005
15063TIP3   OH266603   3.030   1.075   1.361 -0.6341 -0.3816 -0.1611
15063TIP3    H166604   3.008   1.168   1.368  0.9009 -0.0686  1.0884
15063TIP3    H266605   3.025   1.057   1.267  0.1393  1.2827 -0.5698
15064TIP3   OH266606   6.111   1.768  16.276 -0.1103  0.5312  0.0132
15064TIP3    H166607   6.094   1.807  16.362  0.2814 -0.3535  0.4995
15064TIP3    H266608   6.046   1.699  16.267 -0.1986  0.6659 -0.4432
15065TIP3   OH266609   3.080   1.457   6.713  0.0390  0.3825  0.1087
15065TIP3    H166610   3.020   1.391   6.750  0.5478  0.3636  0.9244
15065TIP3    H266611   3.138   1.407   6.655 -0.0949  0.2471  0.0907
15066TIP3   OH266612   0.980   1.616  12.328 -0.1809 -0.5162  0.1599
15066TIP3    H166613   1.008   1.706  12.341  1.5171 -0.7772 -1.2528
15066TIP3    H266614   0.916   1.599  12.397 -0.0956  1.5693  0.7872
15067TIP3   OH266615   3.198   6.422   1.340  0.5632  0.0008 -1.0249
15067TIP3    H166616   3.169   6.332   1.358  0.7681 -0.6808 -3.6502
15067TIP3    H266617   3.117   6.473   1.337  0.2313 -0.5411 -1.5903
15068TIP3   OH266618   6.104   1.433  10.618  0.1592  0.0219 -0.1761
15068TIP3    H166619   6.177   1.442  10.557 -2.5114 -0.1718 -3.7248
15068TIP3    H266620   6.077   1.522  10.637 -0.4145  0.1047 -1.2689
15069TIP3   OH266621   5.342   6.433  14.426  0.0167 -0.1065  0.5978
15069TIP3    H166622   5.434   6.451  14.409  0.5292 -0.9034  2.3224
15069TIP3    H266623   5.316   6.498  14.492  0.0458 -1.3935  1.9198
15070TIP3   OH266624   5.165   1.213  13.029  0.5198  0.0154 -1.0148
15070TIP3    H166625   5.090   1.272  13.026  0.7424  0.2711 -2.0937
15070TIP3    H266626   5.235   1.261  12.985  1.4867 -0.0096  0.4161
15071TIP3   OH266627   0.820   0.979   1.073  0.1338 -0.3196  0.3947
15071TIP3    H166628   0.774   1.050   1.119  3.4415  0.8704  2.1694
15071TIP3    H266629   0.827   1.010   0.983  0.8479  1.3189  0.9719
15072TIP3   OH266630   2.564   3.148   3.648  0.1238 -0.5234  0.5202
15072TIP3    H166631   2.578   3.212   3.578  2.6001 -1.0343  0.4912
15072TIP3    H266632   2.499   3.088   3.612 -1.6456  1.4048  0.2334
15073TIP3   OH266633   3.875   1.666  15.868 -0.3688 -0.5621  0.4531
15073TIP3    H166634   3.854   1.758  15.852 -0.3586 -0.5117  0.7097
15073TIP3    H266635   3.825   1.643  15.947 -0.6812 -0.8915  0.1617
15074TIP3   OH266636   4.549   0.023  12.420  0.1229  0.4454 -0.5678
15074TIP3    H166637   4.519  -0.001  12.332  0.4797 -1.7859 -0.1414
15074TIP3    H266638   4.479   0.079  12.455 -1.7695 -1.5067 -1.0001
15075TIP3   OH266639   1.256   4.529  13.496  0.2286 -0.8726 -0.1901
15075TIP3    H166640   1.168   4.537  13.461 -0.1366  1.0067  1.0244
15075TIP3    H266641   1.244   4.490  13.583 -0.0925  3.7471  2.1217
15076TIP3   OH266642   2.266   6.561   2.438 -0.6441 -0.2898  0.6772
15076TIP3    H166643   2.299   6.526   2.355 -0.7872  0.7087  0.1812
15076TIP3    H266644   2.341   6.559   2.497 -1.2166 -3.7072  1.4722
15077TIP3   OH266645   6.555   1.434  13.632  0.2621  0.6034 -0.1137
15077TIP3    H166646   6.507   1.453  13.552 -0.9958  2.1759  0.9472
15077TIP3    H266647   6.572   1.520  13.671  1.2233 -0.0905  1.0921
15078TIP3   OH266648   4.735   2.692   4.119 -0.2369 -0.0074 -0.4799
15078TIP3    H166649   4.773   2.610   4.149 -1.6602 -0.5042  0.0853
15078TIP3    H266650   4.808   2.740   4.080  1.1222 -0.5568  1.2335
15079TIP3   OH266651   5.179   3.921  11.685  0.3097  0.2866 -0.5899
15079TIP3    H166652   5.124   3.964  11.750  1.2636 -0.2287  0.6005
15079TIP3    H266653   5.224   3.993  11.640  1.2109  0.6175  0.7698
15080TIP3   OH266654   0.526   6.242  17.024  0.2520  0.0069 -0.2271
15080TIP3    H166655   0.544   6.269  17.115 -0.0174  1.2456 -0.5178
15080TIP3    H266656   0.604   6.192  16.999 -0.0858 -1.2022  0.9884
15081TIP3   OH266657   0.748   5.286  14.971 -0.3077 -0.0576 -0.4277
15081TIP3    H166658   0.764   5.307  15.063 -0.7705 -2.7929  0.3775
15081TIP3    H266659   0.804   5.210  14.954  0.4044  0.8824 -2.6965
15082TIP3   OH266660   2.487   2.765  15.413 -0.1463  1.2443 -0.0385
15082TIP3    H166661   2.552   2.695  15.412  0.2603  1.6142 -0.9290
15082TIP3    H266662   2.461   2.772  15.505 -1.2865 -1.0452 -0.1229
15083TIP3   OH266663   2.835   0.459  14.133 -0.4321  0.0012  0.3061
15083TIP3    H166664   2.812   0.380  14.085 -1.9037 -0.6434  1.9849
15083TIP3    H266665   2.752   0.503  14.150  0.0952  0.5012  1.7531
15084TIP3   OH266666   2.527   1.875  11.455  0.0704  0.2988  0.4647
15084TIP3    H166667   2.442   1.860  11.414  1.0786 -1.6023 -1.1088
15084TIP3    H266668   2.515   1.955  11.507 -1.7721  1.9161 -2.2063
15085TIP3   OH266669   3.300   1.579  11.449 -0.5964  0.1068 -0.2367
15085TIP3    H166670   3.284   1.624  11.533  0.7461  1.6671 -0.7736
15085TIP3    H266671   3.257   1.635  11.384 -2.0368 -1.3400 -0.6000
15086TIP3   OH266672   0.183   4.504   5.405 -0.3539 -0.3690 -0.6446
15086TIP3    H166673   0.220   4.428   5.359 -1.8374 -2.1963  1.0234
15086TIP3    H266674   0.255   4.536   5.460 -0.0980 -1.4297 -0.3466
15087TIP3   OH266675   2.170   2.731   1.703 -0.1813 -0.4472 -0.3327
15087TIP3    H166676   2.200   2.674   1.632 -0.3538 -1.8616  0.7012
15087TIP3    H266677   2.250   2.768   1.739  0.0609 -1.2688 -0.0079
15088TIP3   OH266678   5.175   2.225  17.057  0.8964  0.0216  0.2815
15088TIP3    H166679   5.239   2.210  16.988 -0.6399 -0.5315 -1.0922
15088TIP3    H266680   5.126   2.302  17.028  1.2179  0.7364  1.5514
15089TIP3   OH266681   5.208   6.301  12.020 -0.7030 -1.0274 -0.5237
15089TIP3    H166682   5.123   6.269  12.051 -0.7217 -0.5663 -0.0731
15089TIP3    H266683   5.234   6.239  11.953  0.4661 -3.5091  2.0185
15090TIP3   OH266684   1.565   3.606   6.372 -0.0122  0.6174 -0.5380
15090TIP3    H166685   1.566   3.693   6.411  1.3553  0.1072  0.6818
15090TIP3    H266686   1.655   3.592   6.343 -0.5249  0.1198 -1.9741
15091TIP3   OH266687   5.985   4.216  11.740  0.2256  0.0873 -0.0929
15091TIP3    H166688   5.930   4.252  11.671 -3.0977  0.5601  2.5155
15091TIP3    H266689   6.032   4.292  11.775 -1.7246  0.8350  1.1040
15092TIP3   OH266690   2.413   4.370   2.334 -0.0664 -0.2353 -0.0482
15092TIP3    H166691   2.454   4.355   2.249 -0.6004  0.4783 -0.4523
15092TIP3    H266692   2.445   4.300   2.390 -0.1130 -1.0195 -0.9863
15093TIP3   OH266693   2.270   0.256   4.486  0.3772 -0.4676 -0.1317
15093TIP3    H166694   2.289   0.350   4.486  0.7190 -0.5365 -0.3124
15093TIP3    H266695   2.331   0.219   4.422  0.6739 -0.8962  0.3930
15094TIP3   OH266696   5.317   0.364   0.462  0.1669 -0.1829  0.1483
15094TIP3    H166697   5.291   0.445   0.419  0.8602 -0.1306 -0.1832
15094TIP3    H266698   5.234   0.317   0.477 -0.4703  1.4319  2.1408
15095TIP3   OH266699   5.778   0.673  12.851 -0.4459 -0.2014 -0.0113
15095TIP3    H166700   5.826   0.714  12.923 -2.2854  2.0650  0.0574
15095TIP3    H266701   5.844   0.658  12.783  0.8056  0.2655  1.0583
15096TIP3   OH266702   5.743   3.411   3.826 -0.0263 -0.2041  0.1657
15096TIP3    H166703   5.788   3.337   3.867 -0.1171 -0.5400 -0.3303
15096TIP3    H266704   5.670   3.371   3.778 -0.9917  0.3451  1.1163
15097TIP3   OH266705   2.293   4.338   3.147  0.4639  0.1660 -0.3820
15097TIP3    H166706   2.284   4.359   3.054 -0.2434  0.9181 -0.1517
15097TIP3    H266707   2.385   4.355   3.167  1.2475 -2.2471 -1.4696
15098TIP3   OH266708   5.737   4.855   3.435  0.3742 -0.2116  0.0068
15098TIP3    H166709   5.749   4.846   3.530  1.5360  1.1290  0.0250
15098TIP3    H266710   5.653   4.813   3.417  0.9770 -2.1509  1.3477
15099TIP3   OH266711   1.709   2.672   0.621 -0.2659  0.0393  0.1031
15099TIP3    H166712   1.694   2.630   0.705 -0.6008 -1.3776 -0.6394
15099TIP3    H266713   1.721   2.600   0.559 -2.1850  0.9510 -1.4660
15100TIP3   OH266714   3.655   2.956   6.539 -0.1620  0.1594  0.4363
15100TIP3    H166715   3.673   3.050   6.536 -0.9194  0.3399  1.1619
15100TIP3    H266716   3.740   2.915   6.525  0.3817  0.9601  1.2724
15101TIP3   OH266717   2.538   3.023  11.515  0.0205  0.0532 -0.2875
15101TIP3    H166718   2.501   2.989  11.597 -0.5361  1.1858 -0.0490
15101TIP3    H266719   2.511   2.960  11.449  1.9314 -1.8452  0.6063
15102TIP3   OH266720   5.151   4.283   1.759 -0.2541  0.4111  0.6137
15102TIP3    H166721   5.183   4.332   1.683  0.1078  1.3219  1.3395
15102TIP3    H266722   5.229   4.243   1.797 -0.3466  0.4873  0.8843
15103TIP3   OH266723   3.536   3.111   3.018  0.1093 -0.1568  0.2017
15103TIP3    H166724   3.464   3.174   3.013 -0.3856 -0.7133  0.2027
15103TIP3    H266725   3.504   3.034   2.970  1.0532 -0.0882 -0.5723
15104TIP3   OH266726   1.273   1.317  11.826 -0.7906  0.6402 -0.2009
15104TIP3    H166727   1.197   1.342  11.880  0.7914  4.7904  0.4662
15104TIP3    H266728   1.349   1.343  11.878  0.9442  1.0959 -2.7828
15105TIP3   OH266729   1.874   3.748  17.255  0.6152  0.2162  0.2127
15105TIP3    H166730   1.921   3.831  17.264 -1.7948  1.6074  0.9796
15105TIP3    H266731   1.804   3.766  17.193 -0.7939 -0.8108  1.4249
15106TIP3   OH266732   2.308   1.991   3.471  0.5080  0.2191 -0.3159
15106TIP3    H166733   2.281   2.038   3.392 -1.5520 -0.3410 -0.0023
15106TIP3    H266734   2.379   1.934   3.442  1.2520  1.5586 -1.2683
15107TIP3   OH266735   4.089   1.141  11.974  0.4663  0.4838 -0.2393
15107TIP3    H166736   4.110   1.224  12.016  1.3453  0.4768 -0.6353
15107TIP3    H266737   4.108   1.156  11.881 -1.1748  0.4160 -0.6105
15108TIP3   OH266738   2.568   4.409  11.165 -0.5831  0.4095 -0.2763
15108TIP3    H166739   2.511   4.481  11.140  0.3575  0.7006 -1.7545
15108TIP3    H266740   2.568   4.409  11.260 -3.3602  0.1154 -0.2118
15109TIP3   OH266741   5.528   3.215   2.771 -0.0890 -0.2653  0.0988
15109TIP3    H166742   5.564   3.142   2.820  0.9275  0.8851  1.1264
15109TIP3    H266743   5.435   3.194   2.762 -0.5592 -0.1440  3.3454
15110TIP3   OH266744   6.539   1.726  12.643  0.1530  0.0041  0.1192
15110TIP3    H166745   6.451   1.714  12.607 -0.0033 -0.2431  0.5722
15110TIP3    H266746   6.529   1.710  12.737  0.3716  1.5227  0.4235
15111TIP3   OH266747   1.296   4.557  13.939 -0.0955 -1.1276  0.2578
15111TIP3    H166748   1.209   4.597  13.934 -0.3042 -1.2897  1.9684
15111TIP3    H266749   1.311   4.543  14.033  1.9887 -0.6340  0.0633
15112TIP3   OH266750   0.186   0.923   1.225  0.4716  0.3738  0.1490
15112TIP3    H166751   0.141   0.952   1.304 -1.6920  1.3234 -1.3410
15112TIP3    H266752   0.183   0.998   1.166  1.3751 -0.5246 -1.1061
15113TIP3   OH266753   4.730   6.738  10.314  0.2168  0.1131  0.0907
15113TIP3    H166754   4.770   6.818  10.347  2.1315 -0.1045 -1.5424
15113TIP3    H266755   4.636   6.757  10.312  0.2320  1.0088  3.0719
15114TIP3   OH266756   2.045   4.842  10.989  0.5873 -0.5195 -0.4673
15114TIP3    H166757   2.117   4.881  10.940  0.6519  0.3472  0.2829
15114TIP3    H266758   1.982   4.814  10.923  1.4658 -1.0174 -1.1172
15115TIP3   OH266759   4.260   1.142   3.567 -0.0270  0.4844 -0.4332
15115TIP3    H166760   4.184   1.092   3.599 -0.1852  1.5603  0.9562
15115TIP3    H266761   4.282   1.100   3.484 -1.2784 -0.7369 -0.1978
15116TIP3   OH266762   5.157   1.747   4.535  0.1065  0.1745 -0.4184
15116TIP3    H166763   5.237   1.769   4.582 -0.4446  1.3227  0.0314
15116TIP3    H266764   5.185   1.729   4.445  1.0988 -1.4502  0.1793
15117TIP3   OH266765   2.388   0.012   5.849  0.1352 -0.3560  0.6026
15117TIP3    H166766   2.425  -0.018   5.932  1.0111 -4.8501 -1.1133
15117TIP3    H266767   2.341  -0.065   5.815 -0.7671  1.4874 -2.7474
15118TIP3   OH266768   6.018   6.732  13.984  0.2173 -0.2718 -0.5160
15118TIP3    H166769   6.092   6.787  14.008  0.6017 -0.0162 -2.1233
15118TIP3    H266770   5.960   6.791  13.935  0.5055 -1.1769 -2.0205
15119TIP3   OH266771   0.718   4.302  11.497  0.5117  0.0115 -0.2573
15119TIP3    H166772   0.677   4.216  11.505 -1.2915  0.8004 -0.5941
15119TIP3    H266773   0.693   4.333  11.410  0.8291  1.0414  0.0006
15120TIP3   OH266774   2.812   0.953  14.478 -0.3046 -0.5682 -0.4099
15120TIP3    H166775   2.756   0.882  14.510  1.8960 -2.0720  0.3359
15120TIP3    H266776   2.874   0.968  14.549  0.9364  0.2461 -1.6138
15121TIP3   OH266777   2.824   3.310   5.602 -0.4357 -0.1266 -0.6322
15121TIP3    H166778   2.780   3.373   5.660 -0.2014  1.0092 -1.6499
15121TIP3    H266779   2.794   3.333   5.514 -0.8154 -1.8531 -0.9869
15122TIP3   OH266780   5.123   5.390   1.265 -0.2770  0.3719 -0.1248
15122TIP3    H166781   5.182   5.450   1.220 -1.0166 -0.1317 -1.8351
15122TIP3    H266782   5.119   5.423   1.355  0.8382  1.7145 -0.5358
15123TIP3   OH266783   5.916   6.139   0.395  0.2274  0.3600  0.0644
15123TIP3    H166784   5.954   6.052   0.400  0.8131  0.5845 -0.2915
15123TIP3    H266785   5.924   6.175   0.483 -0.0251  0.0476  0.2127
15124TIP3   OH266786   2.844   6.310   5.222  0.5286  0.3332 -0.0854
15124TIP3    H166787   2.838   6.405   5.213  0.5038  0.3340 -0.0618
15124TIP3    H266788   2.795   6.290   5.302  1.9804  0.4736  0.8561
15125TIP3   OH266789   3.947   3.403  13.544 -0.8419 -0.2749  0.2133
15125TIP3    H166790   4.025   3.451  13.519 -1.5181  0.7110 -0.0425
15125TIP3    H266791   3.970   3.360  13.626 -1.2398  3.2539  2.3823
15126TIP3   OH266792   4.058   3.727  11.662 -0.5872 -0.1402  0.4812
15126TIP3    H166793   3.963   3.714  11.662 -0.7579  0.9890 -0.3480
15126TIP3    H266794   4.070   3.818  11.690  0.1099  0.4536 -1.5854
15127TIP3   OH266795   0.688   1.432  12.558  0.0962 -0.2642  0.0395
15127TIP3    H166796   0.672   1.520  12.523  2.3956  1.1760  2.2809
15127TIP3    H266797   0.687   1.375  12.481 -2.3096  1.5283 -1.3836
15128TIP3   OH266798   6.275   6.138  12.467  0.6283 -0.4373 -0.5531
15128TIP3    H166799   6.200   6.190  12.436  0.0657  0.6298  2.3083
15128TIP3    H266800   6.312   6.101  12.387 -2.3480 -0.2277 -2.1906
15129TIP3   OH266801   1.442   0.447  12.690  0.2120 -0.4845  0.0051
15129TIP3    H166802   1.494   0.385  12.638 -1.1037 -1.6365 -0.0156
15129TIP3    H266803   1.373   0.393  12.729 -2.2936  1.2574 -1.7244
15130TIP3   OH266804   6.676   3.850   0.190  0.1969  0.2200  0.1651
15130TIP3    H166805   6.605   3.788   0.210 -0.3765 -0.0076 -2.2836
15130TIP3    H266806   6.653   3.929   0.240 -0.7009 -0.5121  0.9585
15131TIP3   OH266807   5.039   3.771  15.040  0.1959  0.0926  0.1409
15131TIP3    H166808   5.075   3.689  15.073  1.0952  0.5712  0.3556
15131TIP3    H266809   4.951   3.747  15.009  0.9073 -1.2130 -0.9729
15132TIP3   OH266810   2.837   3.904   5.956 -0.0189 -0.3096 -0.0007
15132TIP3    H166811   2.849   3.827   5.901  0.9562 -0.3355  0.2212
15132TIP3    H266812   2.760   3.885   6.009  0.6855 -1.4913  0.6242
15133TIP3   OH266813   0.075   5.342  14.561 -0.5175 -0.0925 -0.0327
15133TIP3    H166814   0.026   5.376  14.635 -0.5136 -0.5290  0.1726
15133TIP3    H266815   0.029   5.262  14.536  0.7269 -1.1240  0.8763
15134TIP3   OH266816   6.087   0.301   1.125  0.2497 -0.3486  0.2745
15134TIP3    H166817   6.077   0.209   1.102  1.2485 -0.7589  1.3872
15134TIP3    H266818   6.082   0.303   1.221 -0.8471  0.9029  0.2170
15135TIP3   OH266819   2.308   6.012   3.820 -0.2100 -0.1985 -0.6702
15135TIP3    H166820   2.249   6.040   3.890  0.2125  0.5405 -0.6005
15135TIP3    H266821   2.395   6.015   3.860  0.0308  0.1824 -1.2116
15136TIP3   OH266822   4.606   0.302   2.399  0.1437  0.1411 -0.4937
15136TIP3    H166823   4.681   0.293   2.459  0.4844  2.3081 -0.5006
15136TIP3    H266824   4.535   0.333   2.455 -0.0277  0.5061 -0.9160
15137TIP3   OH266825   4.299   3.006   5.993 -0.1273  0.1121 -0.0098
15137TIP3    H166826   4.376   3.006   6.050 -0.9884 -0.5050  1.2066
15137TIP3    H266827   4.230   2.966   6.047 -1.3243  0.7569 -1.0244
15138TIP3   OH266828   0.081   4.980   2.973  0.0793  0.2786 -0.1164
15138TIP3    H166829   0.170   5.012   2.957 -0.6214  1.6618 -1.4955
15138TIP3    H266830   0.078   4.895   2.929  0.4380  0.6619 -0.8970
15139TIP3   OH266831   4.671   0.615   2.454  0.3073 -0.0689 -0.2792
15139TIP3    H166832   4.667   0.686   2.518  1.7145 -0.2957  0.1018
15139TIP3    H266833   4.764   0.612   2.429  0.0566 -1.0393 -1.1282
15140TIP3   OH266834   3.608   4.295   3.197  0.2006  0.6006  0.4117
15140TIP3    H166835   3.675   4.266   3.135 -0.1053 -0.6238  0.6306
15140TIP3    H266836   3.656   4.311   3.278  0.1413 -1.2045  0.8485
15141TIP3   OH266837   1.197   2.658   2.035 -0.5905 -0.2138  0.5477
15141TIP3    H166838   1.214   2.566   2.019 -1.1085 -0.2063 -0.0821
15141TIP3    H266839   1.110   2.659   2.075 -0.1839 -0.0677  1.4509
15142TIP3   OH266840   4.299   4.462   1.294 -0.1350 -0.1923  0.8198
15142TIP3    H166841   4.321   4.526   1.362  1.0807  0.3692 -0.0648
15142TIP3    H266842   4.306   4.377   1.338  0.1342  0.1782  1.5151
15143TIP3   OH266843   4.902   1.793  17.222  0.0080  0.0063 -0.4496
15143TIP3    H166844   4.911   1.885  17.195 -1.9862 -0.0676 -1.5837
15143TIP3    H266845   4.886   1.746  17.140 -2.1810 -0.8645  0.4125
15144TIP3   OH266846   5.915   4.141  13.146  0.0966 -0.0260  0.2074
15144TIP3    H166847   5.865   4.116  13.068 -2.3496 -1.1725  1.9887
15144TIP3    H266848   5.986   4.077  13.150  1.5243  1.2721 -2.0664
15145TIP3   OH266849   3.293   4.950   5.479 -0.4686 -0.3249 -0.0959
15145TIP3    H166850   3.243   4.991   5.409  1.5944  1.8602 -0.3943
15145TIP3    H266851   3.270   4.999   5.558 -0.8236 -1.1105  0.3105
15146TIP3   OH266852   2.467   2.697  16.797 -0.3747 -0.0906 -0.4598
15146TIP3    H166853   2.408   2.772  16.791 -0.1680  0.0247 -1.0777
15146TIP3    H266854   2.472   2.663  16.708  1.8410  0.9512 -0.8195
15147TIP3   OH266855   6.139   4.235   5.577 -0.1420  0.2961 -0.4855
15147TIP3    H166856   6.159   4.143   5.559 -3.2237 -0.5602  0.0305
15147TIP3    H266857   6.141   4.242   5.672 -0.5649  0.6091 -0.4979
15148TIP3   OH266858   5.492   0.187   3.433 -0.0792 -0.2968  0.5597
15148TIP3    H166859   5.516   0.251   3.366  1.7883  0.9176  2.2562
15148TIP3    H266860   5.397   0.183   3.429 -0.0281 -1.1886 -2.8951
15149TIP3   OH266861   5.400   2.455  17.167 -0.4218 -0.0421  0.2721
15149TIP3    H166862   5.366   2.477  17.080  0.6093  2.1408  0.3452
15149TIP3    H266863   5.391   2.359  17.173 -1.0131 -0.1884 -2.0105
15150TIP3   OH266864   0.611   1.578   4.790 -0.0055 -0.2381 -0.0552
15150TIP3    H166865   0.525   1.575   4.749 -0.7682  1.1009  1.3470
15150TIP3    H266866   0.593   1.596   4.882  1.7697 -0.2907  0.3309
15151TIP3   OH266867   2.559   2.959  14.566 -0.5465 -0.0513 -0.2171
15151TIP3    H166868   2.588   2.941  14.656 -0.9329 -1.5636 -0.3674
15151TIP3    H266869   2.502   3.035  14.574 -0.8595 -0.3827  0.8946
15152TIP3   OH266870   0.163   4.620   3.628 -0.3207 -0.3615 -0.2087
15152TIP3    H166871   0.126   4.626   3.717  0.7083  0.4997  0.1763
15152TIP3    H266872   0.195   4.530   3.622  0.9301 -0.0259  0.8640
15153TIP3   OH266873   5.154   3.464  12.225  0.3975 -0.2557  0.0615
15153TIP3    H166874   5.206   3.420  12.293  0.0657  0.3258  0.6976
15153TIP3    H266875   5.219   3.506  12.169  0.6645 -0.5597  0.1367
15154TIP3   OH266876   5.125   5.957  16.440  0.5357  0.4581  0.7549
15154TIP3    H166877   5.062   5.896  16.477  1.8070 -1.0535  0.5761
15154TIP3    H266878   5.082   5.993  16.363  0.2868 -1.4494 -0.0574
15155TIP3   OH266879   5.034   4.216   0.316 -0.1876  0.4693 -0.4336
15155TIP3    H166880   4.949   4.257   0.302 -0.2442  0.0759 -1.3797
15155TIP3    H266881   5.083   4.279   0.369 -0.8986  0.9122 -0.2870
15156TIP3   OH266882   2.479   6.661   4.635 -0.2096 -0.5031 -0.5875
15156TIP3    H166883   2.557   6.609   4.614  0.3856 -0.3830  1.2195
15156TIP3    H266884   2.501   6.750   4.608  0.2366 -0.4956 -0.2102
15157TIP3   OH266885   6.508   1.842   1.860  0.1493  0.8619  0.8537
15157TIP3    H166886   6.447   1.877   1.795  0.8454  1.5008  0.5395
15157TIP3    H266887   6.579   1.905   1.864  0.4859  0.4494  1.6953
15158TIP3   OH266888   4.652   2.856   4.763 -0.0909 -0.4924  0.1476
15158TIP3    H166889   4.667   2.762   4.758  0.0078 -0.4008 -2.3055
15158TIP3    H266890   4.561   2.868   4.734 -0.3711  0.1207  1.2192
15159TIP3   OH266891   4.621   3.883  15.017 -0.6731  0.3108 -0.0763
15159TIP3    H166892   4.687   3.833  14.971  0.3292  0.4797  1.1303
15159TIP3    H266893   4.538   3.853  14.980 -0.0781 -1.7617  0.1358
15160TIP3   OH266894   5.926   6.710   4.349 -0.2365  0.3948 -0.0601
15160TIP3    H166895   6.001   6.768   4.334 -0.2308  0.5454  0.5277
15160TIP3    H266896   5.853   6.770   4.362 -0.5536  0.2441 -1.0687
15161TIP3   OH266897   1.475   6.309  15.522 -0.2149  0.1024  0.0795
15161TIP3    H166898   1.445   6.333  15.434 -0.4261 -0.0910  0.1002
15161TIP3    H266899   1.565   6.280  15.509 -0.4550 -0.5479 -0.1679
15162TIP3   OH266900   4.447   3.833   1.339 -0.4112 -0.1655 -0.1646
15162TIP3    H166901   4.434   3.903   1.275 -1.1986 -1.6956 -1.7503
15162TIP3    H266902   4.521   3.783   1.305 -0.1341 -0.3632  0.7161
15163TIP3   OH266903   5.177   3.870  13.331 -0.1249 -0.7260  0.0070
15163TIP3    H166904   5.165   3.776  13.320 -1.5468 -0.5762  0.1947
15163TIP3    H266905   5.272   3.882  13.331  0.0719 -2.1716  0.1251
15164TIP3   OH266906   6.249   3.776   3.583 -0.4326 -0.2681 -0.0505
15164TIP3    H166907   6.303   3.776   3.503 -0.3456  0.4151 -0.0018
15164TIP3    H266908   6.311   3.796   3.653 -0.8435  1.3087 -0.0855
15165TIP3   OH266909   2.055   3.874  16.983 -0.2417 -0.3907  0.0708
15165TIP3    H166910   2.120   3.943  17.002  1.8224 -1.5013 -2.3705
15165TIP3    H266911   2.099   3.793  17.008 -1.2401 -1.0787 -0.3551
15166TIP3   OH266912   2.248   2.206  14.718  0.1616  0.5733  0.0903
15166TIP3    H166913   2.270   2.163  14.801 -1.4138  0.8213  0.6886
15166TIP3    H266914   2.181   2.271  14.742  2.2090  3.1808 -0.8221
15167TIP3   OH266915   1.576   5.555  15.914 -0.0778 -0.7152 -0.3415
15167TIP3    H166916   1.640   5.485  15.899  1.0771  0.6332 -2.0644
15167TIP3    H266917   1.624   5.620  15.965 -0.4627 -0.2381 -0.5883
15168TIP3   OH266918   0.852   1.443  10.840  0.0251 -0.4380 -0.3688
15168TIP3    H166919   0.892   1.365  10.801 -0.2041 -0.4140 -0.6588
15168TIP3    H266920   0.764   1.446  10.802  0.0474 -0.0161 -0.3922
15169TIP3   OH266921   2.686   6.215  11.808  0.0632 -0.0846 -0.1523
15169TIP3    H166922   2.630   6.138  11.801 -0.4847  0.2459  0.5210
15169TIP3    H266923   2.632   6.281  11.852  0.6506  0.5637 -0.3743
15170TIP3   OH266924   2.410   0.132  15.678 -0.4738 -0.1026 -0.1444
15170TIP3    H166925   2.364   0.061  15.722 -0.7906 -0.1576 -0.5573
15170TIP3    H266926   2.503   0.108  15.686 -0.5475 -0.2956  0.1660
15171TIP3   OH266927   1.659   3.970  17.090  0.2127  0.0128  1.1574
15171TIP3    H166928   1.696   4.013  17.167  0.6490 -0.1187  1.0277
15171TIP3    H266929   1.671   4.033  17.019  0.5533 -0.1831  1.0347
15172TIP3   OH266930   5.361   2.921   5.279 -0.0970 -0.4566 -0.0287
15172TIP3    H166931   5.293   2.895   5.217  0.2785  0.6894 -0.9475
15172TIP3    H266932   5.313   2.942   5.360 -0.6249 -1.5580 -0.0481
15173TIP3   OH266933   0.167   5.163  15.380  0.5326 -0.2303 -0.1601
15173TIP3    H166934   0.242   5.120  15.420  0.7749  0.2286 -0.1103
15173TIP3    H266935   0.196   5.183  15.291 -0.0992 -1.4929 -0.6710
15174TIP3   OH266936   3.780   0.919   3.045 -0.4564  0.1397 -0.9546
15174TIP3    H166937   3.801   0.931   2.952 -1.3862  0.9472 -1.0768
15174TIP3    H266938   3.687   0.938   3.051 -0.8043 -1.6399 -0.1403
15175TIP3   OH266939   4.940   3.934   3.434 -0.0067 -0.2022 -0.1037
15175TIP3    H166940   5.026   3.956   3.469 -0.0260 -0.0113 -0.1762
15175TIP3    H266941   4.891   4.016   3.437 -0.3840 -0.4453  0.4983
15176TIP3   OH266942   1.783   6.393   3.252 -0.2578 -0.2175  0.3595
15176TIP3    H166943   1.703   6.419   3.299  0.0134  1.7866 -0.1900
15176TIP3    H266944   1.753   6.331   3.186 -0.5871 -3.5797  3.3951
15177TIP3   OH266945   5.519   0.604   5.010  0.6716  0.9399 -0.6682
15177TIP3    H166946   5.610   0.616   5.037  0.0938  0.5862  1.6243
15177TIP3    H266947   5.505   0.672   4.944  2.2682  1.7443 -0.2328
15178TIP3   OH266948   5.088   5.820   0.772 -0.3090  0.5502 -0.7272
15178TIP3    H166949   5.117   5.888   0.710  2.6859 -0.4837 -0.6536
15178TIP3    H266950   5.118   5.738   0.732 -0.3965 -0.3610  0.9972
15179TIP3   OH266951   0.610   3.538   2.624 -0.3577  0.0775  0.4563
15179TIP3    H166952   0.540   3.553   2.561 -1.4101 -2.1041  0.9942
15179TIP3    H266953   0.689   3.573   2.582 -1.4738  1.0678 -0.8884
15180TIP3   OH266954   5.840   2.182  11.838  0.2420 -0.1738  0.4138
15180TIP3    H166955   5.870   2.231  11.915 -1.1631  0.3937  0.6338
15180TIP3    H266956   5.889   2.218  11.765  0.9158 -0.0684  0.9148
15181TIP3   OH266957   5.317   0.526   2.051  0.1873  0.3695 -0.1393
15181TIP3    H166958   5.351   0.446   2.010 -1.1053  0.6882 -1.9397
15181TIP3    H266959   5.368   0.597   2.011 -0.3141  0.6050 -0.3671
15182TIP3   OH266960   0.931   4.350  10.815  0.5372 -0.1887 -0.0579
15182TIP3    H166961   0.836   4.351  10.817  0.5340 -0.4071 -0.0659
15182TIP3    H266962   0.958   4.380  10.901  0.4791  2.6425 -0.9307
15183TIP3   OH266963   6.600   6.508   4.778  0.4782  0.1720  0.1704
15183TIP3    H166964   6.635   6.530   4.691  1.3271  0.9625  0.6910
15183TIP3    H266965   6.646   6.427   4.801 -0.2486 -0.4112 -0.3898
15184TIP3   OH266966   4.710   6.654   3.340  0.3487 -0.1558 -0.1251
15184TIP3    H166967   4.781   6.665   3.276 -0.3902  1.1149 -0.7508
15184TIP3    H266968   4.673   6.568   3.319  0.6460 -0.1117 -0.8575
15185TIP3   OH266969   2.584   5.810   3.102  0.2948  0.1333 -0.3738
15185TIP3    H166970   2.496   5.793   3.069  1.2564  1.1431 -3.9552
15185TIP3    H266971   2.620   5.724   3.122 -0.8471 -0.4389 -0.7043
15186TIP3   OH266972   0.002   0.764   5.145  0.3117  0.0141  0.0830
15186TIP3    H166973   0.050   0.682   5.129 -0.0764 -0.3078  0.5092
15186TIP3    H266974  -0.081   0.753   5.098  0.4565  0.3667 -0.2567
15187TIP3   OH266975   3.125   1.829  14.285  0.6569 -0.3701 -0.4067
15187TIP3    H166976   3.192   1.801  14.224  2.2376  2.0818  0.0675
15187TIP3    H266977   3.173   1.868  14.358 -1.2687  0.9575  0.2374
15188TIP3   OH266978   4.447   6.039  15.279 -0.6825 -0.0416  0.0889
15188TIP3    H166979   4.439   6.064  15.187  3.5740  0.5016 -0.3085
15188TIP3    H266980   4.528   6.079  15.309  0.1703 -3.3414  2.9513
15189TIP3   OH266981   6.346   0.236  16.220 -0.0058  0.0179  0.5552
15189TIP3    H166982   6.331   0.324  16.185  0.5361  1.1549  2.9466
15189TIP3    H266983   6.364   0.182  16.143  0.4711  2.1629 -0.9241
15190TIP3   OH266984   1.643   1.366   1.707 -0.1231  0.2381  0.6835
15190TIP3    H166985   1.597   1.285   1.728 -0.6607  0.2524 -0.3614
15190TIP3    H266986   1.668   1.402   1.792  2.2218 -2.1749  1.1743
15191TIP3   OH266987   3.397   2.879   4.093 -0.1142 -0.0838  0.3544
15191TIP3    H166988   3.335   2.807   4.101  1.5409 -1.7537 -1.0861
15191TIP3    H266989   3.483   2.839   4.103  0.8152  2.0989  1.9190
15192TIP3   OH266990   3.998   3.913  14.595  0.2627  0.2494 -0.1904
15192TIP3    H166991   4.081   3.941  14.557  1.3891 -1.1066  1.1943
15192TIP3    H266992   3.991   3.820  14.572 -0.8742  0.3418 -0.2772
15193TIP3   OH266993   5.190   1.078  16.990  1.4738 -0.2422  0.1182
15193TIP3    H166994   5.212   1.030  17.070  2.2172 -0.9574 -0.4984
15193TIP3    H266995   5.125   1.023  16.947  0.7080  0.3841  0.4622
15194TIP3   OH266996   3.584   2.953  13.796  0.3729  0.1866 -0.2737
15194TIP3    H166997   3.531   2.932  13.873 -1.4532  0.7604 -1.3294
15194TIP3    H266998   3.602   2.867  13.756 -2.4994  0.0831 -1.6072
15195TIP3   OH266999   0.865   0.259   0.406  0.0577  0.2049 -0.2157
15195TIP3    H167000   0.813   0.179   0.415  0.7701 -0.2619 -0.2188
15195TIP3    H267001   0.901   0.255   0.318  1.2154 -0.1630  0.2603
15196TIP3   OH267002   4.567   2.540  11.397 -0.7167  0.2335 -0.5794
15196TIP3    H167003   4.479   2.564  11.370 -1.5944 -2.5402 -0.5310
15196TIP3    H267004   4.614   2.525  11.315 -0.9004 -0.1540 -0.6190
15197TIP3   OH267005   1.118   0.809  12.446  0.1047  0.1035  0.3614
15197TIP3    H167006   1.125   0.764  12.530 -0.7037 -0.3291  0.2088
15197TIP3    H267007   1.176   0.760  12.388  1.3414  0.9275  0.8656
15198TIP3   OH267008   2.194   6.291  15.285 -0.2640 -0.4385  0.0369
15198TIP3    H167009   2.122   6.231  15.267 -0.6821 -0.5200  1.7308
15198TIP3    H267010   2.168   6.373  15.242 -0.3854 -1.0319 -1.0512
15199TIP3   OH267011   0.096   3.332  11.685  0.2448 -0.2275  0.0829
15199TIP3    H167012   0.150   3.380  11.748 -0.0379 -3.2488  2.9242
15199TIP3    H267013   0.160   3.293  11.624  0.8124  0.3509  0.2967
15200TIP3   OH267014   0.743   6.533   2.978  0.0286 -0.3552 -0.0564
15200TIP3    H167015   0.731   6.441   2.957  1.7929 -0.5240 -0.4704
15200TIP3    H267016   0.782   6.571   2.899  0.8552  0.3774  0.6790
15201TIP3   OH267017   5.245   2.385  12.189 -0.1228  0.8128  0.0960
15201TIP3    H167018   5.320   2.445  12.185  1.5441 -1.1911 -0.7570
15201TIP3    H267019   5.246   2.351  12.278  0.4687  0.2342 -0.1254
15202TIP3   OH267020   2.867   5.734  15.892  0.3458 -0.4178  0.0317
15202TIP3    H167021   2.844   5.824  15.867  1.1718 -0.1169  0.3476
15202TIP3    H267022   2.870   5.736  15.987  3.4134  0.0251  0.0141
15203TIP3   OH267023   0.346   1.678  13.397 -0.0677  0.1357  0.1605
15203TIP3    H167024   0.302   1.697  13.314 -1.4008  0.7938  0.9844
15203TIP3    H267025   0.417   1.741  13.401 -0.6144  0.7758 -0.0250
15204TIP3   OH267026   2.857   6.729  13.137  0.4481 -0.1019 -0.3984
15204TIP3    H167027   2.796   6.705  13.206  0.0984 -0.4869 -0.8314
15204TIP3    H267028   2.846   6.823  13.126  1.3422  0.1839  0.8506
15205TIP3   OH267029   4.551   2.122   0.316 -0.2673  0.0789  0.5815
15205TIP3    H167030   4.621   2.169   0.270 -0.4187 -2.7535 -2.9622
15205TIP3    H267031   4.471   2.150   0.274 -0.5054 -1.9124 -0.4184
15206TIP3   OH267032   0.972   1.232   0.308 -0.3655  0.5106 -0.1521
15206TIP3    H167033   1.022   1.160   0.269  0.3704 -0.4088  2.2793
15206TIP3    H267034   0.903   1.250   0.244  0.9300 -0.6041 -1.9900
15207TIP3   OH267035   1.177   2.939   2.006  0.1346 -0.1236  0.4454
15207TIP3    H167036   1.170   2.949   2.101  0.6009  0.1088  0.4617
15207TIP3    H267037   1.165   2.845   1.990  1.5679 -0.4045  0.8902
15208TIP3   OH267038   3.454   3.144  13.617 -0.5332 -0.0846  0.3525
15208TIP3    H167039   3.501   3.093  13.683  1.2155  0.7241 -0.2015
15208TIP3    H267040   3.492   3.116  13.534 -1.8592 -0.2180 -0.2247
15209TIP3   OH267041   2.756   0.509   1.075  0.3381 -0.0881  0.2477
15209TIP3    H167042   2.674   0.469   1.047  0.2439  1.6843 -2.3288
15209TIP3    H267043   2.744   0.526   1.169 -1.7971 -0.8147  0.1626
15210TIP3   OH267044   1.531   2.987   4.303 -0.0727 -0.2206 -0.4141
15210TIP3    H167045   1.521   3.081   4.290 -1.3880 -0.3495 -0.4915
15210TIP3    H267046   1.442   2.955   4.319  0.5848 -1.1582  1.7111
15211TIP3   OH267047   6.288   2.755  11.174 -0.4018 -0.6839 -0.0215
15211TIP3    H167048   6.344   2.822  11.214 -0.5729  0.0491 -0.9750
15211TIP3    H267049   6.265   2.696  11.246 -0.1838  0.2446  0.8192
15212TIP3   OH267050   6.031   5.839  13.668  0.3254  0.4975  0.9347
15212TIP3    H167051   6.006   5.904  13.603  2.1347  2.2552  1.9138
15212TIP3    H267052   5.957   5.778  13.670 -1.0736  2.0464 -0.6163
15213TIP3   OH267053   3.339   6.228  14.756  0.2348 -0.4972  0.0031
15213TIP3    H167054   3.333   6.261  14.845  1.9431 -0.0647 -0.0063
15213TIP3    H267055   3.377   6.301  14.706 -0.2150 -0.9146 -0.9710
15214TIP3   OH267056   0.278   4.501   0.030 -0.5097  0.1929 -0.4151
15214TIP3    H167057   0.201   4.473  -0.020  0.6869  0.0926 -2.2922
15214TIP3    H267058   0.286   4.595   0.012  1.0514 -0.1994 -2.1315
15215TIP3   OH267059   5.052   1.564   3.770 -0.2709 -0.1705 -0.0098
15215TIP3    H167060   5.050   1.475   3.734 -0.6083 -0.4614  0.7004
15215TIP3    H267061   5.136   1.600   3.740 -0.2836 -0.6047 -0.5885
15216TIP3   OH267062   1.856   2.284   4.379  1.0869  0.0610 -0.0833
15216TIP3    H167063   1.796   2.283   4.453  0.7957  1.7321 -0.2459
15216TIP3    H267064   1.802   2.260   4.304  1.1229 -0.5158  0.0697
15217TIP3   OH267065   1.716   4.550   4.578 -0.1769  0.4118 -0.3360
15217TIP3    H167066   1.680   4.525   4.493 -1.2325  0.6462  0.0208
15217TIP3    H267067   1.692   4.642   4.588 -0.7263  0.1913  0.5261
15218TIP3   OH267068   5.594   6.365  13.742 -0.9244  0.0910  0.4469
15218TIP3    H167069   5.523   6.429  13.728  0.6123  1.6347 -0.7758
15218TIP3    H267070   5.620   6.378  13.833  0.2206  2.2594 -0.1066
15219TIP3   OH267071   3.048   1.453  15.351  0.0158  0.6365  0.2652
15219TIP3    H167072   2.956   1.429  15.358  0.0370  0.4554 -0.0579
15219TIP3    H267073   3.051   1.547  15.372 -0.1321  0.4739  1.0496
15220TIP3   OH267074   5.020   0.994  13.631 -0.1570  0.5558 -0.7626
15220TIP3    H167075   5.039   0.942  13.709 -0.8357  1.1566 -0.1833
15220TIP3    H267076   5.083   1.066  13.634 -1.9145  2.1440  0.7709
15221TIP3   OH267077   0.605   1.046  15.651 -0.2182 -0.5094 -0.7351
15221TIP3    H167078   0.669   1.030  15.582  0.1308 -0.4970 -0.4158
15221TIP3    H267079   0.555   0.965  15.657  1.0430 -1.2452  0.3539
15222TIP3   OH267080   1.094   5.216   6.161  0.6165  0.4496 -0.5265
15222TIP3    H167081   1.037   5.142   6.178 -0.1797  1.0260 -0.6283
15222TIP3    H267082   1.135   5.235   6.245 -0.2577  0.7780 -0.1671
15223TIP3   OH267083   6.499   3.350  14.191 -0.1806 -0.7671  0.0503
15223TIP3    H167084   6.410   3.342  14.227  0.0517 -0.1968  0.7714
15223TIP3    H267085   6.495   3.426  14.133  0.5939  1.3604  2.5825
15224TIP3   OH267086   0.006   5.157  14.778 -0.5363 -0.6891  0.7447
15224TIP3    H167087   0.040   5.102  14.707 -0.3450 -1.1527  1.1824
15224TIP3    H267088   0.072   5.225  14.790 -2.1231  1.4485 -1.7703
15225TIP3   OH267089   4.704   0.538   5.052 -0.0436 -0.2530  0.3181
15225TIP3    H167090   4.662   0.587   5.123 -1.6523  1.1191 -1.4627
15225TIP3    H267091   4.678   0.584   4.973  1.7013 -1.7092 -1.1965
15226TIP3   OH267092   1.195   4.228  12.216  0.0552  0.4646  0.0222
15226TIP3    H167093   1.234   4.166  12.278  1.3691  0.8667 -0.3715
15226TIP3    H267094   1.146   4.172  12.155  0.2963 -0.0970  0.3325
15227TIP3   OH267095   3.418   3.097  15.921 -0.1753  0.4401  0.1394
15227TIP3    H167096   3.407   3.119  15.828 -0.1319 -0.0797  0.0047
15227TIP3    H267097   3.503   3.134  15.945  0.5526 -0.7660 -0.4596
15228TIP3   OH267098   0.164   2.283  15.213 -0.2638 -0.1634 -0.0845
15228TIP3    H167099   0.136   2.371  15.188 -1.0157  0.1226  1.6272
15228TIP3    H267100   0.102   2.225  15.168 -1.0424  0.2812  0.3893
15229TIP3   OH267101   5.610   2.878  16.600  0.1678 -0.1662 -0.0244
15229TIP3    H167102   5.549   2.899  16.528  0.2850 -0.0526 -0.0914
15229TIP3    H267103   5.556   2.881  16.679  0.2745  0.8724  0.0252
15230TIP3   OH267104   1.908   2.364  10.680  0.2387  0.1298 -0.2173
15230TIP3    H167105   1.904   2.269  10.668 -0.0556  0.0485  0.4762
15230TIP3    H267106   1.826   2.397  10.644  0.6265  0.1978 -1.0620
15231TIP3   OH267107   5.432   0.198   6.415 -0.2905  0.2978 -0.2856
15231TIP3    H167108   5.471   0.189   6.502 -0.4139 -1.1808 -0.3669
15231TIP3    H267109   5.338   0.193   6.430 -0.2869 -0.8432 -0.5839
15232TIP3   OH267110   1.794   5.414  15.835  0.1815  0.2381  0.2023
15232TIP3    H167111   1.785   5.430  15.741  0.8783 -0.4764  0.0088
15232TIP3    H267112   1.831   5.326  15.842 -2.4174 -0.8840  1.2237
15233TIP3   OH267113   3.996   2.637   1.703 -0.3111  0.3143  0.3494
15233TIP3    H167114   4.035   2.557   1.667  0.7807  0.5640  0.9418
15233TIP3    H267115   4.045   2.654   1.783 -0.1566  1.8933 -0.0525
15234TIP3   OH267116   2.208   5.019  11.848  0.1072  0.2458  0.1304
15234TIP3    H167117   2.178   4.929  11.850  0.2534  0.1969  0.1833
15234TIP3    H267118   2.129   5.071  11.838  0.1486  0.0389 -1.6984
15235TIP3   OH267119   0.250   1.754  16.092  0.4835  0.7726 -0.6740
15235TIP3    H167120   0.191   1.681  16.071  0.0529  0.2807  1.8835
15235TIP3    H267121   0.202   1.832  16.064 -0.0084  0.1929 -1.4749
15236TIP3   OH267122   4.967   6.403  12.966  0.2634 -0.0448 -0.0453
15236TIP3    H167123   4.951   6.311  12.947  1.3122 -0.2470  0.0288
15236TIP3    H267124   4.977   6.406  13.061  2.3177 -0.2120 -0.2174
15237TIP3   OH267125   1.517   4.796   6.159  0.3629  0.0681  0.0631
15237TIP3    H167126   1.424   4.806   6.179  0.5264  1.7682  0.1343
15237TIP3    H267127   1.519   4.738   6.083 -0.8390  0.7789 -0.5493
15238TIP3   OH267128   2.995   5.285   4.270 -0.3023  0.7826 -0.1043
15238TIP3    H167129   2.982   5.317   4.359 -0.3937 -1.5621  0.7939
15238TIP3    H267130   2.907   5.276   4.234 -0.5571 -1.6679  0.9252
15239TIP3   OH267131   1.435   3.962  14.492 -0.3575 -0.3968  0.1751
15239TIP3    H167132   1.431   3.888  14.431 -0.1307 -0.4667  0.2413
15239TIP3    H267133   1.473   3.924  14.572  2.4613  0.3633 -0.6933
15240TIP3   OH267134   2.180   4.093   3.239  0.2914  0.6972  0.2897
15240TIP3    H167135   2.234   4.014   3.244 -0.4952  0.2104  3.4901
15240TIP3    H267136   2.238   4.159   3.200  1.5441 -0.9742 -0.8244
15241TIP3   OH267137   3.533   5.743   6.220  0.6519  0.4955  0.7817
15241TIP3    H167138   3.493   5.806   6.161 -1.0895 -2.2332 -1.1996
15241TIP3    H267139   3.612   5.713   6.174 -0.4343 -1.2601 -0.0578
15242TIP3   OH267140   5.468   6.086  11.600 -0.3698  0.4763 -0.6885
15242TIP3    H167141   5.478   6.065  11.508  1.2899 -0.8203 -0.2609
15242TIP3    H267142   5.540   6.040  11.644 -1.3707  0.6643  1.3037
15243TIP3   OH267143   2.454   0.021   6.495 -0.2876 -0.1341  0.2889
15243TIP3    H167144   2.431  -0.071   6.505 -2.5487  0.3154 -0.2954
15243TIP3    H267145   2.460   0.035   6.401 -0.4335  0.4226  0.3560
15244TIP3   OH267146   2.763   6.524   2.836  0.4285 -0.0921  0.0240
15244TIP3    H167147   2.781   6.448   2.890  2.8054  0.8787  0.7348
15244TIP3    H267148   2.834   6.525   2.771 -0.3646  0.7156 -0.8635
15245TIP3   OH267149   0.728   3.006   5.271 -0.0383  0.3986  0.6117
15245TIP3    H167150   0.769   2.920   5.275  0.2274  0.5330  0.8412
15245TIP3    H267151   0.767   3.048   5.195  1.7808  1.2789  1.9392
15246TIP3   OH267152   1.716   3.598   4.325 -0.4415  1.1790  0.4667
15246TIP3    H167153   1.730   3.666   4.391 -2.0468  1.4014  0.6310
15246TIP3    H267154   1.648   3.542   4.362 -0.9020  0.9215 -0.6999
15247TIP3   OH267155   0.711   1.982  15.884  0.0508  0.0383  0.3605
15247TIP3    H167156   0.682   1.999  15.795  1.3123  0.1739 -0.0512
15247TIP3    H267157   0.639   2.012  15.939 -0.6775  0.1031 -0.6009
15248TIP3   OH267158   2.218   2.279  12.615 -0.3058 -0.0753 -0.4161
15248TIP3    H167159   2.236   2.225  12.693 -1.4016 -1.5666 -1.1432
15248TIP3    H267160   2.286   2.254  12.553  1.8194  2.5678  0.6283
15249TIP3   OH267161   6.252   5.251  13.494  0.1132 -0.1071 -0.3372
15249TIP3    H167162   6.341   5.272  13.465 -0.0612  0.2579 -0.6055
15249TIP3    H267163   6.197   5.265  13.417 -0.1357 -0.6479 -0.2640
15250TIP3   OH267164   2.378   2.642   0.466 -0.1459 -0.0948  0.0351
15250TIP3    H167165   2.364   2.687   0.549  0.0522  0.4573 -0.2218
15250TIP3    H267166   2.466   2.668   0.440 -0.6586  0.7584 -0.9532
15251TIP3   OH267167   2.006   6.677  11.883  0.4145 -0.2886 -0.7502
15251TIP3    H167168   2.078   6.718  11.932 -0.3369  1.0300 -0.6857
15251TIP3    H267169   1.952   6.751  11.855 -1.9219 -1.3342  0.7637
15252TIP3   OH267170   0.833   0.154  14.516 -0.1594 -0.3769  0.1198
15252TIP3    H167171   0.819   0.064  14.488 -1.4604 -0.3775  0.7218
15252TIP3    H267172   0.745   0.188  14.534  0.3326  0.9193  0.1738
15253TIP3   OH267173   1.410   1.907   6.494 -0.2701 -0.4932 -0.4994
15253TIP3    H167174   1.388   1.909   6.587  0.2515  0.3615 -0.3895
15253TIP3    H267175   1.431   1.997   6.472 -1.4617 -0.4856 -1.7175
15254TIP3   OH267176   5.794   5.605  16.577  0.0926 -0.3420 -0.5134
15254TIP3    H167177   5.759   5.563  16.656 -0.1950 -0.2297 -0.5827
15254TIP3    H267178   5.888   5.585  16.580  0.5505  1.7090  1.1449
15255TIP3   OH267179   4.412   1.732  15.703 -0.1262  0.2478 -0.4227
15255TIP3    H167180   4.408   1.758  15.611 -1.1239 -2.2013 -1.1652
15255TIP3    H267181   4.464   1.652  15.703 -0.9353 -0.3141  0.9893
15256TIP3   OH267182   4.423   4.197  16.946 -0.5226  0.0293  0.4765
15256TIP3    H167183   4.444   4.104  16.938 -0.6859 -0.0149  0.5456
15256TIP3    H267184   4.377   4.204  17.029  0.9616  0.4528  1.2901
15257TIP3   OH267185   4.247   0.294   0.543  0.2002 -0.7576 -0.4583
15257TIP3    H167186   4.243   0.387   0.520 -0.8458 -0.9721 -1.1941
15257TIP3    H267187   4.340   0.277   0.557  0.3837  0.4604 -0.0372
15258TIP3   OH267188   3.464   4.785   3.832  0.3505 -0.7651  0.3149
15258TIP3    H167189   3.438   4.757   3.744 -1.8533  1.8277  0.0140
15258TIP3    H267190   3.412   4.730   3.891 -0.3219 -0.5994 -0.1103
15259TIP3   OH267191   1.634   5.077  14.177 -0.5030 -0.2906 -0.5062
15259TIP3    H167192   1.707   5.118  14.223  1.2119 -3.4412 -0.1867
15259TIP3    H267193   1.563   5.077  14.241  0.7593 -1.4685  0.9831
15260TIP3   OH267194   3.074   0.959   4.862 -0.3774  0.1845 -0.0572
15260TIP3    H167195   3.168   0.946   4.866 -0.0443  2.1074 -0.5195
15260TIP3    H267196   3.046   0.962   4.953  0.0350 -0.1821  0.0835
15261TIP3   OH267197   6.359   0.824  16.021 -0.8434  0.0681  0.1720
15261TIP3    H167198   6.421   0.851  15.954 -0.3625  0.3397  0.7129
15261TIP3    H267199   6.278   0.870  15.999 -1.3581 -1.4923 -1.4502
15262TIP3   OH267200   2.415   5.272  14.359  0.0588  0.2305 -0.3646
15262TIP3    H167201   2.499   5.316  14.364 -0.2478  0.8633 -0.6144
15262TIP3    H267202   2.409   5.242  14.268  0.3779 -0.5552 -0.1270
15263TIP3   OH267203   2.098   5.806   2.102  0.0984 -0.4253  0.4093
15263TIP3    H167204   2.116   5.894   2.068  0.3640 -0.4970  0.3610
15263TIP3    H267205   2.002   5.800   2.105  0.0322 -0.7200 -1.1434
15264TIP3   OH267206   5.268   6.399  16.861 -0.0791 -0.2680  0.6885
15264TIP3    H167207   5.259   6.334  16.930  0.0672 -0.8382  0.1821
15264TIP3    H267208   5.359   6.391  16.832  0.1747  0.7122  1.1514
15265TIP3   OH267209   5.275   1.902  13.636 -0.5746  0.0022 -0.3722
15265TIP3    H167210   5.279   1.991  13.602 -1.8705  0.2972  0.1926
15265TIP3    H267211   5.220   1.854  13.573  1.8231 -1.0219 -1.8714
15266TIP3   OH267212   2.128   6.310   4.089  0.3919  0.3850  0.3261
15266TIP3    H167213   2.138   6.400   4.056  0.6905 -0.3014 -1.5417
15266TIP3    H267214   2.203   6.298   4.147  0.3912  1.3118  0.5365
15267TIP3   OH267215   0.346   6.395   1.363  0.2560  0.0487  0.1111
15267TIP3    H167216   0.260   6.376   1.326 -0.2928  0.6839  1.0015
15267TIP3    H267217   0.374   6.475   1.318  1.4810 -1.4059 -1.8869
15268TIP3   OH267218   4.976   0.573  12.343  0.1843  0.1379 -0.3525
15268TIP3    H167219   4.959   0.561  12.249  0.3134  0.9277 -0.4825
15268TIP3    H267220   4.975   0.484  12.379 -0.9089 -0.1003 -0.9256
15269TIP3   OH267221   1.963   3.700  15.441  0.3101  0.4177  0.1369
15269TIP3    H167222   2.005   3.635  15.497 -0.9607  1.0023  1.8503
15269TIP3    H267223   1.877   3.662  15.421 -0.2316  1.3011  0.7104
15270TIP3   OH267224   6.221   1.948   5.615  0.6094  0.1779  0.1851
15270TIP3    H167225   6.201   1.870   5.665  0.0529  0.1535 -0.0664
15270TIP3    H267226   6.148   2.008   5.632  0.8044  0.4666  0.0249
15271TIP3   OH267227   3.441   2.708   2.616 -0.3578  0.2548  0.3089
15271TIP3    H167228   3.359   2.745   2.584  0.8646  0.7651 -2.4767
15271TIP3    H267229   3.426   2.613   2.619 -0.5782  0.1744 -1.8677
15272TIP3   OH267230   0.710   4.189  16.583  0.1343 -0.2895 -0.0603
15272TIP3    H167231   0.741   4.243  16.655 -1.6287  0.9339 -0.1565
15272TIP3    H267232   0.617   4.212  16.573  0.4659  0.0954 -3.1299
15273TIP3   OH267233   0.935   4.152  12.726 -0.3688  0.4394 -0.4404
15273TIP3    H167234   0.996   4.148  12.799 -0.7088  3.1812  0.0985
15273TIP3    H267235   0.878   4.076  12.738  1.5761 -1.0186  0.2106
15274TIP3   OH267236   3.947   6.442  13.204  0.3796 -0.0511  0.2341
15274TIP3    H167237   3.949   6.536  13.221 -0.4910 -0.0293  0.2565
15274TIP3    H267238   4.000   6.431  13.125 -0.3302  0.5998 -0.3566
15275TIP3   OH267239   4.442   3.538  12.365  0.0499 -0.2316 -0.1531
15275TIP3    H167240   4.401   3.484  12.433  2.5704 -1.8856  0.1546
15275TIP3    H267241   4.526   3.497  12.348  0.2710  1.1499 -3.0719
15276TIP3   OH267242   0.235   5.442   4.303 -0.5146  0.1430 -0.3580
15276TIP3    H167243   0.256   5.392   4.225  2.1734  2.6039 -1.4083
15276TIP3    H267244   0.154   5.489   4.281 -1.0997 -0.9823 -0.6772
15277TIP3   OH267245   3.689   3.351   2.850 -0.5290  0.1174 -0.2391
15277TIP3    H167246   3.698   3.268   2.803 -0.8904  0.5805 -1.1586
15277TIP3    H267247   3.644   3.328   2.932  0.3611 -0.7445  0.0175
15278TIP3   OH267248   6.477   5.935  14.527 -0.3742  0.1231  0.6446
15278TIP3    H167249   6.406   5.872  14.528  0.5364 -0.9509  0.0125
15278TIP3    H267250   6.522   5.922  14.610  0.9642 -1.4699 -0.2704
15279TIP3   OH267251   4.443   2.341  11.183  0.3336 -0.2775 -0.7337
15279TIP3    H167252   4.484   2.254  11.175 -2.4273 -1.6052 -1.4350
15279TIP3    H267253   4.389   2.350  11.105 -1.8144  0.7404  0.7866
15280TIP3   OH267254   4.172   5.970  16.626  0.0557  0.1922  0.3477
15280TIP3    H167255   4.199   5.982  16.535 -0.9955 -1.2064 -0.1976
15280TIP3    H267256   4.199   6.050  16.671 -0.9817  1.6904 -1.5817
15281TIP3   OH267257   3.242   6.148  15.179  0.2761 -0.7729 -0.1662
15281TIP3    H167258   3.275   6.133  15.268 -1.3099 -0.4029  0.5215
15281TIP3    H267259   3.171   6.084  15.169 -0.2442 -0.1195 -0.7628
15282TIP3   OH267260   1.088   2.388  13.692  0.0015 -0.1225 -0.2396
15282TIP3    H167261   1.082   2.375  13.787  1.3989 -2.4461 -0.3868
15282TIP3    H267262   1.134   2.471  13.681 -0.0017  0.0742  1.1064
15283TIP3   OH267263   1.233   1.995  13.444  0.0634  0.0327 -0.5242
15283TIP3    H167264   1.163   2.057  13.424  0.9188  1.2959  0.1957
15283TIP3    H267265   1.228   1.984  13.539 -0.3400 -1.3733 -0.6841
15284TIP3   OH267266   3.486   0.378   2.925  0.4642  0.4420 -0.2705
15284TIP3    H167267   3.574   0.345   2.911  0.1707 -1.2856  1.5912
15284TIP3    H267268   3.482   0.400   3.018 -1.4174 -0.7313 -0.0114
15285TIP3   OH267269   3.377   0.429   4.384  0.1270  0.3570 -0.3078
15285TIP3    H167270   3.345   0.512   4.348  1.1626  0.5874 -0.7411
15285TIP3    H267271   3.406   0.451   4.472 -1.1738  0.0734  0.2200
15286TIP3   OH267272   1.216   3.322  15.681 -0.3534 -0.0825 -0.4859
15286TIP3    H167273   1.230   3.403  15.633 -1.6019  0.8938  0.7331
15286TIP3    H267274   1.289   3.318  15.743  0.2044 -0.3711 -1.1490
15287TIP3   OH267275   2.704   0.570   2.591 -0.2489  0.2301 -0.9036
15287TIP3    H167276   2.692   0.484   2.631  0.2719  0.3396 -0.5019
15287TIP3    H267277   2.761   0.553   2.516 -0.3853  0.1835 -0.9978
15288TIP3   OH267278   4.071   0.900  13.872 -0.3984  0.1644 -0.4943
15288TIP3    H167279   4.041   0.981  13.831  1.4018  2.9455  3.0710
15288TIP3    H267280   4.162   0.891  13.846 -0.5246 -0.6212 -0.6991
15289TIP3   OH267281   3.381   5.484  11.073  0.1886 -0.0207 -0.3305
15289TIP3    H167282   3.288   5.474  11.053 -0.2538  1.0961  1.0055
15289TIP3    H267283   3.422   5.501  10.988 -1.1927  1.7604 -0.6989
15290TIP3   OH267284   2.979   6.351   0.343  0.4269  0.3683  0.4505
15290TIP3    H167285   3.028   6.393   0.414  3.3117 -1.3995 -0.3485
15290TIP3    H267286   2.903   6.313   0.387  2.5610 -1.4776  2.8987
15291TIP3   OH267287   0.124   5.445   5.027 -0.0158 -0.0191 -0.4087
15291TIP3    H167288   0.036   5.419   4.999 -0.3158  2.6034 -2.3314
15291TIP3    H267289   0.112   5.534   5.061  1.8101  0.1935 -0.2228
15292TIP3   OH267290   5.799   0.320   2.443 -0.0711  0.0932 -0.0277
15292TIP3    H167291   5.741   0.306   2.518  0.8436  1.3192  0.9429
15292TIP3    H267292   5.763   0.397   2.399 -0.1686 -0.1680 -0.4007
15293TIP3   OH267293   2.492   5.671  13.161  0.3780 -0.5905 -0.3634
15293TIP3    H167294   2.503   5.585  13.203 -0.7600 -0.1524  0.9215
15293TIP3    H267295   2.538   5.663  13.078  1.2476 -2.0839  0.2169
15294TIP3   OH267296   1.393   1.399  14.294  0.5982 -0.0480 -0.0540
15294TIP3    H167297   1.426   1.478  14.250 -1.4985  0.5075 -0.7437
15294TIP3    H267298   1.300   1.398  14.274  0.7120 -3.2635 -0.8600
15295TIP3   OH267299   6.550   5.938   3.029 -0.2817  0.2271  0.4485
15295TIP3    H167300   6.524   6.007   2.968 -1.1009  0.5169  1.1073
15295TIP3    H267301   6.532   5.975   3.116  1.4454  0.0690  0.9174
15296TIP3   OH267302   4.207   4.074   5.716 -0.4983  0.6927  0.1550
15296TIP3    H167303   4.251   4.030   5.789  1.7566  0.5636 -1.1995
15296TIP3    H267304   4.245   4.162   5.714 -0.4287  0.6450 -0.9460
15297TIP3   OH267305   1.512   2.252  16.256  0.0730 -0.5020  0.1501
15297TIP3    H167306   1.508   2.337  16.300  1.1247  0.8322 -2.1439
15297TIP3    H267307   1.547   2.272  16.169  0.1992 -3.2834 -0.5224
15298TIP3   OH267308   4.923   4.285  12.085 -0.7998  0.1922 -0.3001
15298TIP3    H167309   4.937   4.375  12.055  1.1010 -0.0479 -0.2693
15298TIP3    H267310   4.873   4.295  12.166  0.4612  1.3501  0.3949
15299TIP3   OH267311   5.581   3.427   2.166 -0.7604 -0.4297 -0.2249
15299TIP3    H167312   5.584   3.344   2.213 -2.4380 -1.0828 -1.1928
15299TIP3    H267313   5.672   3.445   2.144  0.1119 -0.1090  3.1556
15300TIP3   OH267314   1.442   3.162  17.054  0.2186 -0.3411 -0.6542
15300TIP3    H167315   1.505   3.176  16.984  0.3280  0.1665 -0.4591
15300TIP3    H267316   1.391   3.243  17.057  0.5955 -0.1217  0.2313
15301TIP3   OH267317   0.144   2.322  16.693  0.0445 -0.0189  0.2583
15301TIP3    H167318   0.140   2.256  16.624 -0.4687 -0.7671  0.9907
15301TIP3    H267319   0.145   2.406  16.646 -2.8282 -0.3911 -0.6639
15302TIP3   OH267320   6.259   6.695  12.924 -0.1807 -0.1046 -0.0588
15302TIP3    H167321   6.180   6.735  12.888 -1.1175  0.0135  2.0192
15302TIP3    H267322   6.255   6.604  12.895  0.6911  0.6026 -2.7299
15303TIP3   OH267323   3.625   1.887  13.213 -0.2959  0.1063 -0.2875
15303TIP3    H167324   3.552   1.909  13.272  0.3603 -0.4297  0.7470
15303TIP3    H267325   3.657   1.972  13.183  0.2144  0.4829  1.2055
15304TIP3   OH267326   4.639   0.961  12.512 -0.4604  0.4853 -0.2257
15304TIP3    H167327   4.548   0.977  12.537 -0.0305  0.6141  1.4084
15304TIP3    H267328   4.634   0.892  12.446 -1.7078 -0.1055  0.4442
15305TIP3   OH267329   5.365   0.363   3.143 -0.7260  0.0178  0.2473
15305TIP3    H167330   5.289   0.306   3.141 -1.6926  1.2242 -2.8020
15305TIP3    H267331   5.331   0.446   3.177  0.6075 -0.8652  4.3807
15306TIP3   OH267332   1.838   5.815  16.309  0.2934 -0.3273 -0.0692
15306TIP3    H167333   1.769   5.835  16.372  0.7907 -0.5357  0.5504
15306TIP3    H267334   1.872   5.900  16.283 -0.5974 -0.1889 -0.8508
15307TIP3   OH267335   1.424   6.353   3.143  0.5463 -0.4141  0.4986
15307TIP3    H167336   1.443   6.375   3.234  0.2174  1.2536  0.2088
15307TIP3    H267337   1.418   6.438   3.099  1.1288 -1.1827 -1.1733
15308TIP3   OH267338   2.153   6.224  11.161  0.2983 -0.1349 -0.0127
15308TIP3    H167339   2.240   6.260  11.180  0.5286 -0.3388 -0.6285
15308TIP3    H267340   2.092   6.293  11.185  0.4112 -0.9903  3.1517
15309TIP3   OH267341   6.044   4.783   1.522 -0.6211  0.4702 -0.0041
15309TIP3    H167342   6.119   4.827   1.481  0.1581 -0.4185  0.4266
15309TIP3    H267343   6.033   4.827   1.606 -0.4545  0.4789  0.0135
15310TIP3   OH267344   6.740   2.625  14.499  0.3227  0.1333  0.5583
15310TIP3    H167345   6.701   2.704  14.464 -0.1745 -0.1302  0.5071
15310TIP3    H267346   6.742   2.639  14.594 -1.0049 -0.3241  0.6811
15311TIP3   OH267347   3.411   5.843   0.583 -0.0833  0.1563 -0.2058
15311TIP3    H167348   3.461   5.919   0.611 -0.5255  0.1044  0.7788
15311TIP3    H267349   3.468   5.799   0.520  1.3059 -0.1163  1.1622
15312TIP3   OH267350   2.290   4.499   0.666 -0.0662 -0.1788 -0.1162
15312TIP3    H167351   2.307   4.407   0.687 -1.4613  0.0008  2.2149
15312TIP3    H267352   2.376   4.541   0.673  0.4022 -1.1140 -0.0800
15313TIP3   OH267353   2.822   3.462  13.781  0.3634  0.4781  0.2636
15313TIP3    H167354   2.854   3.534  13.835 -0.9083  1.4414 -0.2189
15313TIP3    H267355   2.751   3.422  13.832  0.6783 -0.0690  0.2823
15314TIP3   OH267356   0.118   3.046   0.858 -0.4672 -0.1087 -0.6910
15314TIP3    H167357   0.195   3.025   0.805  0.5913  0.9217  0.3870
15314TIP3    H267358   0.085   2.961   0.887 -0.6077 -0.6495 -2.3084
15315TIP3   OH267359   2.940   5.588  11.609  0.0544 -0.0017  0.0924
15315TIP3    H167360   2.847   5.566  11.601 -0.1724  0.7173  0.6292
15315TIP3    H267361   2.986   5.508  11.585 -0.6810 -0.0220 -1.3274
15316TIP3   OH267362   5.617   0.816  16.375 -0.3121 -0.2971 -0.0018
15316TIP3    H167363   5.551   0.825  16.305 -1.1354  1.3612  0.9080
15316TIP3    H267364   5.565   0.813  16.455  0.6869 -0.0900  0.6618
15317TIP3   OH267365   2.016   3.401  17.338  0.3865 -0.3405  0.1677
15317TIP3    H167366   1.952   3.376  17.271  0.8554 -3.2783  0.6720
15317TIP3    H267367   1.964   3.417  17.417 -0.0402  1.7713 -0.4743
15318TIP3   OH267368   1.099   0.970  12.014 -0.2380 -0.4745  0.4499
15318TIP3    H167369   1.176   1.000  12.061 -1.4710 -0.2098  2.4366
15318TIP3    H267370   1.036   1.042  12.023 -1.9045 -2.0208  1.9559
15319TIP3   OH267371   5.051   4.934   0.254 -0.3555  0.6361  0.1171
15319TIP3    H167372   4.973   4.899   0.298 -0.8803 -0.1678 -1.3599
15319TIP3    H267373   5.025   5.022   0.226 -1.0880  0.0426 -1.1522
15320TIP3   OH267374   0.102   2.735   2.240  0.3367 -0.3767 -0.4004
15320TIP3    H167375   0.182   2.787   2.246  0.6367 -0.7362 -1.2283
15320TIP3    H267376   0.031   2.800   2.242  0.6702 -0.0117 -0.3959
15321TIP3   OH267377   4.931   4.511   3.498 -0.1537  0.4705 -0.2974
15321TIP3    H167378   4.919   4.442   3.563 -0.9069 -0.3829 -1.3094
15321TIP3    H267379   4.871   4.581   3.525 -1.3255 -0.3594 -0.7119
15322TIP3   OH267380   5.653   6.159   2.255  0.2093  0.0740  0.4570
15322TIP3    H167381   5.688   6.134   2.169 -0.4647 -2.4542  0.8554
15322TIP3    H267382   5.703   6.106   2.318  0.4658  1.6404  1.6372
15323TIP3   OH267383   0.861   0.925  12.393  0.4962 -0.3416 -0.0886
15323TIP3    H167384   0.943   0.878  12.378 -0.1358 -1.2479 -0.8534
15323TIP3    H267385   0.885   1.017  12.391  1.2891 -0.5446 -1.7045
15324TIP3   OH267386   4.841   2.693  12.318 -0.1369  0.0639 -0.0179
15324TIP3    H167387   4.871   2.604  12.337  0.8376 -0.1653 -2.2996
15324TIP3    H267388   4.920   2.747  12.323 -0.4485  0.5359 -0.1057
15325TIP3   OH267389   2.316   1.165   5.769  0.2183 -0.2021 -0.1490
15325TIP3    H167390   2.235   1.214   5.754  0.8716  0.8315 -0.3533
15325TIP3    H267391   2.305   1.127   5.856 -0.0671  0.7718  0.2477
15326TIP3   OH267392   3.332   4.615  11.920 -0.1315 -0.0060  0.4238
15326TIP3    H167393   3.289   4.636  11.837  0.4335 -0.8166 -0.0887
15326TIP3    H267394   3.340   4.699  11.965  0.2100  0.5630 -0.6609
15327TIP3   OH267395   3.364   6.451  11.424  0.3099 -0.5752  0.2346
15327TIP3    H167396   3.276   6.487  11.432 -0.5921 -2.3576 -0.9813
15327TIP3    H267397   3.418   6.526  11.399 -0.3282  1.0562  3.2542
15328TIP3   OH267398   3.812   3.290  15.252  0.1022 -0.0268 -0.3617
15328TIP3    H167399   3.866   3.260  15.179  0.4589  1.4545 -0.7308
15328TIP3    H267400   3.734   3.327  15.211 -0.3309 -0.4187  0.0872
15329TIP3   OH267401   6.334   1.840  15.001  0.1989  0.2966  0.2567
15329TIP3    H167402   6.414   1.820  14.952 -0.1233  0.8418 -0.5155
15329TIP3    H267403   6.359   1.910  15.061  0.0656  1.1886 -0.7057
15330TIP3   OH267404   5.008   0.235   2.907 -0.2001  0.0908 -0.1566
15330TIP3    H167405   4.967   0.149   2.900  0.3507 -0.1547 -0.4178
15330TIP3    H267406   5.026   0.261   2.817 -0.7352  0.6680 -0.1056
15331TIP3   OH267407   4.983   0.535   1.687 -0.2783  0.3745 -0.0626
15331TIP3    H167408   5.026   0.471   1.744 -0.8153  0.6636  0.6918
15331TIP3    H267409   4.952   0.484   1.612 -2.0941 -0.6071  1.2530
15332TIP3   OH267410   3.850   5.150  15.052 -0.6353  0.1155  0.0074
15332TIP3    H167411   3.773   5.099  15.078 -0.3015  0.6579  2.2450
15332TIP3    H267412   3.835   5.237  15.090  0.7930  0.4011 -0.0255
15333TIP3   OH267413   0.754   5.939   0.313  0.4552  0.1349  0.1600
15333TIP3    H167414   0.704   5.989   0.377  0.6034 -2.3156  2.3165
15333TIP3    H267415   0.720   5.850   0.319  2.8812 -0.9316 -0.6059
15334TIP3   OH267416   3.134   2.352  13.007  0.1957  0.5261  0.6716
15334TIP3    H167417   3.071   2.281  13.021  1.8991 -0.9125  1.3981
15334TIP3    H267418   3.183   2.326  12.929  0.3795  1.2658  0.5332
15335TIP3   OH267419   1.702   3.550  13.365 -0.2319  0.1409 -0.1480
15335TIP3    H167420   1.758   3.516  13.435  0.9017  0.0649 -1.0666
15335TIP3    H267421   1.629   3.487  13.360  0.0514 -0.2456  0.4715
15336TIP3   OH267422   3.166   0.053  10.600  0.1055 -0.6878  0.5743
15336TIP3    H167423   3.148  -0.040  10.605  1.5444 -1.2160 -2.0439
15336TIP3    H267424   3.115   0.083  10.524  0.5173  0.4086  0.7137
15337TIP3   OH267425   6.250   5.832   2.500  0.0294 -0.0564  0.5160
15337TIP3    H167426   6.253   5.842   2.595  3.2463 -1.7262  0.7597
15337TIP3    H267427   6.183   5.766   2.484  0.7309 -1.1330  1.8543
15338TIP3   OH267428   4.133   2.144  12.329  0.2115 -0.4206 -0.3037
15338TIP3    H167429   4.073   2.074  12.354 -0.1628  0.1466  0.4610
15338TIP3    H267430   4.219   2.115  12.360 -0.2224  0.2181  1.6912
15339TIP3   OH267431   0.345   1.604   0.482 -0.4376 -0.2616  0.1605
15339TIP3    H167432   0.328   1.697   0.490 -0.7849 -0.2613 -0.5521
15339TIP3    H267433   0.271   1.570   0.432 -0.0600 -0.8349 -0.0145
15340TIP3   OH267434   5.953   0.827   5.618 -0.1550  0.2250 -0.0057
15340TIP3    H167435   5.972   0.734   5.632  3.2578  0.7856 -0.1446
15340TIP3    H267436   5.975   0.869   5.702  1.7550  1.2721 -0.9776
15341TIP3   OH267437   3.715   2.015   0.510  0.2328 -0.3787 -0.0618
15341TIP3    H167438   3.743   2.101   0.479 -0.1050 -0.4777 -0.6554
15341TIP3    H267439   3.797   1.966   0.519  0.6180  0.5250  2.0062
15342TIP3   OH267440   4.926   1.256  10.867  0.3997 -0.4705  0.4115
15342TIP3    H167441   4.837   1.238  10.837  0.2165  0.3431  0.4594
15342TIP3    H267442   4.920   1.341  10.911  1.1448 -0.5391  0.6570
15343TIP3   OH267443   0.560   4.499   1.605 -0.1607  0.3000  0.4013
15343TIP3    H167444   0.589   4.509   1.515  0.6077 -0.4095  0.5505
15343TIP3    H267445   0.568   4.586   1.643 -0.1310  0.5263 -0.1156
15344TIP3   OH267446   0.221   1.792  13.201 -0.0574  0.1389  0.5277
15344TIP3    H167447   0.142   1.738  13.206  0.3326 -0.6015 -0.6218
15344TIP3    H267448   0.190   1.879  13.178 -0.6159  0.1069  1.1634
15345TIP3   OH267449   6.220   4.616   5.891 -0.0247 -0.3413 -0.3053
15345TIP3    H167450   6.260   4.703   5.898 -0.1824 -0.0727 -2.1084
15345TIP3    H267451   6.295   4.556   5.890  0.2545 -0.0141 -1.3259
15346TIP3   OH267452   4.525   6.080   2.216 -0.6915  0.2574 -0.0855
15346TIP3    H167453   4.429   6.082   2.214 -0.6851  0.0966 -1.3991
15346TIP3    H267454   4.547   5.989   2.233 -0.7677  0.2978  0.2359
15347TIP3   OH267455   5.863   3.234  13.187 -0.0518 -0.3534 -0.1015
15347TIP3    H167456   5.807   3.249  13.111 -2.2564 -0.7798  1.3629
15347TIP3    H267457   5.878   3.140  13.189 -1.6212 -0.6084  1.0325
15348TIP3   OH267458   1.655   6.253   3.058 -0.1948 -0.2033 -0.2771
15348TIP3    H167459   1.683   6.259   2.967 -0.7243  1.5553 -0.3599
15348TIP3    H267460   1.564   6.284   3.057 -0.1027  0.1508  0.8962
15349TIP3   OH267461   0.892   3.242   6.324 -0.5469 -0.9583  0.3333
15349TIP3    H167462   0.966   3.185   6.350 -0.4173 -1.1911 -0.5330
15349TIP3    H267463   0.853   3.268   6.407  0.4090 -0.9734  0.8061
15350TIP3   OH267464   0.995   3.507  15.460  0.7179  0.4678  0.1766
15350TIP3    H167465   0.907   3.489  15.493  1.7269 -0.5545  2.5152
15350TIP3    H267466   1.025   3.423  15.425  0.5031  1.0210 -1.4575
15351TIP3   OH267467   6.189   3.158  16.928  0.1229  0.0185  0.6998
15351TIP3    H167468   6.224   3.203  16.852 -0.4959 -1.0544 -0.2432
15351TIP3    H267469   6.096   3.146  16.909  0.0503 -0.6587  1.4157
15352TIP3   OH267470   4.219   6.106  12.834 -0.3568 -0.3496 -0.4674
15352TIP3    H167471   4.301   6.142  12.867 -0.2910 -1.7863  1.0775
15352TIP3    H267472   4.158   6.180  12.832  0.9957  0.7773 -1.8374
15353TIP3   OH267473   2.534   0.342  13.083  0.1561 -0.1879 -0.3515
15353TIP3    H167474   2.449   0.301  13.096  1.3442 -2.3140  1.5294
15353TIP3    H267475   2.588   0.275  13.042  0.5392  1.7249 -3.2704
15354TIP3   OH267476   3.254   6.560  15.793  0.0323  0.1076  0.0471
15354TIP3    H167477   3.342   6.523  15.800  0.5303  0.4077 -3.1780
15354TIP3    H267478   3.267   6.655  15.795 -0.2673  0.1539 -0.2293
15355TIP3   OH267479   3.523   1.976  17.226  0.2313 -0.2396  0.1201
15355TIP3    H167480   3.573   2.035  17.170  1.5180 -0.5752  0.8904
15355TIP3    H267481   3.434   1.979  17.190  0.7335  0.5632 -1.1146
15356TIP3   OH267482   5.409   3.363   1.170 -0.1943  0.2804  0.0413
15356TIP3    H167483   5.363   3.384   1.252  1.3287 -1.0750  1.3107
15356TIP3    H267484   5.344   3.315   1.119 -0.9190  0.4091  0.8113
15357TIP3   OH267485   3.822   0.758  15.154 -0.1437  0.1841  0.7304
15357TIP3    H167486   3.874   0.816  15.210  0.1094 -0.0489  0.7397
15357TIP3    H267487   3.739   0.803  15.143  0.4984  1.1570 -0.3172
15358TIP3   OH267488   5.085   4.580   1.142  0.0835 -0.2584 -0.0730
15358TIP3    H167489   5.018   4.635   1.183 -0.1181 -0.7833  0.3081
15358TIP3    H267490   5.139   4.641   1.092 -1.2222  0.0677 -1.1342
15359TIP3   OH267491   4.157   2.153  16.009 -0.2983  0.4367 -0.0615
15359TIP3    H167492   4.101   2.079  15.987  1.2726 -0.6704 -0.5122
15359TIP3    H267493   4.206   2.124  16.086  0.3823  0.9725 -0.2856
15360TIP3   OH267494   5.967   4.821  12.559 -0.2514  0.4273 -0.0277
15360TIP3    H167495   5.947   4.891  12.497 -0.9091  0.1403 -0.1469
15360TIP3    H267496   5.888   4.812  12.612  0.3422  0.7539  0.9471
15361TIP3   OH267497   1.195   4.348   3.000 -0.1550 -0.2746  0.3144
15361TIP3    H167498   1.149   4.387   3.075 -1.2040 -0.3718 -0.2552
15361TIP3    H267499   1.130   4.288   2.962  0.2825 -0.0376 -0.8243
15362TIP3   OH267500   4.842   3.873  11.806 -0.0810 -0.0251 -0.4238
15362TIP3    H167501   4.878   3.842  11.889  1.5219 -1.5964 -1.6248
15362TIP3    H267502   4.839   3.969  11.816  0.4458 -0.1479  1.2869
15363TIP3   OH267503   2.618   3.748   3.886 -0.3088 -0.1926 -0.4446
15363TIP3    H167504   2.542   3.692   3.903  0.2397 -0.8107 -0.0029
15363TIP3    H267505   2.619   3.757   3.791 -0.9192 -0.1987 -0.4603
15364TIP3   OH267506   4.515   3.131   0.975 -0.1756 -0.0680 -0.4078
15364TIP3    H167507   4.586   3.068   0.992  0.7986  1.3282  0.9362
15364TIP3    H267508   4.458   3.086   0.913  1.3736 -1.6236 -0.7873
15365TIP3   OH267509   6.011   5.813  10.653 -0.4631 -0.2551 -0.1781
15365TIP3    H167510   6.091   5.845  10.611 -0.2634 -0.7207 -0.1581
15365TIP3    H267511   6.038   5.731  10.696 -0.8160 -0.1257  0.3002
15366TIP3   OH267512   5.148   1.870   0.771  0.0106  0.0116  0.2682
15366TIP3    H167513   5.173   1.955   0.806 -0.9488  0.8596 -1.0413
15366TIP3    H267514   5.054   1.875   0.758 -0.3719 -1.8794  1.7340
15367TIP3   OH267515   4.486   2.309   2.785 -0.1508 -0.2993 -0.3832
15367TIP3    H167516   4.405   2.358   2.772 -0.2099 -0.5715 -1.0708
15367TIP3    H267517   4.462   2.238   2.844 -0.7624 -1.2117 -1.6782
15368TIP3   OH267518   0.689   5.541   6.085  0.5844  0.1312  0.0218
15368TIP3    H167519   0.593   5.536   6.081  0.5588  0.6595 -0.0576
15368TIP3    H267520   0.713   5.593   6.009  0.6921  2.9824  1.8637
15369TIP3   OH267521   6.144   5.605   2.806  0.0990 -0.0064  0.7503
15369TIP3    H167522   6.080   5.539   2.834  0.1767 -0.7647 -0.7465
15369TIP3    H267523   6.229   5.562   2.815  0.3446  0.6879  1.8802
15370TIP3   OH267524   6.447   6.470   2.785  0.0152 -0.1973  0.3703
15370TIP3    H167525   6.472   6.392   2.836  1.2844 -0.3140 -0.3722
15370TIP3    H267526   6.515   6.476   2.717  0.3931  2.0021  0.8741
15371TIP3   OH267527   4.099   2.391  12.396 -0.3506 -0.0599 -0.5627
15371TIP3    H167528   4.186   2.420  12.366 -0.3395  0.5919  0.0426
15371TIP3    H267529   4.095   2.299  12.373  0.8113 -0.2923  0.0514
15372TIP3   OH267530   1.006   4.202  15.811 -0.1332  0.0342 -1.2948
15372TIP3    H167531   0.994   4.118  15.766  0.7545 -0.7181 -0.1716
15372TIP3    H267532   1.097   4.225  15.795  0.3908 -0.5600  0.5677
15373TIP3   OH267533   5.213   5.205  16.671  0.0596 -0.1731 -0.0165
15373TIP3    H167534   5.187   5.201  16.763 -0.0436 -2.1826 -0.0831
15373TIP3    H267535   5.296   5.253  16.671 -0.4348  0.7320  0.9710
15374TIP3   OH267536   3.625   2.413   4.180  0.0309  0.2373  0.6414
15374TIP3    H167537   3.584   2.391   4.097  0.9821  2.6713 -0.5622
15374TIP3    H267538   3.596   2.503   4.198  2.1398  0.8031  1.4466
15375TIP3   OH267539   3.382   6.422  12.538  0.0868  0.4924 -0.1531
15375TIP3    H167540   3.294   6.389  12.556 -0.3165  1.1952 -0.7726
15375TIP3    H267541   3.407   6.378  12.456  0.6158 -0.2519  0.3900
15376TIP3   OH267542   2.631   2.232   5.888  0.3506  0.1697 -0.0897
15376TIP3    H167543   2.620   2.228   5.793  1.0627 -1.0454 -0.1363
15376TIP3    H267544   2.718   2.270   5.901 -0.4034  1.9619  0.1436
15377TIP3   OH267545   1.373   0.676  14.282 -0.1417 -0.2488 -0.0057
15377TIP3    H167546   1.372   0.628  14.364 -0.3596 -0.7511 -0.2982
15377TIP3    H267547   1.281   0.691  14.261 -0.0732  0.5612  0.2306
15378TIP3   OH267548   0.763   2.909   2.991 -0.4017 -0.2184  0.0198
15378TIP3    H167549   0.824   2.937   3.060 -0.5443 -1.2454  0.5726
15378TIP3    H267550   0.817   2.855   2.933 -0.5051 -0.1160 -0.1725
15379TIP3   OH267551   2.053   2.645   0.404 -0.9926  0.0708 -0.5300
15379TIP3    H167552   1.983   2.615   0.462 -1.4532  1.2418 -0.4554
15379TIP3    H267553   2.100   2.712   0.455 -0.8035  0.4252 -1.1477
15380TIP3   OH267554   3.441   0.390  16.111  0.1978 -0.2990 -0.0212
15380TIP3    H167555   3.505   0.454  16.142  2.1290 -1.6189 -1.0783
15380TIP3    H267556   3.358   0.438  16.107  0.9549  1.3015  2.0136
15381TIP3   OH267557   3.772   3.598   6.242  0.4205 -0.1380 -0.0913
15381TIP3    H167558   3.679   3.587   6.262  0.7022 -2.4146  0.2585
15381TIP3    H267559   3.797   3.679   6.287 -0.9204 -0.6052  1.5934
15382TIP3   OH267560   4.188   4.182  13.309 -0.3651 -0.2408  0.0608
15382TIP3    H167561   4.224   4.104  13.352  0.0700 -0.3403 -0.4633
15382TIP3    H267562   4.204   4.167  13.216  0.8603  1.0128  0.0267
15383TIP3   OH267563   6.563   0.502   0.461  0.2965 -0.1476 -0.3375
15383TIP3    H167564   6.482   0.526   0.505 -0.2201 -1.9814 -0.2079
15383TIP3    H267565   6.541   0.423   0.412  2.1484 -0.9982  0.1348
15384TIP3   OH267566   5.179   3.401   2.720  0.4182 -0.3151  0.2106
15384TIP3    H167567   5.237   3.452   2.776  0.7101  0.3691 -0.6774
15384TIP3    H267568   5.108   3.461   2.697  0.9520 -0.1478 -1.1386
15385TIP3   OH267569   1.532   4.390  13.473 -0.1346  0.1348 -0.4297
15385TIP3    H167570   1.444   4.428  13.466 -1.6082 -1.6807  4.2065
15385TIP3    H267571   1.591   4.462  13.456 -2.5400  2.0053 -1.4709
15386TIP3   OH267572   5.589   4.091  13.246  0.4844 -0.0078 -0.1481
15386TIP3    H167573   5.651   4.020  13.265  0.8649  0.3429 -0.0611
15386TIP3    H267574   5.637   4.171  13.266 -0.4196  0.2462  1.1694
15387TIP3   OH267575   4.971   0.355   3.546  0.3356 -0.0459  0.0010
15387TIP3    H167576   4.936   0.270   3.517  0.4014  0.2168 -0.8799
15387TIP3    H267577   4.937   0.418   3.482 -0.3498  0.7250  1.0788
15388TIP3   OH267578   4.957   1.595   4.690 -0.6235 -0.8424  0.3171
15388TIP3    H167579   4.936   1.624   4.779  2.0995  0.8236  0.5381
15388TIP3    H267580   5.039   1.547   4.699  0.0253 -0.1187 -1.3772
15389TIP3   OH267581   4.194   3.925  15.810 -0.2278 -0.1180  0.0622
15389TIP3    H167582   4.177   3.907  15.717 -0.9351 -0.4942  0.2576
15389TIP3    H267583   4.109   3.952  15.844 -0.4002 -1.7624  1.0139
15390TIP3   OH267584   0.670   3.916  12.435 -0.0700 -0.3017  0.2702
15390TIP3    H167585   0.685   3.888  12.344 -2.6263 -2.2066  0.3253
15390TIP3    H267586   0.703   3.844  12.488  0.1497  0.1919  0.8160
15391TIP3   OH267587   0.034   3.459   2.496  0.3006 -0.4132  0.4748
15391TIP3    H167588   0.125   3.434   2.512  1.8804  3.7002 -0.7195
15391TIP3    H267589   0.013   3.519   2.568 -1.6741 -1.5045  0.8866
15392TIP3   OH267590   4.701   4.218   0.084  0.4278 -0.2922 -0.1595
15392TIP3    H167591   4.755   4.190   0.010  1.3062 -0.3311  0.4733
15392TIP3    H267592   4.631   4.270   0.045  0.9509 -0.2057 -1.0018
15393TIP3   OH267593   2.111   2.911   1.441  0.1930 -0.1268 -0.0620
15393TIP3    H167594   2.090   2.963   1.519  0.1786  0.5133 -0.4880
15393TIP3    H267595   2.026   2.875   1.413  0.4595 -2.0582  1.3818
15394TIP3   OH267596   5.167   0.027  15.544 -0.1483 -0.2612  0.6269
15394TIP3    H167597   5.251  -0.006  15.512 -0.3320  0.9459 -1.2848
15394TIP3    H267598   5.178   0.122  15.548 -1.0769 -0.1677  1.4672
15395TIP3   OH267599   0.732   1.689   2.423  0.0938  0.0455  0.2114
15395TIP3    H167600   0.762   1.716   2.510  1.8197 -0.6270 -0.1433
15395TIP3    H267601   0.745   1.766   2.368  3.4856 -0.8580 -0.4438
15396TIP3   OH267602   6.201   6.509  17.320  0.0065  0.3704  0.8795
15396TIP3    H167603   6.297   6.514  17.321 -0.0227  0.8792  1.3699
15396TIP3    H267604   6.175   6.525  17.410 -0.5433  0.1553  0.7654
15397TIP3   OH267605   2.552   3.533   1.169 -0.1221  0.1224 -0.1468
15397TIP3    H167606   2.463   3.499   1.169 -0.4453  0.9461 -0.6164
15397TIP3    H267607   2.598   3.479   1.104  0.6991 -2.6434  2.4635
15398TIP3   OH267608   1.644   5.202  11.923 -0.5378  0.2405 -0.3811
15398TIP3    H167609   1.566   5.186  11.975 -0.1803  0.5832  0.2756
15398TIP3    H267610   1.612   5.245  11.844 -0.8976  1.5063  0.4323
15399TIP3   OH267611   3.039   1.384   6.218  0.4180  0.3276 -0.0077
15399TIP3    H167612   2.988   1.464   6.208 -0.3395 -0.1021  0.3272
15399TIP3    H267613   3.130   1.413   6.226  0.0698  1.2018  0.8890
15400TIP3   OH267614   1.587   1.371   4.227 -0.4865  0.1196  1.0835
15400TIP3    H167615   1.648   1.298   4.227  2.0318  2.1046  0.4035
15400TIP3    H267616   1.502   1.332   4.249  0.8281 -2.8843  1.1641
15401TIP3   OH267617   3.790   0.292  12.194  0.0455  0.2504  0.1199
15401TIP3    H167618   3.883   0.298  12.172 -0.3228 -0.4987 -1.9617
15401TIP3    H267619   3.747   0.348  12.129 -0.8624  2.2350  2.3266
15402TIP3   OH267620   1.845   6.355  16.092 -0.0074 -0.4386  0.6601
15402TIP3    H167621   1.778   6.417  16.063 -1.4456 -2.6978 -1.2760
15402TIP3    H267622   1.926   6.387  16.053 -0.3856  1.0206  1.0086
15403TIP3   OH267623   3.718   2.390   2.335  0.1969 -0.2623  0.1503
15403TIP3    H167624   3.645   2.451   2.327  0.5289 -0.0650 -2.2165
15403TIP3    H267625   3.696   2.318   2.276  1.8941 -0.1658 -0.6626
15404TIP3   OH267626   6.296   1.152   0.442 -0.2873 -0.0486  0.1385
15404TIP3    H167627   6.228   1.176   0.504  1.4194 -0.9880  2.5337
15404TIP3    H267628   6.263   1.075   0.397 -1.9228  1.1699 -0.8499
15405TIP3   OH267629   1.694   4.545   2.696  0.2958  0.1161  0.1671
15405TIP3    H167630   1.709   4.456   2.726  1.3455  0.0337 -0.5445
15405TIP3    H267631   1.650   4.535   2.611 -0.5155  0.3023  0.5563
15406TIP3   OH267632   1.636   2.827   3.069 -0.1932 -0.4011  0.0108
15406TIP3    H167633   1.624   2.877   2.988 -1.7273 -2.6112 -1.2436
15406TIP3    H267634   1.572   2.756   3.063  1.1194 -1.8843  2.1896
15407TIP3   OH267635   2.899   1.132   3.626  0.3791  0.4195  0.4594
15407TIP3    H167636   2.991   1.115   3.607  0.5955  0.6589  1.2542
15407TIP3    H267637   2.868   1.052   3.667  0.5178  0.7176  1.1573
15408TIP3   OH267638   2.701   2.218   0.086  0.3198  0.0367  0.1639
15408TIP3    H167639   2.725   2.160   0.014 -0.2153  0.2036 -0.1518
15408TIP3    H267640   2.641   2.282   0.048  0.3932  0.4091  0.6527
15409TIP3   OH267641   1.631   1.789   2.329  0.1734  0.6686 -0.1010
15409TIP3    H167642   1.605   1.739   2.252  2.4407 -0.6796 -0.0762
15409TIP3    H267643   1.614   1.880   2.305  0.8475  0.2878 -2.2161
15410TIP3   OH267644   2.849   4.888   1.386 -0.4817  0.0831  0.5861
15410TIP3    H167645   2.833   4.973   1.343  1.5232  0.4604  0.4519
15410TIP3    H267646   2.806   4.896   1.471 -0.1230  1.3506  0.6760
15411TIP3   OH267647   4.634   6.595  12.684 -0.1649 -0.4285 -0.1009
15411TIP3    H167648   4.645   6.523  12.747  1.4059 -0.7851 -0.7251
15411TIP3    H267649   4.611   6.551  12.602  1.3162 -0.3001 -0.6127
15412TIP3   OH267650   0.832   3.706   2.589 -1.0795 -0.0393  0.1776
15412TIP3    H167651   0.900   3.714   2.522 -1.9021 -2.5861 -1.0934
15412TIP3    H267652   0.870   3.747   2.667  0.3329  2.0699 -1.4972
15413TIP3   OH267653   2.295   0.398   0.380  0.0437 -0.4861 -0.1701
15413TIP3    H167654   2.200   0.404   0.385  0.1606  1.9144  0.5073
15413TIP3    H267655   2.327   0.470   0.436  2.2967 -2.5056  1.3876
15414TIP3   OH267656   0.033   5.579  11.545  0.2603  0.9811 -0.1683
15414TIP3    H167657   0.059   5.649  11.605 -0.0440  0.0525  1.0644
15414TIP3    H267658  -0.052   5.606  11.512  1.0841  2.2324 -1.3819
15415TIP3   OH267659   2.573   0.985  12.068 -0.1401  0.0256 -0.0535
15415TIP3    H167660   2.559   0.898  12.105 -0.6904  0.2002  0.1590
15415TIP3    H267661   2.650   1.019  12.114  0.9559 -0.8940 -1.1373
15416TIP3   OH267662   1.097   1.154  15.152 -0.1401 -0.7022  0.3092
15416TIP3    H167663   1.141   1.239  15.142  0.5496 -1.1204 -0.3384
15416TIP3    H267664   1.068   1.152  15.243  0.1564  0.0803  0.4260
15417TIP3   OH267665   2.271   2.617   2.491 -0.4163  0.2679 -0.3171
15417TIP3    H167666   2.353   2.573   2.469 -1.5446 -2.6373  0.7321
15417TIP3    H267667   2.204   2.571   2.440 -1.6189  1.4019  0.1555
15418TIP3   OH267668   1.648   0.579  16.242 -0.1011  0.4179  0.0838
15418TIP3    H167669   1.643   0.483  16.239 -0.4619  0.4049  0.9053
15418TIP3    H267670   1.730   0.599  16.196 -1.0427 -0.1394 -1.9343
15419TIP3   OH267671   5.605   0.814   2.314  0.1301  0.1522 -0.4915
15419TIP3    H167672   5.586   0.879   2.381 -1.5272 -2.3439  1.6847
15419TIP3    H267673   5.520   0.793   2.275  0.5253 -1.0218 -0.7822
15420TIP3   OH267674   3.453   4.392  16.848 -0.4817  0.7739  0.5451
15420TIP3    H167675   3.380   4.410  16.789 -0.3650  1.3025  0.5521
15420TIP3    H267676   3.424   4.318  16.901 -0.3399 -0.1091 -0.5882
15421TIP3   OH267677   5.333   1.894  12.020  0.2900  0.3422 -0.0025
15421TIP3    H167678   5.354   1.861  12.107 -0.1157  1.4644  0.5443
15421TIP3    H267679   5.238   1.896  12.018  0.2091 -1.8867 -1.3632
15422TIP3   OH267680   1.320   6.354  16.977 -0.3170 -0.1972  0.0019
15422TIP3    H167681   1.262   6.378  16.904 -0.6388  1.7384  0.8090
15422TIP3    H267682   1.261   6.317  17.042 -0.3276 -0.1535  0.0165
15423TIP3   OH267683   0.467   0.417   5.216 -0.2364 -0.6185  0.5613
15423TIP3    H167684   0.406   0.373   5.275 -2.3199  1.6634  0.2624
15423TIP3    H267685   0.482   0.503   5.255 -0.3640  0.3397 -1.3451
15424TIP3   OH267686   3.980   2.057  16.590 -0.5095  0.4331  0.1280
15424TIP3    H167687   3.946   2.058  16.680 -0.9246 -0.3120 -0.0167
15424TIP3    H267688   3.975   2.148  16.562  0.3750  0.8172  1.1351
15425TIP3   OH267689   0.980   2.322  14.009  0.0585  0.3725  0.2159
15425TIP3    H167690   0.889   2.349  14.001  0.3702  1.3345 -0.2826
15425TIP3    H267691   0.979   2.255  14.077 -0.8364  1.2942  1.1546
15426TIP3   OH267692   4.998   3.772  12.814 -0.0014 -0.2283  0.4377
15426TIP3    H167693   5.064   3.781  12.746  0.9054 -0.6465  1.2278
15426TIP3    H267694   4.959   3.859  12.822  0.9211  0.1992  0.3967
15427TIP3   OH267695   4.365   3.504   0.693  0.3400  0.6187  0.2910
15427TIP3    H167696   4.270   3.498   0.689  0.3538  0.6533 -0.2594
15427TIP3    H267697   4.388   3.563   0.621  0.7388  1.0511  0.7638
15428TIP3   OH267698   2.690   5.128   5.513 -0.5180  0.0481 -0.3283
15428TIP3    H167699   2.634   5.076   5.571  0.6454 -1.3807 -0.4335
15428TIP3    H267700   2.747   5.176   5.573  0.0106 -0.6548 -0.2599
15429TIP3   OH267701   0.402   4.944  11.998 -0.5354  0.0943 -0.5294
15429TIP3    H167702   0.414   4.905  11.912 -0.8340 -2.2231  0.4235
15429TIP3    H267703   0.319   4.907  12.029  0.2673 -0.2114  1.3199
15430TIP3   OH267704   1.201   4.717   4.198  0.4225 -0.8526 -0.1644
15430TIP3    H167705   1.131   4.653   4.184 -0.6843  0.2817 -0.0615
15430TIP3    H267706   1.155   4.801   4.202  1.8990  0.0272 -0.9549
15431TIP3   OH267707   3.109   4.242   4.105 -0.3719 -0.1037 -0.4645
15431TIP3    H167708   3.069   4.289   4.033 -2.0018  0.1157  0.5387
15431TIP3    H267709   3.107   4.150   4.078  2.1000  0.2276 -2.0834
15432TIP3   OH267710   5.347   2.815  14.033 -0.4913  0.5005 -0.1581
15432TIP3    H167711   5.395   2.896  14.018  0.8401 -0.0322  1.0155
15432TIP3    H267712   5.412   2.755  14.070 -1.9198 -0.4344  0.9349
15433TIP3   OH267713   6.046   0.997   2.857  0.4972 -0.4476 -0.3263
15433TIP3    H167714   6.079   0.912   2.827  1.5621  0.1500 -0.9305
15433TIP3    H267715   6.124   1.052   2.860 -0.1679  0.4836  0.1418
15434TIP3   OH267716   2.495   4.062  15.574  0.0665  0.3356 -0.0064
15434TIP3    H167717   2.582   4.031  15.598 -0.0166  0.0087 -0.1182
15434TIP3    H267718   2.503   4.090  15.483 -0.1945 -0.7172 -0.3760
15435TIP3   OH267719   5.553   5.755   1.939 -0.4738 -0.3990 -0.3613
15435TIP3    H167720   5.617   5.799   1.994 -1.4546  0.7915 -0.1404
15435TIP3    H267721   5.601   5.680   1.902  0.5068 -0.5899  1.2092
15436TIP3   OH267722   2.953   3.409   1.734 -0.3843 -0.7766 -0.3435
15436TIP3    H167723   2.915   3.492   1.705 -1.4924 -0.8217  0.8813
15436TIP3    H267724   2.947   3.352   1.657  0.8516  0.3796 -1.3622
15437TIP3   OH267725   1.065   0.112   5.451  0.0822  0.1967 -0.4882
15437TIP3    H167726   1.157   0.115   5.425  0.3181 -1.1439  0.1054
15437TIP3    H267727   1.043   0.018   5.452 -1.2937  0.4959 -0.6373
15438TIP3   OH267728   0.126   1.777  16.446  0.1287 -0.5426 -0.2194
15438TIP3    H167729   0.096   1.713  16.381  0.6769 -1.5322  0.4735
15438TIP3    H267730   0.207   1.740  16.481 -1.0580 -0.9544  2.3029
15439TIP3   OH267731   3.445   1.243  16.849 -0.0707 -0.0305 -0.0606
15439TIP3    H167732   3.441   1.323  16.798 -1.0441  0.1617  0.2846
15439TIP3    H267733   3.379   1.255  16.917  0.1084 -0.9259  0.2853
15440TIP3   OH267734   6.390   6.384  12.260  0.2086 -0.0489 -0.1397
15440TIP3    H167735   6.450   6.424  12.322  0.8988 -0.4078 -0.5625
15440TIP3    H267736   6.316   6.355  12.313 -0.7859  2.6036  0.0528
15441TIP3   OH267737   1.564   1.697   5.402  0.1103  0.1703 -0.0816
15441TIP3    H167738   1.608   1.758   5.343 -1.5980  0.8073 -0.7710
15441TIP3    H267739   1.597   1.719   5.489  0.4071  1.2827 -0.4599
15442TIP3   OH267740   2.498   5.480   0.990  0.1491  0.6002  0.1527
15442TIP3    H167741   2.443   5.558   0.998 -0.8925  0.0451 -1.3441
15442TIP3    H267742   2.455   5.426   0.925  2.5136  0.1582 -1.1501
15443TIP3   OH267743   0.953   1.781  15.154  0.5947 -0.1527 -0.6012
15443TIP3    H167744   1.021   1.715  15.138  0.6126 -0.1191 -0.6646
15443TIP3    H267745   0.961   1.842  15.081  0.4502 -0.1865 -0.6462
15444TIP3   OH267746   5.733   0.661   5.877 -0.2491 -0.5280 -0.4124
15444TIP3    H167747   5.746   0.647   5.784  1.6529 -0.6831 -0.1608
15444TIP3    H267748   5.666   0.597   5.902 -2.4038  0.9722 -2.0255
15445TIP3   OH267749   5.028   2.621   3.388 -0.1352  0.3427 -0.1310
15445TIP3    H167750   5.030   2.528   3.411 -2.3138 -0.1219 -1.5238
15445TIP3    H267751   5.027   2.622   3.292 -0.6599  1.7709 -0.1374
15446TIP3   OH267752   4.494   2.170   0.968  0.0907  0.1501  0.2911
15446TIP3    H167753   4.545   2.113   0.911 -2.8687 -1.4885 -0.9678
15446TIP3    H267754   4.464   2.241   0.911  0.3170  0.6780  0.8126
15447TIP3   OH267755   0.987   0.445  15.236  0.1509  0.1129 -0.3582
15447TIP3    H167756   0.910   0.435  15.180  0.1536  0.2803 -0.3918
15447TIP3    H267757   0.991   0.538  15.255  1.4600  0.4350 -1.9580
15448TIP3   OH267758   6.163   3.607   0.514 -0.5225  0.9088 -0.2083
15448TIP3    H167759   6.247   3.588   0.557 -0.3819  0.5214 -0.6397
15448TIP3    H267760   6.168   3.560   0.431 -1.2322  0.7597 -0.1741
15449TIP3   OH267761   5.622   5.010  11.191  0.1826  0.1191  0.1039
15449TIP3    H167762   5.590   4.924  11.164 -0.0138 -0.5630  2.2521
15449TIP3    H267763   5.716   4.997  11.206  1.0044  1.3286 -3.2013
15450TIP3   OH267764   2.803   2.520   1.492  0.3139  0.7419  0.0135
15450TIP3    H167765   2.763   2.531   1.405  1.3438 -0.9030 -0.7098
15450TIP3    H267766   2.802   2.426   1.508  2.6973  0.7288  0.5170
15451TIP3   OH267767   6.555   5.421   5.172  0.3498 -0.2547  0.2876
15451TIP3    H167768   6.640   5.378   5.162  1.7582  2.6980 -2.1210
15451TIP3    H267769   6.569   5.486   5.240 -0.2460 -0.2176  0.3817
15452TIP3   OH267770   3.746   2.547   3.049 -0.3083  0.3264  0.2073
15452TIP3    H167771   3.697   2.466   3.058 -0.7194  0.6837  1.3857
15452TIP3    H267772   3.793   2.556   3.132  1.3318  0.2780 -0.6770
15453TIP3   OH267773   4.636   5.651  13.204  0.6890 -0.6829  0.1494
15453TIP3    H167774   4.609   5.664  13.295  1.4916  1.2883  0.1556
15453TIP3    H267775   4.697   5.578  13.208 -0.0021 -1.2397  1.0367
15454TIP3   OH267776   5.536   0.011  17.040  0.1005  0.8410  0.4347
15454TIP3    H167777   5.594  -0.060  17.067  2.2370  1.7177 -1.4497
15454TIP3    H267778   5.450  -0.030  17.028  0.6125 -0.8064  2.0081
15455TIP3   OH267779   6.234   6.607   4.265 -0.2938  0.5857 -0.0271
15455TIP3    H167780   6.183   6.535   4.229 -0.6031  1.1775 -0.8049
15455TIP3    H267781   6.247   6.583   4.357  1.2173 -1.3556 -0.6856
15456TIP3   OH267782   0.108   1.452   4.491  0.4622 -0.0411  0.1202
15456TIP3    H167783   0.033   1.511   4.486  0.6667  0.2616  0.5613
15456TIP3    H267784   0.179   1.500   4.449  0.4416 -0.2846 -0.1993
15457TIP3   OH267785   5.329   1.467   5.091 -0.1810  0.1745 -0.2233
15457TIP3    H167786   5.276   1.402   5.045  1.1557 -1.4502  0.4133
15457TIP3    H267787   5.352   1.424   5.174  1.9891  0.8209 -0.4187
15458TIP3   OH267788   1.465   0.319  14.627  0.3869 -0.2035  1.0901
15458TIP3    H167789   1.556   0.313  14.658  0.1400 -2.0074  1.5666
15458TIP3    H267790   1.456   0.246  14.565 -0.2164  1.1163 -0.4644
15459TIP3   OH267791   0.663   2.660   6.011  0.3408 -0.2309 -0.1661
15459TIP3    H167792   0.730   2.724   6.035  1.6880 -1.6583  0.0860
15459TIP3    H267793   0.596   2.669   6.079  1.8447 -0.9482  1.4906
15460TIP3   OH267794   4.509   4.088   5.309  0.1745  0.1223 -0.4049
15460TIP3    H167795   4.517   3.993   5.297  1.3008  0.0009  1.0957
15460TIP3    H267796   4.491   4.121   5.221  0.2825 -1.4257 -1.0468
15461TIP3   OH267797   4.520   2.895   3.553  1.0679 -0.2519 -0.0588
15461TIP3    H167798   4.604   2.925   3.589  0.3818  1.0796  0.4981
15461TIP3    H267799   4.479   2.974   3.520 -1.2551 -0.3324  2.3338
15462TIP3   OH267800   4.787   5.325   3.215 -0.1102  0.8195 -0.1402
15462TIP3    H167801   4.878   5.354   3.220  0.8483 -2.0369  0.6432
15462TIP3    H267802   4.765   5.334   3.122  0.7198  2.1331 -0.2444
15463TIP3   OH267803   3.208   2.427   2.759 -0.4018  0.2772 -0.6816
15463TIP3    H167804   3.171   2.338   2.762  0.5870 -0.1387 -0.4305
15463TIP3    H267805   3.139   2.482   2.795 -0.7874 -0.4800 -0.2163
15464TIP3   OH267806   5.803   2.206  16.709 -0.0174 -0.1814  0.4421
15464TIP3    H167807   5.864   2.224  16.781 -0.4289  0.2666  0.6891
15464TIP3    H267808   5.794   2.290  16.664  1.6035 -0.8403 -1.2342
15465TIP3   OH267809   1.942   0.960   2.552 -0.5320 -0.0554  0.0072
15465TIP3    H167810   2.032   0.925   2.551 -0.1467  0.8745  0.6283
15465TIP3    H267811   1.901   0.921   2.475  0.4585 -0.3776 -0.3850
15466TIP3   OH267812   0.586   0.123   6.070 -0.1052 -0.4877  0.1708
15466TIP3    H167813   0.666   0.090   6.111  0.7999  1.7270  0.3499
15466TIP3    H267814   0.615   0.158   5.986 -1.2694 -1.4482 -0.6703
15467TIP3   OH267815   0.089   4.562   2.305 -0.3489  0.4225  0.0022
15467TIP3    H167816   0.029   4.511   2.250 -0.7733  1.2078 -0.2658
15467TIP3    H267817   0.101   4.507   2.383 -0.5982 -0.2071 -0.3946
15468TIP3   OH267818   4.260   6.275  10.883 -0.2759  0.0506 -0.0782
15468TIP3    H167819   4.308   6.195  10.861  0.3617  0.3255  0.2697
15468TIP3    H267820   4.320   6.346  10.860 -0.0692  0.3708  1.3419
15469TIP3   OH267821   1.409   5.938  16.465  0.3359 -0.2275  0.5482
15469TIP3    H167822   1.413   6.013  16.404 -0.3150  1.0658  2.0198
15469TIP3    H267823   1.392   5.863  16.408  0.3421  0.8335 -0.9382
15470TIP3   OH267824   3.265   3.800   5.562  0.3468 -0.6913 -0.2881
15470TIP3    H167825   3.171   3.798   5.541 -0.1016 -1.8861  1.5679
15470TIP3    H267826   3.295   3.712   5.542  0.9625 -0.4652 -0.3619
15471TIP3   OH267827   5.629   2.121   0.354  0.2204  0.0841 -0.6470
15471TIP3    H167828   5.588   2.161   0.278 -2.2777  1.3565  1.1974
15471TIP3    H267829   5.669   2.195   0.401  1.9320 -0.7053 -0.7974
15472TIP3   OH267830   5.899   0.977  16.996  0.0490 -0.4880 -0.0511
15472TIP3    H167831   5.921   1.070  17.007 -0.5083 -0.3972  0.3453
15472TIP3    H267832   5.984   0.933  16.995  0.3068 -0.0084  0.1152
15473TIP3   OH267833   6.101   1.439  13.783  0.2092  0.0556 -0.4672
15473TIP3    H167834   6.157   1.514  13.770 -0.2706  0.2669 -1.3900
15473TIP3    H267835   6.025   1.473  13.830 -0.1719  0.2261 -1.1994
15474TIP3   OH267836   5.100   1.721   1.134 -0.0925 -1.0634 -0.3226
15474TIP3    H167837   5.133   1.662   1.202 -1.2212 -0.0795  1.1519
15474TIP3    H267838   5.006   1.703   1.131 -0.4176  0.4176 -0.0287
15475TIP3   OH267839   0.993   3.065   2.431  0.2101 -0.5316  0.0408
15475TIP3    H167840   0.958   3.096   2.515  2.2305  0.4670  0.5640
15475TIP3    H267841   0.936   2.991   2.407 -0.3235 -0.9394  2.3513
15476TIP3   OH267842   1.489   2.427  13.343 -0.0518 -0.3255 -0.2958
15476TIP3    H167843   1.443   2.410  13.425  0.4008 -0.8419 -0.1331
15476TIP3    H267844   1.565   2.368  13.346 -0.1820 -0.5627 -1.2133
15477TIP3   OH267845   5.468   6.261  13.407  0.4013 -0.0605 -0.5995
15477TIP3    H167846   5.419   6.215  13.339 -1.5173 -1.2827  1.4905
15477TIP3    H267847   5.506   6.192  13.461  1.6809  0.8709 -0.2573
15478TIP3   OH267848   6.248   6.016   6.378  1.0795 -0.1093 -0.2024
15478TIP3    H167849   6.323   6.068   6.348  1.6762 -0.5139  0.5395
15478TIP3    H267850   6.266   6.000   6.471  0.4830 -0.9204 -0.2167
15479TIP3   OH267851   1.139   2.409  12.277  0.1382 -0.0809  0.6600
15479TIP3    H167852   1.175   2.324  12.253 -1.8121 -0.5744 -0.7066
15479TIP3    H267853   1.195   2.473  12.232  1.8070 -0.5765  1.9510
15480TIP3   OH267854   1.134   1.392   5.219 -0.2096 -0.1000 -0.0738
15480TIP3    H167855   1.221   1.424   5.244  0.4044 -2.2371  0.7372
15480TIP3    H267856   1.082   1.400   5.299 -0.1167 -0.8540  0.0696
15481TIP3   OH267857   3.937   3.713   1.087  0.0402 -0.0446 -0.3817
15481TIP3    H167858   4.020   3.761   1.075 -1.5392  2.9213 -0.2958
15481TIP3    H267859   3.952   3.630   1.043  3.6655 -0.4320  1.1372
15482TIP3   OH267860   5.464   4.696  16.730 -0.0154  0.0638  0.2641
15482TIP3    H167861   5.452   4.791  16.721  0.5674  0.2139  1.0391
15482TIP3    H267862   5.554   4.680  16.703 -1.0524 -0.7717 -3.2790
15483TIP3   OH267863   5.741   5.721   0.855  0.1089 -0.5849 -0.3055
15483TIP3    H167864   5.749   5.796   0.796  1.0671  2.3473  3.1779
15483TIP3    H267865   5.826   5.678   0.849  0.3247 -0.1096 -0.8089
15484TIP3   OH267866   0.137   1.266  13.595  0.1556  0.0762 -0.2674
15484TIP3    H167867   0.206   1.210  13.630 -0.6948 -0.9368 -0.1870
15484TIP3    H267868   0.172   1.297  13.511  0.8427 -0.1461 -0.0728
15485TIP3   OH267869   3.510   6.395  11.880  0.1989  0.2197  0.3697
15485TIP3    H167870   3.547   6.308  11.893 -1.1130 -0.6044 -1.0153
15485TIP3    H267871   3.584   6.450  11.854  0.6271 -1.2473 -1.8271
15486TIP3   OH267872   1.875   2.711  16.608 -0.3996  0.1626  0.2535
15486TIP3    H167873   1.865   2.652  16.533 -0.8703 -0.4060  0.7467
15486TIP3    H267874   1.965   2.700  16.636 -0.8846 -1.5632  1.3159
15487TIP3   OH267875   4.850   2.062  12.684 -0.1730  0.2851 -0.4658
15487TIP3    H167876   4.891   1.975  12.687 -0.7011  0.0147 -1.0297
15487TIP3    H267877   4.792   2.064  12.761  0.8462  0.6598  0.3242
15488TIP3   OH267878   3.382   3.601  14.478  0.8654  0.2810  0.3213
15488TIP3    H167879   3.353   3.692  14.465 -0.2676 -0.0500  0.4044
15488TIP3    H267880   3.388   3.591  14.573 -0.8992 -0.2581  0.4190
15489TIP3   OH267881   4.413   3.334  14.928 -0.5440 -0.1981 -0.0638
15489TIP3    H167882   4.469   3.268  14.888  1.1984  0.9424  0.3764
15489TIP3    H267883   4.403   3.305  15.019 -0.0173 -0.0207  0.0551
15490TIP3   OH267884   4.145   5.059   2.640 -0.3472 -0.4699  0.1900
15490TIP3    H167885   4.204   5.072   2.715 -1.7398  0.0544  1.2273
15490TIP3    H267886   4.161   4.969   2.612 -0.9474 -1.2362  2.1649
15491TIP3   OH267887   2.786   0.168   5.132 -0.8241 -0.0499 -0.5211
15491TIP3    H167888   2.781   0.153   5.038 -0.4886  1.8267 -0.8936
15491TIP3    H267889   2.746   0.255   5.144  0.7741  0.5617  0.7885
15492TIP3   OH267890   0.797   4.314   1.724 -0.8436 -0.0301 -0.0249
15492TIP3    H167891   0.793   4.312   1.819 -0.5866  0.0037 -0.0123
15492TIP3    H267892   0.728   4.375   1.698 -0.0655  0.9615  0.2028
15493TIP3   OH267893   6.018   4.798  13.944 -0.1369  0.1922  0.0597
15493TIP3    H167894   6.083   4.816  13.876  1.2621  1.3569  1.6270
15493TIP3    H267895   6.067   4.751  14.012 -0.9835  0.8274  1.1465
15494TIP3   OH267896   6.570   6.420   6.545  0.5361  0.0147 -0.2196
15494TIP3    H167897   6.583   6.427   6.450 -1.5302  0.3083 -0.5448
15494TIP3    H267898   6.533   6.505   6.570 -1.1152 -0.8338  0.3874
15495TIP3   OH267899   3.492   3.502  14.204  0.0360  0.4283  0.0278
15495TIP3    H167900   3.433   3.500  14.128  0.6718  1.3567 -0.5111
15495TIP3    H267901   3.460   3.574  14.257  1.1319  1.4430 -0.6573
15496TIP3   OH267902   3.825   3.729  12.563  0.1281  0.6329  0.1976
15496TIP3    H167903   3.821   3.797  12.496  1.0094  0.9876  0.4896
15496TIP3    H267904   3.748   3.744  12.617  0.8116  2.0258  0.8303
15497TIP3   OH267905   5.364   4.934   5.456  0.7225 -0.2510 -0.1506
15497TIP3    H167906   5.404   4.850   5.479  0.3546 -0.1536  0.9020
15497TIP3    H267907   5.437   4.990   5.430  1.0700 -0.6103  0.0469
15498TIP3   OH267908   1.898   4.861  15.926 -0.2173  0.3602  0.4581
15498TIP3    H167909   1.938   4.774  15.925 -3.3658 -1.3513 -2.4783
15498TIP3    H267910   1.867   4.872  16.015  0.8057 -1.2542  1.0644
15499TIP3   OH267911   5.702   1.721  11.316  0.2287 -0.2242 -0.2410
15499TIP3    H167912   5.659   1.760  11.393 -2.4486 -0.5673 -1.4516
15499TIP3    H267913   5.671   1.630  11.315 -0.2263 -0.0842 -1.9836
15500TIP3   OH267914   3.475   5.255  11.641  0.8722 -0.1136 -0.0180
15500TIP3    H167915   3.477   5.281  11.733  0.8528  0.5260 -0.1956
15500TIP3    H267916   3.538   5.313  11.598 -0.0440  0.4611 -0.6226
15501TIP3   OH267917   4.930   0.337   5.621 -0.0971  0.1680  0.1030
15501TIP3    H167918   4.865   0.394   5.582 -0.5285  0.4043  1.1177
15501TIP3    H267919   4.962   0.386   5.697  0.7364 -0.2513  0.0324
15502TIP3   OH267920   1.396   4.769  13.634 -0.2264 -0.1492 -0.2746
15502TIP3    H167921   1.445   4.700  13.679  0.0976  0.5882  0.5254
15502TIP3    H267922   1.328   4.722  13.586  0.6890 -1.1142 -0.6601
15503TIP3   OH267923   3.647   1.948   5.010  0.3451  0.1480 -0.1153
15503TIP3    H167924   3.626   1.962   5.102  0.5838  0.5070 -0.1136
15503TIP3    H267925   3.672   2.034   4.978 -0.3101  0.1377 -0.6700
15504TIP3   OH267926   6.589   1.038  16.545  0.2542 -0.5095 -0.5554
15504TIP3    H167927   6.672   1.071  16.580  0.6724 -1.8137 -0.2499
15504TIP3    H267928   6.540   1.116  16.521  1.3421  0.3040 -0.2010
15505TIP3   OH267929   3.735   4.809  12.200 -0.1605 -0.4421 -0.0152
15505TIP3    H167930   3.766   4.892  12.164 -1.9196  1.4819  2.5463
15505TIP3    H267931   3.717   4.755  12.124  0.4171  1.7484 -1.8172
15506TIP3   OH267932   4.733   0.952   6.409  0.5772 -0.5716 -0.2892
15506TIP3    H167933   4.729   0.856   6.404  0.4079 -0.5594 -0.3945
15506TIP3    H267934   4.817   0.970   6.451  1.9730 -0.6978 -2.8482
15507TIP3   OH267935   3.744   1.170  15.395 -0.2262 -0.2946 -1.0188
15507TIP3    H167936   3.699   1.200  15.316 -0.8491  0.4255 -0.4116
15507TIP3    H267937   3.679   1.181  15.465  0.5318 -0.2937 -0.2980
15508TIP3   OH267938   2.900   2.730   1.625  0.1191  0.5607  0.5741
15508TIP3    H167939   2.899   2.642   1.588  0.0706  1.2609 -1.1850
15508TIP3    H267940   2.966   2.726   1.694  1.1921 -0.4926 -0.4566
15509TIP3   OH267941   5.866   2.828  17.073  0.1829 -0.0787 -0.5302
15509TIP3    H167942   5.821   2.759  17.024 -2.1207  0.6828  0.3747
15509TIP3    H267943   5.883   2.788  17.159 -3.1488  0.9858  0.7931
15510TIP3   OH267944   4.195   5.246  16.123  0.1861  0.1501 -0.0496
15510TIP3    H167945   4.215   5.154  16.137 -0.5841 -0.0186  0.0210
15510TIP3    H267946   4.251   5.293  16.184 -1.2972 -0.4302  1.8793
15511TIP3   OH267947   4.548   5.949   2.512  0.0356 -0.1360 -0.0148
15511TIP3    H167948   4.520   5.907   2.431 -1.0476  0.7166 -0.1094
15511TIP3    H267949   4.467   5.966   2.560  0.5786  0.3174  0.7718
15512TIP3   OH267950   3.141   0.201  13.332 -0.2186  0.8533  0.4850
15512TIP3    H167951   3.114   0.245  13.412 -2.0343  0.3489  0.1898
15512TIP3    H267952   3.060   0.186  13.283  0.7566  0.5269 -1.1385
15513TIP3   OH267953   1.168   5.569   4.418 -0.2602 -0.2865 -0.0433
15513TIP3    H167954   1.076   5.563   4.393  0.4660 -0.4759 -2.9845
15513TIP3    H267955   1.186   5.663   4.421 -0.6443 -0.2344  1.0773
15514TIP3   OH267956   3.448   2.992   2.386 -0.4183  0.0254  0.1677
15514TIP3    H167957   3.391   2.994   2.309  0.4666  0.3029 -0.4874
15514TIP3    H267958   3.479   2.902   2.391 -0.1636  0.1017 -0.0328
15515TIP3   OH267959   1.807   0.105  10.525 -0.2659  0.2564  0.2990
15515TIP3    H167960   1.837   0.100  10.615 -1.4274 -0.7259  0.6595
15515TIP3    H267961   1.752   0.184  10.522 -1.4645 -0.5224  0.8749
15516TIP3   OH267962   4.808   1.073  15.942  0.5283 -0.1311 -0.5588
15516TIP3    H167963   4.797   1.166  15.919  0.0325 -0.0400  0.0116
15516TIP3    H267964   4.894   1.050  15.907  1.7133  1.1900  1.2962
15517TIP3   OH267965   0.749   0.937   4.526 -0.1345  0.2367  0.1337
15517TIP3    H167966   0.835   0.913   4.491 -0.3936  0.8863 -0.9809
15517TIP3    H267967   0.768   0.981   4.609  0.5848  0.1449  0.0210
15518TIP3   OH267968   3.340   4.372   5.441 -0.2521 -0.0487 -0.5032
15518TIP3    H167969   3.377   4.396   5.526  0.9239 -0.3590 -0.9043
15518TIP3    H267970   3.388   4.425   5.377 -1.7155  0.8324 -0.9421
15519TIP3   OH267971   4.269   3.908  13.341 -0.0703 -0.8555  0.5074
15519TIP3    H167972   4.360   3.883  13.327  0.0092 -0.4886  0.3774
15519TIP3    H267973   4.245   3.864  13.423 -0.1417 -1.9208 -0.0556
15520TIP3   OH267974   5.510   1.132  14.718  0.1446 -0.2948 -0.0472
15520TIP3    H167975   5.552   1.057  14.677 -1.0223 -0.5158 -0.8989
15520TIP3    H267976   5.471   1.181  14.645 -1.6206 -0.4767  0.7051
15521TIP3   OH267977   5.389   0.846   2.841 -0.3662  0.2551 -0.0144
15521TIP3    H167978   5.359   0.894   2.918  1.2530  0.3321  0.6234
15521TIP3    H267979   5.352   0.759   2.851 -2.4557  1.0269 -0.6241
15522TIP3   OH267980   0.424   2.471   4.476 -0.0313  0.6762  0.9065
15522TIP3    H167981   0.490   2.539   4.464  1.7677 -1.1919 -0.4462
15522TIP3    H267982   0.344   2.519   4.499  0.5036  3.4373 -2.2193
15523TIP3   OH267983   4.785   5.133  16.161 -0.1407 -0.2554  0.2451
15523TIP3    H167984   4.705   5.100  16.121 -0.4004 -0.7011  1.0893
15523TIP3    H267985   4.756   5.173  16.243  0.2269  1.6525 -0.4974
15524TIP3   OH267986   4.413   0.654  11.443  0.0345 -0.3452 -0.1096
15524TIP3    H167987   4.328   0.694  11.424  0.0345 -0.7497 -0.9650
15524TIP3    H267988   4.391   0.573  11.489 -0.1053 -1.1657 -1.5955
15525TIP3   OH267989   2.411   3.519   3.170 -0.0515 -0.1884  0.3909
15525TIP3    H167990   2.323   3.503   3.136 -1.7969  3.7175  2.4213
15525TIP3    H267991   2.446   3.587   3.113  0.8159 -0.2397  0.8584
15526TIP3   OH267992   3.982   1.334   3.391  0.5773 -0.1868 -0.3557
15526TIP3    H167993   3.908   1.395   3.381  1.1306  1.0999  2.3391
15526TIP3    H267994   3.974   1.274   3.317 -2.7392  0.3544 -0.6107
15527TIP3   OH267995   3.180   3.497   4.282 -0.6177  0.0633 -0.1358
15527TIP3    H167996   3.232   3.435   4.334 -0.4453  0.1205 -0.2402
15527TIP3    H267997   3.224   3.581   4.294 -1.1922  0.2830  0.4834
15528TIP3   OH267998   0.853   1.350  15.334  0.2472  0.3488 -0.7161
15528TIP3    H167999   0.859   1.375  15.242 -1.5140  0.6352 -0.7879
15528TIP3    H268000   0.828   1.431  15.379  0.9335  0.1735  0.0049
15529TIP3   OH268001   4.543   6.322   5.827 -0.1054  0.2161 -0.3355
15529TIP3    H168002   4.477   6.257   5.802  0.6680 -1.2867  1.3187
15529TIP3    H268003   4.499   6.377   5.891 -0.1190 -0.0934 -0.0716
15530TIP3   OH268004   1.334   1.166   2.247 -0.0271  1.1068 -0.1168
15530TIP3    H168005   1.397   1.206   2.307  1.0364 -0.1911 -0.3251
15530TIP3    H268006   1.329   1.075   2.275 -1.3579  1.0451 -0.5024
15531TIP3   OH268007   0.816   1.080  15.441  0.0107 -0.3445 -0.2292
15531TIP3    H168008   0.819   1.166  15.399 -1.1408 -0.2535 -0.1519
15531TIP3    H268009   0.754   1.030  15.388 -1.7673 -0.1063  1.5354
15532TIP3   OH268010   0.563   1.853   1.195  1.0542 -0.0669 -0.7688
15532TIP3    H168011   0.632   1.896   1.145  1.3085 -0.0314 -0.3879
15532TIP3    H268012   0.530   1.785   1.136  1.5871 -0.2526 -0.8626
15533TIP3   OH268013   3.746   1.958  12.421 -0.1004  0.3957 -0.6537
15533TIP3    H168014   3.763   2.009  12.500 -1.4008  0.1754 -0.2106
15533TIP3    H268015   3.762   2.019  12.349 -0.1216  0.9627 -0.1820
15534TIP3   OH268016   0.546   6.234   5.401 -0.3131 -0.7335 -0.9287
15534TIP3    H168017   0.548   6.190   5.315 -1.1134  0.0310 -1.3469
15534TIP3    H268018   0.487   6.181   5.454 -0.8703 -0.4579 -1.2711
15535TIP3   OH268019   0.331   5.444  12.166  0.2185 -0.1037 -0.2319
15535TIP3    H168020   0.375   5.508  12.110 -0.5516  1.8033  1.2022
15535TIP3    H268021   0.240   5.445  12.137 -0.2323  1.0601  1.1040
15536TIP3   OH268022   2.297   4.759  12.113  0.1822  0.3424 -0.0767
15536TIP3    H168023   2.286   4.838  12.167 -0.1498 -0.3052  0.8289
15536TIP3    H268024   2.362   4.784  12.048  1.6403  0.7467  1.4615
15537TIP3   OH268025   0.586   5.984   1.380  0.2321  0.0003  0.9196
15537TIP3    H168026   0.579   5.934   1.461 -0.1430 -0.8283  0.3950
15537TIP3    H268027   0.521   6.054   1.388 -1.1975 -1.2388  0.5427
15538TIP3   OH268028   6.469   5.610   4.964 -0.2288  0.0625 -0.1312
15538TIP3    H168029   6.530   5.603   4.891  0.8596  3.6470  0.2637
15538TIP3    H268030   6.505   5.554   5.032  1.2832  0.2273 -0.7672
15539TIP3   OH268031   4.949   1.118  13.377 -0.2595  0.2875  0.2548
15539TIP3    H168032   4.949   1.081  13.465 -1.6709 -2.8527 -0.9021
15539TIP3    H268033   5.039   1.108  13.347 -0.0549  0.2068  0.8732
15540TIP3   OH268034   5.829   3.680   1.517  0.1118  0.2362  0.2418
15540TIP3    H168035   5.858   3.618   1.584  0.5226  0.6612  0.4675
15540TIP3    H268036   5.886   3.756   1.529 -0.4265  0.6812  0.0151
15541TIP3   OH268037   3.326   0.164  15.272 -0.1176  0.2387 -0.1360
15541TIP3    H168038   3.294   0.184  15.360  0.8729  1.2192  0.0292
15541TIP3    H268039   3.316   0.247  15.224  0.3271  0.0093 -0.6360
15542TIP3   OH268040   5.400   5.919   0.562 -0.1488  0.3026 -0.4572
15542TIP3    H168041   5.427   5.828   0.553 -1.5918 -0.0752 -1.3726
15542TIP3    H268042   5.482   5.968   0.572  0.7225 -0.9667 -1.0868
15543TIP3   OH268043   0.090   4.359   0.429  0.0875  0.1822  0.4865
15543TIP3    H168044   0.020   4.300   0.454 -0.1536  0.6851  1.0212
15543TIP3    H268045   0.079   4.435   0.487 -0.9332  1.7020 -1.5483
15544TIP3   OH268046   6.725   4.851  11.126 -0.0360 -0.0312 -0.0148
15544TIP3    H168047   6.662   4.842  11.198 -0.6375  1.5781 -0.3034
15544TIP3    H268048   6.672   4.844  11.047  0.3495 -0.0244 -0.2737
15545TIP3   OH268049   5.698   2.244   5.311  0.2923 -0.5250  0.9996
15545TIP3    H168050   5.743   2.211   5.389  1.2264 -0.6185  0.4292
15545TIP3    H268051   5.716   2.338   5.311  0.8912 -0.6359  0.5166
15546TIP3   OH268052   6.725   0.803  11.800 -0.5178  0.0198  0.1837
15546TIP3    H168053   6.813   0.766  11.800 -0.8604 -0.8466 -0.6210
15546TIP3    H268054   6.727   0.870  11.868  1.0234  0.6478 -0.4292
15547TIP3   OH268055   6.448   3.075  12.618  0.0167  0.2512 -0.0711
15547TIP3    H168056   6.407   3.002  12.664  0.9774 -0.8919 -0.9626
15547TIP3    H268057   6.492   3.125  12.686  0.8429 -1.0224  0.3463
15548TIP3   OH268058   3.012   1.576  11.972  0.1449  0.1211 -0.6020
15548TIP3    H168059   3.031   1.486  11.947  2.7780  0.3407  0.2650
15548TIP3    H268060   2.934   1.569  12.029  1.8840 -2.0595  1.7639
15549TIP3   OH268061   2.156   4.189  12.911  0.4130 -0.5636  0.1934
15549TIP3    H168062   2.200   4.273  12.919 -0.7822  0.1517 -0.4013
15549TIP3    H268063   2.118   4.190  12.823 -0.0303 -1.5170  0.3542
15550TIP3   OH268064   1.265   4.067  14.128 -0.1161 -0.1798 -0.5760
15550TIP3    H168065   1.347   4.018  14.127 -0.3808 -0.7388  1.2444
15550TIP3    H268066   1.276   4.130  14.200 -0.9345  0.3792 -0.9187
15551TIP3   OH268067   6.463   1.024  10.950  0.1550 -0.0424  0.4020
15551TIP3    H168068   6.461   1.026  11.045  1.4456 -2.0765  0.5242
15551TIP3    H268069   6.379   0.985  10.925 -1.5242  3.2047  0.4679
15552TIP3   OH268070   2.313   4.781   2.809 -0.4216  0.2030 -0.2427
15552TIP3    H168071   2.252   4.739   2.750  1.1349 -2.8284  0.1134
15552TIP3    H268072   2.285   4.755   2.897 -0.2988  1.2344  0.1285
15553TIP3   OH268073   0.683   4.646  12.796  0.6240  0.1989 -0.0277
15553TIP3    H168074   0.650   4.631  12.708  0.0268  0.5133  0.1361
15553TIP3    H268075   0.750   4.579  12.809 -1.0877 -1.5313  0.2497
15554TIP3   OH268076   3.839   2.467   2.579 -0.2965 -0.1123 -0.2391
15554TIP3    H168077   3.781   2.426   2.514  0.5976 -1.7765 -0.0547
15554TIP3    H268078   3.838   2.560   2.556 -2.4612 -0.1681 -0.6618
15555TIP3   OH268079   2.305   3.677  17.089  0.4186  0.0639 -0.0806
15555TIP3    H168080   2.322   3.635  17.173  0.6180  2.0242  0.9338
15555TIP3    H268081   2.391   3.686  17.048  0.3866 -0.4268 -0.2522
15556TIP3   OH268082   0.126   3.813   6.356  0.0261  0.0254 -0.8200
15556TIP3    H168083   0.110   3.838   6.265 -0.2251  2.8698 -0.0766
15556TIP3    H268084   0.042   3.777   6.386  0.3381 -1.7005 -1.8782
15557TIP3   OH268085   5.097   4.363   0.571  0.5452 -0.0954 -0.0291
15557TIP3    H168086   5.067   4.273   0.575  0.1490  0.0217 -0.2966
15557TIP3    H268087   5.104   4.390   0.663  1.1149 -0.5409  0.0617
15558TIP3   OH268088   0.573   4.593  14.271  0.4453  0.5625  0.0329
15558TIP3    H168089   0.488   4.633  14.291  0.2104  0.4630 -0.7385
15558TIP3    H268090   0.636   4.644  14.323 -0.1997 -0.1002  1.5249
15559TIP3   OH268091   3.486   0.352  11.625  0.2047 -0.0902  0.4275
15559TIP3    H168092   3.435   0.393  11.555  0.8562 -2.3819 -1.5399
15559TIP3    H268093   3.544   0.421  11.655 -0.3121  1.0843 -1.0890
15560TIP3   OH268094   0.414   5.173   6.530 -0.0529 -0.0818  0.0343
15560TIP3    H168095   0.380   5.099   6.481 -0.4295 -0.1190  0.3535
15560TIP3    H268096   0.347   5.192   6.595 -0.8486  1.7329 -1.2225
15561TIP3   OH268097   3.653   5.267  16.931 -0.3660  0.1577  0.5137
15561TIP3    H168098   3.620   5.178  16.945  0.4426 -0.2828 -0.2608
15561TIP3    H268099   3.716   5.258  16.859 -1.2838  1.6024 -0.5174
15562TIP3   OH268100   5.943   1.805  15.648 -0.3923  0.0659 -0.2394
15562TIP3    H168101   5.975   1.854  15.573 -0.9938  0.1977 -0.4144
15562TIP3    H268102   6.022   1.768  15.688 -0.0001  0.5908 -0.5113
15563TIP3   OH268103   3.080   5.428  10.378 -0.6054 -0.5654  0.0669
15563TIP3    H168104   3.017   5.413  10.307  0.2833 -0.9988 -0.6414
15563TIP3    H268105   3.156   5.467  10.335 -1.1346  1.9057  1.2055
15564TIP3   OH268106   5.910   3.591  13.194  0.1926 -0.4462  0.5205
15564TIP3    H168107   5.831   3.565  13.148 -1.2372  0.2227  2.4477
15564TIP3    H268108   5.929   3.517  13.253  0.9546 -0.5533  0.1587
15565TIP3   OH268109   5.968   3.175   3.193  0.0037 -0.6064 -0.3915
15565TIP3    H168110   6.048   3.168   3.247 -0.2027  1.5731  0.2956
15565TIP3    H268111   5.925   3.091   3.204  1.7265 -1.4986 -0.0074
15566TIP3   OH268112   3.326   1.408  12.047  0.1871 -0.1562  0.1966
15566TIP3    H168113   3.242   1.364  12.061 -1.4499  2.6295  0.0758
15566TIP3    H268114   3.345   1.394  11.954 -0.2461 -0.6625  0.1805
15567TIP3   OH268115   3.301   0.369   2.079  0.6806  0.3822 -0.1858
15567TIP3    H168116   3.280   0.376   2.172  1.9425 -0.6890  0.2020
15567TIP3    H268117   3.305   0.460   2.049 -0.4001  0.7245  0.6296
15568TIP3   OH268118   4.412   3.313   4.427 -0.3954  0.2781 -0.3144
15568TIP3    H168119   4.448   3.224   4.433 -0.9321  0.0353 -0.6166
15568TIP3    H268120   4.396   3.326   4.334  2.6802  1.9279 -0.7578
15569TIP3   OH268121   3.770   1.832  11.911  0.4268  0.4377  0.2022
15569TIP3    H168122   3.845   1.858  11.963  1.5248  0.3227 -1.2652
15569TIP3    H268123   3.803   1.825  11.822 -1.0358 -0.8351 -0.2986
15570TIP3   OH268124   3.119   2.668  17.237 -0.1889 -0.4075 -0.2131
15570TIP3    H168125   3.155   2.718  17.310 -0.8810  0.6540 -0.5692
15570TIP3    H268126   3.087   2.734  17.176 -0.1718 -1.2791 -1.2061
15571TIP3   OH268127   0.688   1.645  11.857  0.6819 -0.0431  0.3440
15571TIP3    H168128   0.733   1.728  11.871 -2.6896  1.7507  1.7161
15571TIP3    H268129   0.647   1.654  11.771  4.0458 -2.4104 -1.7753
15572TIP3   OH268130   5.599   1.526   2.126  0.4340  0.0839  0.2378
15572TIP3    H168131   5.613   1.482   2.210  0.0014  1.4161  1.0262
15572TIP3    H268132   5.687   1.549   2.097  0.5028  0.9767  1.0944
15573TIP3   OH268133   2.269   5.400   0.869  0.6104  0.0870  0.2292
15573TIP3    H168134   2.249   5.333   0.935  1.5564 -0.0738  0.3772
15573TIP3    H268135   2.206   5.470   0.885 -0.6575 -0.9239 -0.1794
15574TIP3   OH268136   0.351   2.597  13.802  0.2384  0.8925 -0.6709
15574TIP3    H168137   0.314   2.637  13.881  0.9245  0.1654  0.0344
15574TIP3    H268138   0.335   2.662  13.733 -2.6370  0.4943 -0.5061
15575TIP3   OH268139   4.293   3.031  12.645  0.2284 -0.0633 -0.5397
15575TIP3    H168140   4.350   3.050  12.571  2.2446 -0.4692  0.8004
15575TIP3    H268141   4.354   3.009  12.716 -1.6726 -1.9564  0.6093
15576TIP3   OH268142   4.389   0.420  16.177 -0.5522  0.9598  0.0931
15576TIP3    H168143   4.319   0.483  16.158 -0.3971  2.3369  3.4118
15576TIP3    H268144   4.437   0.459  16.250  1.6041 -1.5541  0.1595
15577TIP3   OH268145   2.176   0.382  13.596 -0.5581  0.4023 -0.7182
15577TIP3    H168146   2.264   0.416  13.582 -0.0055  0.0158  1.4758
15577TIP3    H268147   2.137   0.441  13.661 -1.8455  0.4015 -1.4405
15578TIP3   OH268148   2.656   6.626   7.046  0.0146 -0.5266 -0.4206
15578TIP3    H168149   2.681   6.538   7.073 -1.1701  0.0110  2.9064
15578TIP3    H268150   2.568   6.615   7.008 -0.0229 -0.8293 -0.2527
15579TIP3   OH268151   6.381   3.478  17.174  0.3689 -0.5158 -0.1277
15579TIP3    H168152   6.347   3.567  17.164 -0.2792 -0.9036 -1.8740
15579TIP3    H268153   6.425   3.461  17.091  0.7210 -1.7352  0.2981
15580TIP3   OH268154   1.431   1.048   2.507  0.3471 -0.1863 -0.2228
15580TIP3    H168155   1.367   1.041   2.578 -0.2630  0.7812 -0.6623
15580TIP3    H268156   1.414   0.971   2.453  1.1991 -1.2485  0.9558
15581TIP3   OH268157   6.746   3.053  17.288  0.2290  0.0922  0.2456
15581TIP3    H168158   6.686   2.998  17.338 -1.0332  0.8470 -0.3946
15581TIP3    H268159   6.815   2.993  17.259 -0.2780 -0.8223  0.8688
15582TIP3   OH268160   0.430   1.763   3.886 -0.2591 -0.9212  0.2636
15582TIP3    H168161   0.440   1.805   3.801 -3.3456 -0.2791  0.1123
15582TIP3    H268162   0.480   1.682   3.878 -0.6569 -1.0052 -2.2462
15583TIP3   OH268163   6.075   0.506  13.986  0.2452  0.2887 -0.1399
15583TIP3    H168164   6.167   0.482  13.981 -0.0217 -0.7609 -0.1817
15583TIP3    H268165   6.060   0.527  14.078  0.4758  0.2597 -0.0962
15584TIP3   OH268166   1.038   3.032   0.680  0.0459 -0.1555  0.4009
15584TIP3    H168167   1.038   3.117   0.724  1.4848 -0.1800  0.4973
15584TIP3    H268168   1.117   3.033   0.626 -0.6166 -0.9266 -0.6112
15585TIP3   OH268169   4.429   4.966  10.834 -0.0960  0.1139 -0.3479
15585TIP3    H168170   4.377   4.945  10.756 -2.7860  1.3522  0.9820
15585TIP3    H268171   4.391   4.911  10.903  0.0956  1.3081  0.7507
15586TIP3   OH268172   6.401   3.607  15.725 -0.1730 -0.6517  0.0529
15586TIP3    H168173   6.387   3.513  15.713  2.0088 -0.7775 -2.2721
15586TIP3    H268174   6.484   3.613  15.772  0.5020  0.0772 -1.1839
15587TIP3   OH268175   4.314   0.217   6.542  0.1723 -0.0080  0.3094
15587TIP3    H168176   4.305   0.132   6.500 -2.5375 -0.1523  0.9471
15587TIP3    H268177   4.347   0.197   6.630 -0.2088 -0.4081  0.3695
15588TIP3   OH268178   1.084   6.535   2.004 -0.3501  0.1183 -0.5907
15588TIP3    H168179   1.102   6.447   2.038  1.7842  0.3246 -1.0341
15588TIP3    H268180   1.001   6.526   1.957  0.0456 -1.7953 -1.0086
15589TIP3   OH268181   6.423   0.087  15.217 -0.8588 -0.3780  1.1080
15589TIP3    H168182   6.345   0.057  15.170 -0.8744  0.1669  0.7775
15589TIP3    H268183   6.493   0.032  15.184 -0.6759  0.6718 -0.3351
15590TIP3   OH268184   1.264   3.184  12.458  0.0829 -0.1219 -0.1197
15590TIP3    H168185   1.327   3.113  12.462 -0.4185 -0.5712 -0.0717
15590TIP3    H268186   1.209   3.172  12.536 -0.5711 -0.2240 -0.5934
15591TIP3   OH268187   4.348   2.671   2.356 -0.1709 -0.3009  0.4082
15591TIP3    H168188   4.405   2.662   2.433 -0.7501 -0.1482  0.8661
15591TIP3    H268189   4.261   2.650   2.389 -0.4236 -0.2380 -0.2138
15592TIP3   OH268190   0.645   6.625  16.045 -0.5062  0.3420 -0.3146
15592TIP3    H168191   0.710   6.675  15.995  0.2430  1.2980  1.5020
15592TIP3    H268192   0.691   6.600  16.126 -1.7095 -0.9764 -0.0025
15593TIP3   OH268193   5.364   0.218  10.981 -0.1469  0.3390 -0.1090
15593TIP3    H168194   5.413   0.210  11.063 -1.0090 -0.8171  0.3298
15593TIP3    H268195   5.405   0.291  10.935  1.9791 -0.5424  0.2362
15594TIP3   OH268196   4.834   5.138  12.179  0.3298 -0.3412  0.5723
15594TIP3    H168197   4.887   5.063  12.205  0.3024  0.1991  2.2882
15594TIP3    H268198   4.885   5.180  12.110  0.4940 -1.7404 -0.1955
15595TIP3   OH268199   3.772   6.725  15.254  0.1706  0.2697 -0.6093
15595TIP3    H168200   3.821   6.643  15.258 -2.4404 -1.3459  2.8152
15595TIP3    H268201   3.809   6.771  15.177  2.6005 -3.4561 -1.9449
15596TIP3   OH268202   1.962   1.486   6.254 -0.2698  0.5051 -0.5162
15596TIP3    H168203   1.878   1.448   6.228 -1.9576  4.3499 -1.4374
15596TIP3    H268204   1.945   1.527   6.339  1.5034 -0.8386  0.5532
15597TIP3   OH268205   1.702   4.561  16.487  0.2635  0.2836 -0.1426
15597TIP3    H168206   1.751   4.481  16.509 -0.7739  0.0778  1.6058
15597TIP3    H268207   1.765   4.632  16.500  1.2179 -0.2038 -1.7786
15598TIP3   OH268208   5.398   5.752   3.078 -0.5126  0.0014  0.2910
15598TIP3    H168209   5.384   5.780   2.987 -0.5888  0.7825  0.5315
15598TIP3    H268210   5.421   5.833   3.124 -1.5805 -0.1767  1.1918
15599TIP3   OH268211   5.893   2.138   0.732  0.1872  0.5898 -0.6341
15599TIP3    H168212   5.802   2.154   0.758  0.3124  1.8132 -0.8695
15599TIP3    H268213   5.925   2.075   0.796 -0.2720  1.5865  0.6389
15600TIP3   OH268214   2.455   0.377   3.422  0.0980 -0.2334  0.4101
15600TIP3    H168215   2.535   0.334   3.451  1.7110  1.2756 -1.4839
15600TIP3    H268216   2.466   0.469   3.447 -2.2078 -0.3737  2.2946
15601TIP3   OH268217   0.761   4.148   6.495 -0.1121  0.0030 -0.4873
15601TIP3    H168218   0.675   4.173   6.528 -0.1522  0.2694 -0.7856
15601TIP3    H268219   0.790   4.079   6.554  0.0787  0.8709  0.4726
15602TIP3   OH268220   3.073   6.050   3.836  0.4154  0.5901  0.6892
15602TIP3    H168221   3.115   6.089   3.759  0.0569  2.1165  1.2316
15602TIP3    H268222   3.125   5.972   3.854  0.5392  0.2304 -1.0575
15603TIP3   OH268223   4.192   3.070  15.063 -0.2821 -0.4038 -0.3780
15603TIP3    H168224   4.187   3.004  15.132  1.0296 -2.6631 -2.3131
15603TIP3    H268225   4.272   3.120  15.084 -0.1709 -0.7328  0.0042
15604TIP3   OH268226   1.345   0.541  16.138  0.5124  0.1543 -0.5895
15604TIP3    H168227   1.361   0.555  16.045 -0.6018 -0.0622 -0.8299
15604TIP3    H268228   1.270   0.482  16.141  0.0071  0.8071  0.4400
15605TIP3   OH268229   3.350   0.491  11.384 -0.2856  0.2621 -0.2084
15605TIP3    H168230   3.419   0.454  11.329 -0.7594 -1.5775  0.3791
15605TIP3    H268231   3.369   0.585  11.386  2.5295 -0.2473  0.3942
15606TIP3   OH268232   1.396   5.012  13.427  0.1208 -0.2354  0.0842
15606TIP3    H168233   1.457   4.993  13.355 -0.4843  1.9164 -1.0805
15606TIP3    H268234   1.432   4.963  13.501  1.8639 -1.0073 -1.1780
15607TIP3   OH268235   1.052   6.100  13.525  0.1103 -0.7521  0.0561
15607TIP3    H168236   0.970   6.074  13.566  0.6754 -0.3396  1.4972
15607TIP3    H268237   1.057   6.195  13.538  0.6927 -0.7351 -0.2245
15608TIP3   OH268238   0.587   5.797  15.046  0.2387  0.1856 -0.3229
15608TIP3    H168239   0.578   5.706  15.018 -1.0086  0.2083 -0.0350
15608TIP3    H268240   0.601   5.846  14.965  0.6227 -0.2178 -0.5057
15609TIP3   OH268241   1.199   4.176   6.602  0.7487  0.0184  0.3275
15609TIP3    H168242   1.264   4.133   6.547 -0.2656 -1.7335  0.4291
15609TIP3    H268243   1.135   4.108   6.621 -0.6386  1.4465  0.9877
15610TIP3   OH268244   3.149   1.947   6.524 -0.2802  0.0649  0.0963
15610TIP3    H168245   3.090   1.901   6.583 -1.7506 -0.0187 -1.3784
15610TIP3    H268246   3.143   1.900   6.441  0.8443  0.8592 -0.4669
15611TIP3   OH268247   4.288   3.206   1.580  0.2574 -0.1068  0.0724
15611TIP3    H168248   4.356   3.160   1.629 -1.5728 -0.2521  2.7045
15611TIP3    H268249   4.296   3.297   1.610 -0.4727 -0.0700  0.1614
15612TIP3   OH268250   3.609   3.736  13.362 -0.2596  0.3921  0.0077
15612TIP3    H168251   3.612   3.644  13.388 -0.8562  0.3986  0.0976
15612TIP3    H268252   3.523   3.766  13.390 -0.0846  0.9683 -0.0634
15613TIP3   OH268253   1.782   5.464   0.198  0.6781 -0.1659  0.0086
15613TIP3    H168254   1.734   5.400   0.145  1.5356 -1.5756  0.8751
15613TIP3    H268255   1.717   5.530   0.220 -0.9859 -2.1573  1.3952
15614TIP3   OH268256   2.713   0.648  10.931  0.0271  0.5575 -0.2414
15614TIP3    H168257   2.787   0.599  10.968 -0.4341  0.6362  0.7968
15614TIP3    H268258   2.654   0.580  10.898 -1.6266  0.1891  3.0709
15615TIP3   OH268259   3.043   4.905   2.728 -0.2445  0.2587 -0.5950
15615TIP3    H168260   3.129   4.894   2.766 -1.3780 -0.7012  1.8680
15615TIP3    H268261   3.032   4.829   2.670  0.2966  0.0419 -0.4187
15616TIP3   OH268262   2.326   6.686  13.461  0.0758 -0.1022 -0.3674
15616TIP3    H168263   2.259   6.624  13.432 -0.5920  1.2398 -1.8716
15616TIP3    H268264   2.277   6.761  13.492  0.8804 -0.1644  1.1271
15617TIP3   OH268265   4.387   0.438   3.311  0.1337 -0.1786  0.4067
15617TIP3    H168266   4.294   0.454   3.325  0.2066  0.5645  0.0472
15617TIP3    H268267   4.422   0.521   3.279  0.6753 -0.8068 -0.7012
15618TIP3   OH268268   2.788   1.604   5.473  0.1153  0.3196 -0.1875
15618TIP3    H168269   2.722   1.646   5.527 -0.0036 -1.0584  0.7969
15618TIP3    H268270   2.745   1.526   5.438  1.3438 -0.9229  0.9472
15619TIP3   OH268271   2.680   1.125  11.857 -0.0437 -0.2691 -0.1664
15619TIP3    H168272   2.711   1.205  11.901  0.0079  0.0313 -0.7393
15619TIP3    H268273   2.632   1.078  11.925 -1.4173  0.9947 -0.2021
15620TIP3   OH268274   5.351   1.857   4.675  0.0553 -0.4510  0.1782
15620TIP3    H168275   5.369   1.875   4.768  3.4519  2.9465 -0.8625
15620TIP3    H268276   5.427   1.805   4.647 -0.9178 -1.4040 -0.7516
15621TIP3   OH268277   0.659   6.456   5.549  0.5804 -0.0771 -0.1636
15621TIP3    H168278   0.610   6.474   5.629  0.7083  0.4861 -0.2077
15621TIP3    H268279   0.602   6.396   5.499 -0.1091  0.6352 -0.2532
15622TIP3   OH268280   0.843   6.229  11.998 -0.5814  0.4231 -0.3793
15622TIP3    H168281   0.752   6.240  11.971 -1.2908  2.3238  2.4133
15622TIP3    H268282   0.837   6.181  12.081  0.8707  1.2610  0.2382
15623TIP3   OH268283   3.413   2.511  15.587  0.3391 -0.0911  0.8554
15623TIP3    H168284   3.443   2.496  15.497  0.4203  0.4288  0.7870
15623TIP3    H268285   3.319   2.494  15.585 -0.1604  2.3796  0.0429
15624TIP3   OH268286   4.523   2.097  16.987  0.4892  0.2652  0.0042
15624TIP3    H168287   4.475   2.081  16.906 -0.6811 -1.3395  0.9704
15624TIP3    H268288   4.599   2.038  16.982  1.6411  1.7378 -0.8534
15625TIP3   OH268289   0.988   0.521   0.837  0.0759 -0.3513  0.0905
15625TIP3    H168290   0.936   0.471   0.775  0.2262  1.3665 -1.4859
15625TIP3    H268291   1.077   0.488   0.826 -0.4383 -2.9173  2.4157
15626TIP3   OH268292   3.532   5.170   1.000 -0.0392  1.0131 -0.0929
15626TIP3    H168293   3.552   5.179   1.094 -0.2488 -3.1085  0.5143
15626TIP3    H268294   3.437   5.178   0.995 -0.0660  0.8395  0.1142
15627TIP3   OH268295   6.419   5.994   5.641  0.1259  0.0289 -0.2715
15627TIP3    H168296   6.453   5.971   5.555  2.7552 -0.2669  0.7457
15627TIP3    H268297   6.448   6.084   5.655 -1.6477  0.6396 -0.2868
15628TIP3   OH268298   0.305   3.861  14.564  0.0201  0.4293 -0.5410
15628TIP3    H168299   0.342   3.949  14.561 -0.3390  0.5646 -3.0100
15628TIP3    H268300   0.212   3.872  14.545 -0.3590 -0.3702  0.7116
15629TIP3   OH268301   6.649   5.712   5.696 -0.1057 -0.3163 -0.7420
15629TIP3    H168302   6.601   5.712   5.613  0.8301 -0.3742 -1.2960
15629TIP3    H268303   6.736   5.679   5.673  0.1549 -0.3569  0.2709
15630TIP3   OH268304   2.950   3.551   2.599  0.1224 -0.1998  0.5084
15630TIP3    H168305   2.912   3.633   2.567  2.0904  0.4015 -0.4730
15630TIP3    H268306   2.888   3.484   2.573 -0.7694  0.8221 -0.0865
15631TIP3   OH268307   3.602   6.249  16.495  0.2224  0.0717  0.5981
15631TIP3    H168308   3.564   6.164  16.517 -1.6553  0.2542 -1.6074
15631TIP3    H268309   3.696   6.233  16.488 -0.2596 -2.4185 -1.8525
15632TIP3   OH268310   6.217   1.338   0.212 -0.5424 -0.5573  0.4513
15632TIP3    H168311   6.282   1.286   0.259  1.0197  0.6129 -0.3021
15632TIP3    H268312   6.134   1.293   0.227  0.4573 -2.2097  1.3030
15633TIP3   OH268313   5.970   5.811   2.965  0.2788  0.3570 -0.1699
15633TIP3    H168314   5.906   5.803   2.895  0.4716  3.0754 -0.7404
15633TIP3    H268315   5.939   5.751   3.033 -0.8543 -1.0447 -1.8550
15634TIP3   OH268316   2.415   5.671  11.881 -0.0766  0.1868  0.1765
15634TIP3    H168317   2.425   5.710  11.794 -1.9021 -0.4216 -0.3403
15634TIP3    H268318   2.325   5.640  11.884  0.3441 -1.0260  1.8098
15635TIP3   OH268319   0.266   2.863  11.647  0.3862 -0.1240 -0.1599
15635TIP3    H168320   0.211   2.791  11.617 -0.3654  0.6997 -0.8034
15635TIP3    H268321   0.210   2.914  11.706  0.4216  0.7531 -0.8674
15636TIP3   OH268322   1.745   4.289   2.537 -0.4440 -0.0621 -0.2965
15636TIP3    H168323   1.827   4.255   2.573 -0.7247  1.5650  2.1525
15636TIP3    H268324   1.684   4.215   2.542  0.4306 -0.8343 -0.6761
15637TIP3   OH268325   3.611   2.479  13.359  0.2917 -1.0951 -0.6473
15637TIP3    H168326   3.570   2.549  13.409 -0.2441 -0.7615 -1.5340
15637TIP3    H268327   3.584   2.399  13.404 -0.2459 -0.8063 -0.4457
15638TIP3   OH268328   1.379   5.969  16.932  0.2336 -0.5928  0.8779
15638TIP3    H168329   1.446   5.934  16.874  0.1699  1.0737 -0.2839
15638TIP3    H268330   1.344   6.045  16.885  0.3306  0.9923  3.1960
15639TIP3   OH268331   0.517   0.601   1.236 -0.2560  0.8228 -0.2072
15639TIP3    H168332   0.611   0.617   1.243  0.0091  0.4667 -2.4212
15639TIP3    H268333   0.510   0.514   1.197 -1.5609  0.3140  1.0356
15640TIP3   OH268334   5.147   3.752   4.268  0.2480 -0.2376 -0.6241
15640TIP3    H168335   5.070   3.711   4.307  0.3056 -0.5741 -0.8645
15640TIP3    H268336   5.207   3.679   4.251  0.3732 -0.0490 -0.9987
15641TIP3   OH268337   6.252   6.355   4.525  0.1812 -0.2427  0.1767
15641TIP3    H168338   6.166   6.394   4.543 -0.5993 -0.4471 -2.5888
15641TIP3    H268339   6.233   6.262   4.510  0.2894  0.1590 -3.2533
15642TIP3   OH268340   1.557   5.506  10.752 -0.1339  0.0877  0.4254
15642TIP3    H168341   1.557   5.429  10.696  0.6318  0.9978 -0.8742
15642TIP3    H268342   1.635   5.497  10.806  1.4288  1.1651 -1.5330
15643TIP3   OH268343   6.152   2.143  14.950 -0.7813  0.0044 -0.4317
15643TIP3    H168344   6.177   2.054  14.976  2.7477  1.5222  2.3580
15643TIP3    H268345   6.069   2.159  14.994  0.3063 -0.8372  2.1542
15644TIP3   OH268346   2.025   6.188   1.137 -0.0222 -0.3693  0.7754
15644TIP3    H168347   2.053   6.255   1.075 -3.5887  1.1278  0.5103
15644TIP3    H268348   2.013   6.109   1.085  1.2780 -0.3933  0.4879
15645TIP3   OH268349   2.522   2.299  15.969  0.1271 -0.4311 -0.6998
15645TIP3    H168350   2.525   2.219  15.917  1.6300 -1.9482  1.5591
15645TIP3    H268351   2.498   2.269  16.057  2.5009  1.3264  0.6340
15646TIP3   OH268352   1.501   2.987  15.247 -0.0717 -0.5374 -0.3362
15646TIP3    H168353   1.422   2.935  15.238 -0.5896  0.3890 -1.2464
15646TIP3    H268354   1.480   3.052  15.314  0.2888 -0.9341  0.1777
15647TIP3   OH268355   6.369   5.834  16.774  0.0645 -0.1140 -0.3449
15647TIP3    H168356   6.398   5.761  16.720 -1.8836  0.3552 -2.1763
15647TIP3    H268357   6.279   5.811  16.798  0.6682 -0.0491  2.3571
15648TIP3   OH268358   2.664   6.208   4.083  0.1834  0.5074 -0.0065
15648TIP3    H168359   2.658   6.125   4.130 -0.3657  1.5977  1.9912
15648TIP3    H268360   2.755   6.235   4.094  0.2919  0.3012 -0.4066
15649TIP3   OH268361   4.172   2.820  11.583 -0.3783 -0.2595  0.1433
15649TIP3    H168362   4.109   2.848  11.649  0.0147 -0.7214  0.7205
15649TIP3    H268363   4.201   2.901  11.541  0.4186  0.1666  1.4823
15650TIP3   OH268364   2.534   0.692  13.441  0.8978  0.5565  0.4115
15650TIP3    H168365   2.444   0.720  13.423  2.0280  3.1755 -2.0767
15650TIP3    H268366   2.558   0.640  13.365  1.9827  1.3952  0.1456
15651TIP3   OH268367   5.989   1.838   1.647  0.2398 -0.1538  0.3734
15651TIP3    H168368   5.942   1.919   1.630 -1.0961 -1.0642 -0.4875
15651TIP3    H268369   6.021   1.810   1.561  2.1671  0.2797  0.8917
15652TIP3   OH268370   1.880   0.582  15.230  0.0978  0.4005 -0.2810
15652TIP3    H168371   1.868   0.506  15.287 -0.9477 -1.4019 -2.7439
15652TIP3    H268372   1.970   0.576  15.199  0.3127  0.7366  0.2653
15653TIP3   OH268373   0.610   5.805  13.839 -0.7581 -0.3693 -0.2247
15653TIP3    H168374   0.543   5.865  13.805 -0.4328 -0.6054 -1.3274
15653TIP3    H268375   0.560   5.742  13.891 -1.0574  1.0572  1.2749
15654TIP3   OH268376   5.309   5.400  15.722 -0.1270  0.0911 -0.1445
15654TIP3    H168377   5.362   5.479  15.733 -0.9408  0.4465  1.5585
15654TIP3    H268378   5.250   5.422  15.649  0.8473  0.3570 -0.8688
15655TIP3   OH268379   0.429   3.829  13.650 -0.5548 -0.4281  0.0126
15655TIP3    H168380   0.454   3.796  13.563 -0.7628 -1.0929  0.2000
15655TIP3    H268381   0.345   3.787  13.669 -1.0027  0.4776  0.1201
15656TIP3   OH268382   2.258   0.510   6.680 -0.4079 -0.0050  0.3086
15656TIP3    H168383   2.239   0.423   6.714  0.1572 -0.0964  0.4029
15656TIP3    H268384   2.218   0.570   6.743 -0.0271 -0.1866  0.7313
15657TIP3   OH268385   1.433   2.563  13.890 -0.1912 -0.5278 -0.1573
15657TIP3    H168386   1.416   2.525  13.803 -0.5039 -2.4196  0.6628
15657TIP3    H268387   1.357   2.536  13.942  0.3011  0.0268  0.8599
15658TIP3   OH268388   2.618   4.183   0.726 -0.2963  0.3797  0.7001
15658TIP3    H168389   2.665   4.167   0.808 -1.6731 -0.1226  1.4348
15658TIP3    H268390   2.667   4.133   0.660  1.3214  1.4756  1.0098
15659TIP3   OH268391   4.546   0.605  16.287 -0.6001 -0.1413 -0.0727
15659TIP3    H168392   4.499   0.627  16.207 -2.3853  0.0226  0.9511
15659TIP3    H268393   4.633   0.643  16.276 -1.0586  0.5256 -1.6074
15660TIP3   OH268394   2.358   0.382   5.436  0.0628  0.1155 -0.0854
15660TIP3    H168395   2.419   0.395   5.363  0.2354  0.5966  0.1410
15660TIP3    H268396   2.388   0.302   5.478  1.8385  1.4137  1.2762
15661TIP3   OH268397   3.163   3.149  16.149  0.7986  0.3463  0.0418
15661TIP3    H168398   3.187   3.069  16.102 -0.1650 -0.5048  0.9391
15661TIP3    H268399   3.211   3.143  16.232  0.0094  0.2270  0.4985
15662TIP3   OH268400   5.368   0.028   5.173 -0.4794  0.1601  0.2934
15662TIP3    H168401   5.312  -0.023   5.114  1.8539 -2.0746 -0.1676
15662TIP3    H268402   5.425  -0.037   5.214  2.4070  2.3374  0.0349
15663TIP3   OH268403   1.611   4.457   4.333 -0.2264  0.5862 -0.3698
15663TIP3    H168404   1.643   4.383   4.281 -1.9122  0.9975 -2.1225
15663TIP3    H268405   1.517   4.440   4.344 -0.1542  1.2120  1.4176
15664TIP3   OH268406   4.303   2.176  15.722 -0.9477  0.0122  0.4931
15664TIP3    H168407   4.394   2.168  15.693 -1.6536  0.8232 -2.1732
15664TIP3    H268408   4.308   2.166  15.818  1.7613 -1.1292  0.3254
15665TIP3   OH268409   5.065   6.049   2.165 -0.2398 -0.5622  0.0184
15665TIP3    H168410   5.011   6.124   2.189  0.9003 -0.4376  2.4659
15665TIP3    H268411   5.097   6.070   2.077 -1.3161  0.9862 -0.0480
15666TIP3   OH268412   6.260   3.720  16.640  0.0585  0.4773  0.6552
15666TIP3    H168413   6.232   3.668  16.716 -1.0628  1.7397  1.1307
15666TIP3    H268414   6.253   3.811  16.669 -1.3570  1.0330 -1.2757
15667TIP3   OH268415   5.380   4.945   2.092  0.2657  0.2536 -0.5274
15667TIP3    H168416   5.474   4.956   2.082  0.1340  1.0898 -0.9369
15667TIP3    H268417   5.370   4.877   2.158  1.1528  0.5951 -0.0375
15668TIP3   OH268418   3.475   3.375   1.060 -0.3002 -0.0507  0.2390
15668TIP3    H168419   3.556   3.355   1.013 -1.3005 -1.1349 -1.1228
15668TIP3    H268420   3.452   3.463   1.031  0.2785  0.1832  0.4761
15669TIP3   OH268421   5.193   3.545   3.481  0.2958  0.2993 -0.1569
15669TIP3    H168422   5.270   3.549   3.538  0.8322 -2.4293 -0.5434
15669TIP3    H268423   5.155   3.459   3.499 -0.7737  0.2620 -2.3232
15670TIP3   OH268424   4.712   0.700  11.941 -0.0722  0.3518 -0.2247
15670TIP3    H168425   4.764   0.703  11.861  1.7317  0.1973  0.8858
15670TIP3    H268426   4.729   0.614  11.979  1.3639  1.3884  1.6936
15671TIP3   OH268427   6.601   4.839   2.711  0.2915  0.1650 -0.1902
15671TIP3    H168428   6.564   4.788   2.639  0.1951 -0.9510  0.6148
15671TIP3    H268429   6.681   4.791   2.735  1.4124  1.6400 -0.8511
15672TIP3   OH268430   6.272   4.685  15.670 -0.1077  0.0916  0.0546
15672TIP3    H168431   6.199   4.623  15.675  0.7094 -1.0836 -1.6171
15672TIP3    H268432   6.306   4.689  15.759 -0.6945 -1.2438  0.3667
15673TIP3   OH268433   4.146   3.385   1.804 -0.3484 -0.0929  0.0576
15673TIP3    H168434   4.138   3.331   1.883  0.0234 -0.0876  0.1028
15673TIP3    H268435   4.092   3.462   1.821 -1.1834 -0.6210 -0.1597
15674TIP3   OH268436   3.796   2.350  12.453  0.3326  0.3244  0.4080
15674TIP3    H168437   3.872   2.407  12.441  1.0149 -0.7758 -0.8017
15674TIP3    H268438   3.792   2.298  12.373 -0.5827 -0.9440  1.2288
15675TIP3   OH268439   1.719   6.590   1.351 -1.0875 -0.1766  0.3588
15675TIP3    H168440   1.682   6.544   1.427 -2.2023 -0.3789 -0.2742
15675TIP3    H268441   1.647   6.591   1.287  0.8870 -3.4638 -2.2464
15676TIP3   OH268442   1.630   2.672   1.920 -0.0579  0.4476 -0.6645
15676TIP3    H168443   1.657   2.593   1.872 -0.9016  0.2686 -0.8633
15676TIP3    H268444   1.638   2.742   1.856 -2.9528 -0.0465 -1.7523
15677TIP3   OH268445   6.325   4.041   1.415 -0.5138  0.6484  0.3693
15677TIP3    H168446   6.292   4.121   1.373  1.1050  1.0570 -0.1882
15677TIP3    H268447   6.350   3.985   1.342  1.7803  1.1290  0.7048
15678TIP3   OH268448   4.378   6.174   0.959  0.4094  0.0133 -0.0638
15678TIP3    H168449   4.452   6.129   1.000 -0.4503 -0.1652  1.3726
15678TIP3    H268450   4.333   6.216   1.032  1.8974  4.4802 -1.3660
15679TIP3   OH268451   3.085   3.766  14.264 -0.3448  0.0353 -0.8719
15679TIP3    H168452   3.156   3.729  14.212 -0.2538 -0.3786 -0.4635
15679TIP3    H268453   3.105   3.859  14.271  1.7319 -0.4784  1.6261
15680TIP3   OH268454   1.159   1.742   1.076  0.0398  0.0228 -0.4310
15680TIP3    H168455   1.137   1.834   1.062  0.2549  0.3899  1.3808
15680TIP3    H268456   1.169   1.734   1.171  1.2074 -1.6094 -0.6521
15681TIP3   OH268457   5.185   0.553   0.891 -0.0563 -0.0388  0.0174
15681TIP3    H168458   5.265   0.504   0.910 -0.3949 -0.7076 -0.2473
15681TIP3    H268459   5.131   0.543   0.969 -0.0814  0.0122  0.0068
15682TIP3   OH268460   2.495   2.181  15.265 -0.1481 -0.2290 -0.5871
15682TIP3    H168461   2.483   2.253  15.202  2.1814 -1.2620 -2.3464
15682TIP3    H268462   2.511   2.104  15.210  1.7887 -1.2239  1.2653
15683TIP3   OH268463   5.997   2.500  14.178 -0.3113 -0.4924  0.1964
15683TIP3    H168464   5.996   2.430  14.243  0.4039 -0.9164 -0.2341
15683TIP3    H268465   6.088   2.527  14.173 -0.3517 -0.4729 -0.6347
15684TIP3   OH268466   2.452   2.702   5.293 -0.0259  0.0720 -0.2666
15684TIP3    H168467   2.417   2.779   5.340 -0.7792 -0.0184 -0.6597
15684TIP3    H268468   2.451   2.728   5.201  0.2265 -0.2168 -0.3499
15685TIP3   OH268469   2.714   0.074   4.581 -0.4688  0.1905 -0.1399
15685TIP3    H168470   2.764  -0.006   4.565  0.0833  0.2608  1.1162
15685TIP3    H268471   2.687   0.103   4.494 -1.1986 -1.6736 -0.5924
15686TIP3   OH268472   2.629   4.976   4.294  0.3895  0.2588  0.3272
15686TIP3    H168473   2.619   4.887   4.325 -1.6187  1.3295  3.1684
15686TIP3    H268474   2.658   5.026   4.371  2.5986  1.9595 -1.4337
15687TIP3   OH268475   5.640   2.996   2.868  0.2982 -0.3512 -0.3076
15687TIP3    H168476   5.710   2.986   2.933  0.2875 -0.2235 -0.2759
15687TIP3    H268477   5.685   3.004   2.785  0.3971  1.2610 -0.1257
15688TIP3   OH268478   6.070   2.377   4.545  0.0826 -0.8374 -0.1244
15688TIP3    H168479   6.042   2.400   4.456  0.8357 -0.2763 -0.2252
15688TIP3    H268480   5.990   2.348   4.588 -0.5580  0.1911 -0.5765
15689TIP3   OH268481   0.950   3.631   4.588 -0.7656 -0.1149 -0.1133
15689TIP3    H168482   0.884   3.616   4.656 -0.8539 -1.7253 -0.5258
15689TIP3    H268483   1.011   3.693   4.628 -2.3214  1.1688  0.4021
15690TIP3   OH268484   6.496   1.926  12.257 -0.1688 -0.4316 -0.2364
15690TIP3    H168485   6.509   1.846  12.206 -1.3081 -1.1109  0.5099
15690TIP3    H268486   6.403   1.926  12.280 -0.4953  1.7367 -1.2387
15691TIP3   OH268487   1.298   1.859   0.422 -0.6113  0.0571 -0.3599
15691TIP3    H168488   1.342   1.774   0.421  0.9138  0.8105 -0.5575
15691TIP3    H268489   1.208   1.839   0.446 -1.2621 -2.0260 -3.7973
15692TIP3   OH268490   3.978   5.021   0.149 -0.0367 -0.1633  0.1087
15692TIP3    H168491   4.033   5.046   0.075  1.5757 -0.6890  1.0779
15692TIP3    H268492   4.032   5.040   0.226 -1.0541 -1.1075  1.0824
15693TIP3   OH268493   0.245   1.078   4.942 -0.1565 -0.3133  0.4609
15693TIP3    H168494   0.246   0.983   4.941 -0.7612 -0.3255 -0.5608
15693TIP3    H268495   0.265   1.102   5.033 -1.6004 -1.4496  1.1236
15694TIP3   OH268496   1.102   6.125   0.521 -0.4806 -0.2985 -0.1408
15694TIP3    H168497   1.089   6.198   0.582 -0.6135  0.6346 -1.2498
15694TIP3    H268498   1.134   6.167   0.441 -1.3077 -1.3697 -1.0615
15695TIP3   OH268499   4.599   4.085   0.859 -0.5126  0.2379  0.1413
15695TIP3    H168500   4.548   4.110   0.782 -1.3954 -1.3462  0.1875
15695TIP3    H268501   4.640   4.002   0.835  0.8132  0.7089  0.6755
15696TIP3   OH268502   6.223   0.687   5.436 -0.3182 -0.2290  0.2104
15696TIP3    H168503   6.201   0.601   5.471 -0.6615 -0.9252 -1.5930
15696TIP3    H268504   6.151   0.708   5.377  0.6658  0.3999 -0.8216
15697TIP3   OH268505   4.808   1.755  13.544  0.1689 -0.2873 -0.0470
15697TIP3    H168506   4.753   1.830  13.566 -0.5921 -0.4518 -1.2614
15697TIP3    H268507   4.783   1.687  13.606  0.2307  0.1755  0.4924
15698TIP3   OH268508   5.071   0.126  11.486  0.0463  0.4468  0.0960
15698TIP3    H168509   5.011   0.196  11.459 -0.7696 -0.3440 -0.2048
15698TIP3    H268510   5.139   0.126  11.419  0.7858  1.8116  0.8110
15699TIP3   OH268511   1.941   2.797  16.217  0.0533  0.6003  0.5348
15699TIP3    H168512   1.969   2.710  16.190 -3.6319 -0.8755  0.8878
15699TIP3    H268513   1.937   2.847  16.135 -2.2014 -1.0683 -0.5003
15700TIP3   OH268514   4.812   2.921  14.991 -0.0491 -0.3117  0.0011
15700TIP3    H168515   4.753   2.907  14.917  1.2039 -1.4802 -0.8185
15700TIP3    H268516   4.844   2.834  15.013  1.0008  0.2382  0.7406
15701TIP3   OH268517   3.195   6.589   1.734 -0.1709 -0.6246  0.4868
15701TIP3    H168518   3.120   6.558   1.684  0.1289  0.1970 -0.4971
15701TIP3    H268519   3.270   6.544   1.696  0.2142  0.9225 -0.6807
15702TIP3   OH268520   2.411   6.014  11.254  0.1114  0.1794  0.0748
15702TIP3    H168521   2.357   6.065  11.194  0.4283  0.6239  0.1574
15702TIP3    H268522   2.444   6.078  11.317  1.8789  0.2031 -0.8015
15703TIP3   OH268523   1.359   2.565  13.128 -0.5729  0.1263 -0.2674
15703TIP3    H168524   1.422   2.531  13.192  2.6487  1.0198 -2.7126
15703TIP3    H268525   1.372   2.660  13.129 -2.2369  0.3838 -0.5461
15704TIP3   OH268526   2.170   0.529   6.004  0.4737 -0.2564 -0.3866
15704TIP3    H168527   2.259   0.562   5.991  0.5992 -0.2411  0.4777
15704TIP3    H268528   2.126   0.597   6.055  0.6560 -1.2902  1.1881
15705TIP3   OH268529   2.532   4.057  13.176 -0.2655  0.2572  0.1408
15705TIP3    H168530   2.463   4.031  13.238 -0.8473  0.5345 -0.3895
15705TIP3    H268531   2.567   4.138  13.213  0.3811 -0.3385  0.8763
15706TIP3   OH268532   3.438   1.393  15.334 -0.3549  0.3818 -0.0338
15706TIP3    H168533   3.496   1.441  15.394 -2.3414  4.3826 -0.9831
15706TIP3    H268534   3.378   1.346  15.391  0.7347  0.1654  0.9912
15707TIP3   OH268535   1.684   6.374   3.620 -0.0009  0.1089 -0.2018
15707TIP3    H168536   1.695   6.308   3.688  3.2932 -0.6173 -1.2734
15707TIP3    H268537   1.628   6.440   3.661  0.5274 -1.0310  2.6532
15708TIP3   OH268538   4.209   6.498   3.903  0.1666 -0.1134  0.7906
15708TIP3    H168539   4.170   6.579   3.936 -0.6224 -1.1536  2.5536
15708TIP3    H268540   4.158   6.429   3.944  1.6967 -1.5243  0.4218
15709TIP3   OH268541   5.929   0.588   3.654  0.2155  0.2416  0.3931
15709TIP3    H168542   5.905   0.609   3.745  1.4006 -0.0103  0.7748
15709TIP3    H268543   5.981   0.663   3.626  1.3043 -0.4596  0.5061
15710TIP3   OH268544   4.652   0.906  13.543  0.5638 -0.9652 -0.0252
15710TIP3    H168545   4.712   0.835  13.520  0.7119 -0.8251 -0.0713
15710TIP3    H268546   4.618   0.937  13.459  1.0320 -0.5172 -0.0499
15711TIP3   OH268547   1.151   2.757  13.052 -0.1141 -0.0169 -0.3678
15711TIP3    H168548   1.162   2.673  13.096 -1.2028 -0.4635 -0.9031
15711TIP3    H268549   1.056   2.766  13.040 -0.3531  2.6448  2.2567
15712TIP3   OH268550   2.639   1.786   5.342  0.4673  0.2965  0.3609
15712TIP3    H168551   2.654   1.821   5.430 -1.6923 -1.5751  1.5764
15712TIP3    H268552   2.611   1.696   5.357  0.3590 -0.1866 -2.3019
15713TIP3   OH268553   1.580   1.699   6.399 -0.3589 -0.7782 -0.1924
15713TIP3    H168554   1.523   1.770   6.428  0.0136 -1.0247  1.2155
15713TIP3    H268555   1.524   1.646   6.342 -1.4424 -0.7982  0.8416
15714TIP3   OH268556   6.737   4.423  17.193  0.2787  0.5386 -0.0547
15714TIP3    H168557   6.665   4.450  17.250 -0.1217  0.4271 -0.4955
15714TIP3    H268558   6.758   4.334  17.221 -0.7486  0.0178 -0.8772
15715TIP3   OH268559   1.394   1.492   5.328  0.0238  0.3219 -0.4185
15715TIP3    H168560   1.462   1.459   5.268 -0.6143 -0.7232 -0.5902
15715TIP3    H268561   1.431   1.573   5.363  0.4225  0.9669 -2.2186
15716TIP3   OH268562   6.561   1.217  15.865  0.4383 -0.1061 -0.2578
15716TIP3    H168563   6.479   1.254  15.831 -0.4854 -2.3425 -0.6474
15716TIP3    H268564   6.610   1.191  15.787  1.4849  1.0912 -0.0195
15717TIP3   OH268565   4.374   2.653  15.252  0.1799  0.6180 -0.8087
15717TIP3    H168566   4.461   2.633  15.216  0.0205 -2.1914  0.1420
15717TIP3    H268567   4.314   2.635  15.180  0.2866  2.0272 -1.2909
15718TIP3   OH268568   5.385   5.035   6.404 -0.6609  0.2200 -0.4414
15718TIP3    H168569   5.320   5.104   6.396 -1.3996 -0.2314  1.2049
15718TIP3    H268570   5.343   4.968   6.458  0.7796 -0.5646 -0.2206
15719TIP3   OH268571   2.001   4.447  11.030 -0.1470 -0.0534  0.7765
15719TIP3    H168572   1.933   4.408  11.084 -0.6144  1.2556  1.1558
15719TIP3    H268573   2.071   4.381  11.029 -0.2728 -0.2615  2.6712
15720TIP3   OH268574   3.883   1.224   5.512 -0.6883  0.6619 -0.3905
15720TIP3    H168575   3.900   1.318   5.500 -1.0380  0.7085 -0.5284
15720TIP3    H268576   3.931   1.182   5.441  0.2144  0.6659  0.2087
15721TIP3   OH268577   5.793   5.130  13.925  0.5209 -0.0888  0.6756
15721TIP3    H168578   5.726   5.198  13.928 -0.8137 -1.4094  2.5763
15721TIP3    H268579   5.769   5.069  13.994  1.1966 -2.9347 -1.4000
15722TIP3   OH268580   2.867   1.744   5.200  0.5736 -0.4725  0.0206
15722TIP3    H168581   2.809   1.711   5.268  1.4350  0.0757  1.0538
15722TIP3    H268582   2.845   1.693   5.122 -1.5640  0.0230  0.2618
15723TIP3   OH268583   5.626   6.317  13.170 -0.3505 -0.2808 -0.4151
15723TIP3    H168584   5.599   6.293  13.259 -2.5310  1.8700 -0.4118
15723TIP3    H268585   5.702   6.373  13.183  2.3714 -3.6319 -0.2666
15724TIP3   OH268586   1.309   0.403   5.057  0.0885 -0.0072  0.0320
15724TIP3    H168587   1.273   0.331   5.111  0.8101 -0.6288 -0.2978
15724TIP3    H268588   1.375   0.443   5.113  0.6645 -0.4954 -0.2915
15725TIP3   OH268589   4.138   2.677   1.134 -0.0320  0.1257 -0.4838
15725TIP3    H168590   4.216   2.648   1.088  0.6440 -3.0968  2.2983
15725TIP3    H268591   4.169   2.745   1.194  0.4433 -0.3429 -0.1896
15726TIP3   OH268592   3.206   3.034   2.705 -0.1526 -0.0190  0.5747
15726TIP3    H168593   3.182   2.960   2.651 -1.3224  1.7068 -1.3964
15726TIP3    H268594   3.294   3.058   2.675 -0.7758  0.8991 -0.5959
15727TIP3   OH268595   4.490   2.946  14.021 -0.5126  0.3596  0.2628
15727TIP3    H168596   4.538   2.863  14.025  0.4557  0.8182 -1.1065
15727TIP3    H268597   4.547   3.009  14.063 -1.0640  0.4233  0.9265
15728TIP3   OH268598   3.294   6.494   5.796  0.1503  0.0426  0.2740
15728TIP3    H168599   3.208   6.454   5.788 -0.0165  0.6008 -1.0235
15728TIP3    H268600   3.298   6.526   5.885  0.1167 -2.4207  1.2484
15729TIP3   OH268601   4.958   5.141   5.608 -0.4914  0.1134 -0.5654
15729TIP3    H168602   4.963   5.090   5.689 -1.4036  0.4305 -0.3014
15729TIP3    H268603   4.941   5.077   5.540 -0.6106 -0.0578 -0.3763
15730TIP3   OH268604   1.889   2.886   3.975  0.4482 -0.0599  0.9770
15730TIP3    H168605   1.796   2.904   3.991  0.7898  2.0267  0.8335
15730TIP3    H268606   1.929   2.890   4.062  0.8477  2.1368  0.7476
15731TIP3   OH268607   5.451   0.453  10.818  0.1527 -0.2083 -0.2104
15731TIP3    H168608   5.389   0.521  10.792  0.6089 -0.0632 -0.9610
15731TIP3    H268609   5.527   0.502  10.850  0.8281 -0.3263 -1.5605
15732TIP3   OH268610   1.559   0.800  10.983 -0.1428 -0.2858  0.6797
15732TIP3    H168611   1.551   0.895  10.980 -0.2601 -0.2826  0.9899
15732TIP3    H268612   1.597   0.775  10.899 -1.3228 -0.0909  0.0710
15733TIP3   OH268613   2.537   6.345  16.121  0.2540  0.2334  0.0915
15733TIP3    H168614   2.622   6.380  16.149  0.2724  0.4343 -0.2193
15733TIP3    H268615   2.475   6.377  16.187  0.4926 -0.3276  0.6042
15734TIP3   OH268616   5.004   0.053   2.660  0.0807  0.1974  0.3148
15734TIP3    H168617   4.941  -0.006   2.701  0.9211 -1.4729 -0.6712
15734TIP3    H268618   5.090   0.014   2.680  0.6323  0.8335 -0.7312
15735TIP3   OH268619   2.608   5.230   1.285 -1.5077 -0.8061 -0.1950
15735TIP3    H168620   2.634   5.211   1.194 -2.5126  0.4512 -0.7761
15735TIP3    H268621   2.555   5.154   1.310  1.0941 -2.5669  0.4086
15736TIP3   OH268622   2.489   5.470   3.629 -0.1410 -0.0880 -0.1934
15736TIP3    H168623   2.473   5.445   3.720 -0.8584  0.9264 -0.0306
15736TIP3    H268624   2.439   5.407   3.577 -1.3060  0.5050  0.1873
15737TIP3   OH268625   5.142   6.610   3.760  0.1934  0.0331  0.5190
15737TIP3    H168626   5.100   6.528   3.735  2.7749 -1.3483  0.3793
15737TIP3    H268627   5.155   6.603   3.855 -0.0821  0.5700  0.6038
15738TIP3   OH268628   0.856   2.652  13.895 -0.1968 -0.0755 -0.1899
15738TIP3    H168629   0.761   2.661  13.903  0.0301  0.7444  5.0468
15738TIP3    H268630   0.874   2.564  13.927  0.8767 -0.0045 -0.5556
15739TIP3   OH268631   6.629   2.507  12.768  0.4654  0.1535 -0.2647
15739TIP3    H168632   6.689   2.497  12.694  2.7967  1.7131  1.2607
15739TIP3    H268633   6.585   2.591  12.751  0.5129  0.1945 -0.1812
15740TIP3   OH268634   0.616   3.594  16.147 -0.4636 -0.4147  0.0782
15740TIP3    H168635   0.523   3.593  16.128 -0.1002  0.9006 -2.0876
15740TIP3    H268636   0.631   3.679  16.189 -0.1777 -0.4284  0.0073
15741TIP3   OH268637   5.068   4.744   5.988 -0.1395  0.3085  0.0605
15741TIP3    H168638   5.074   4.686   5.912 -0.0626 -1.4494  1.3417
15741TIP3    H268639   5.098   4.690   6.061 -1.3926  1.5233  1.5428
15742TIP3   OH268640   4.776   5.050  13.069  0.1601 -0.2699 -0.3835
15742TIP3    H168641   4.838   5.057  13.141 -0.0407  4.3674 -0.3862
15742TIP3    H268642   4.693   5.082  13.106 -0.1364  1.4694 -2.3841
15743TIP3   OH268643   2.514   6.334  16.617  0.5805  0.3280  0.4138
15743TIP3    H168644   2.494   6.246  16.588  1.7477  0.3405 -0.5031
15743TIP3    H268645   2.567   6.321  16.696 -1.1448  0.2741  1.6188
15744TIP3   OH268646   2.764   6.469  15.856  0.1701  0.2549  0.9398
15744TIP3    H168647   2.679   6.513  15.848  0.2621  0.3284  0.2787
15744TIP3    H268648   2.819   6.531  15.903  0.9578  1.8738 -1.8789
15745TIP3   OH268649   4.712   1.954   1.077  0.3669 -0.2389  0.3578
15745TIP3    H168650   4.764   1.898   1.135  1.2534  0.9066  0.7016
15745TIP3    H268651   4.621   1.931   1.096  0.6277  0.2000  2.3006
15746TIP3   OH268652   3.101   4.423   1.752 -0.2378  0.0727 -0.8233
15746TIP3    H168653   3.072   4.500   1.703 -1.3024  0.3594  0.2073
15746TIP3    H268654   3.174   4.387   1.701  0.2381  1.7243 -1.3455
15747TIP3   OH268655   1.767   3.669  14.172  0.0457  0.1149  0.2099
15747TIP3    H168656   1.809   3.701  14.093  1.3185  1.2796  1.3110
15747TIP3    H268657   1.794   3.577  14.178  0.1059  0.0760 -0.5804
15748TIP3   OH268658   1.966   2.008  13.295  0.7434  0.4462 -0.3612
15748TIP3    H168659   1.920   2.062  13.231 -0.0814  0.0570 -0.1076
15748TIP3    H268660   2.059   2.016  13.271  0.3894 -0.4725 -2.2043
15749TIP3   OH268661   2.884   1.540   4.292 -0.6672 -0.1754  0.2181
15749TIP3    H168662   2.875   1.530   4.387 -0.4392 -2.1428  0.0869
15749TIP3    H268663   2.814   1.600   4.267 -0.7269  0.3869  1.6243
15750TIP3   OH268664   3.674   5.382  11.461  0.4585  0.3620 -0.0494
15750TIP3    H168665   3.654   5.374  11.367  0.6636 -1.7854  0.0246
15750TIP3    H268666   3.734   5.309  11.478 -0.7965 -0.2778  2.0506
15751TIP3   OH268667   4.444   4.660  16.475  0.4248 -0.0146  0.0785
15751TIP3    H168668   4.461   4.660  16.569  0.7307 -0.0973  0.0220
15751TIP3    H268669   4.504   4.594  16.439 -1.6859 -2.1372  0.1801
15752TIP3   OH268670   5.567   1.843  13.691 -0.5955  0.1773 -0.5003
15752TIP3    H168671   5.477   1.875  13.691 -0.6051  0.3125 -2.6310
15752TIP3    H268672   5.582   1.814  13.601  1.5645  0.3550 -0.2523
15753TIP3   OH268673   6.283   1.767  12.514 -0.1228 -0.3157 -0.1927
15753TIP3    H168674   6.305   1.860  12.501  0.3754 -0.5849 -1.4849
15753TIP3    H268675   6.212   1.768  12.578  0.3473  0.9109  0.3568
15754TIP3   OH268676   1.180   3.650   1.970  0.2476 -0.2326 -0.7375
15754TIP3    H168677   1.225   3.654   2.054 -0.9862  0.6401 -0.0741
15754TIP3    H268678   1.191   3.737   1.932  1.4098 -0.8295 -1.8471
15755TIP3   OH268679   0.484   1.175   3.413  0.3208 -0.0461  0.2278
15755TIP3    H168680   0.446   1.214   3.334  0.5249 -0.0707  0.1166
15755TIP3    H268681   0.423   1.198   3.483 -0.2791 -0.6845 -0.0675
15756TIP3   OH268682   2.161   1.271  13.477 -0.2748 -0.1008 -0.1947
15756TIP3    H168683   2.254   1.255  13.465 -0.2082 -0.0895  0.2700
15756TIP3    H268684   2.157   1.344  13.539 -0.5921 -0.1807 -0.1189
15757TIP3   OH268685   3.707   2.206   4.886  0.3677 -0.0681  0.1602
15757TIP3    H168686   3.741   2.288   4.850  0.0132  0.4220  0.9097
15757TIP3    H268687   3.717   2.216   4.981 -1.5758 -0.0325  0.3871
15758TIP3   OH268688   4.690   6.143  15.343  0.1551  0.0774  0.6135
15758TIP3    H168689   4.739   6.184  15.271 -0.4422  0.0164  0.1620
15758TIP3    H268690   4.752   6.080  15.381  0.4802  0.1117  0.1499
15759TIP3   OH268691   2.614   5.621   1.503 -0.1788 -1.0610  0.5335
15759TIP3    H168692   2.595   5.546   1.559  3.3031 -1.4845  1.3649
15759TIP3    H268693   2.607   5.587   1.413 -1.6069 -1.4998  0.7851
15760TIP3   OH268694   0.370   3.455   5.641  0.0213 -0.6808  0.7147
15760TIP3    H168695   0.338   3.417   5.560 -0.0106 -0.0569  0.4264
15760TIP3    H268696   0.456   3.490   5.618 -0.0304 -0.4153  0.9234
15761TIP3   OH268697   4.880   3.884   5.389 -0.3037  0.4392 -0.2361
15761TIP3    H168698   4.792   3.895   5.356 -0.7987 -0.2762  0.7654
15761TIP3    H268699   4.870   3.825   5.465  1.2508 -1.2706 -1.2606
15762TIP3   OH268700   0.153   2.289   4.647 -0.9367 -0.9323  0.0190
15762TIP3    H168701   0.179   2.244   4.567  1.1184  1.0211 -0.5195
15762TIP3    H268702   0.156   2.382   4.625  2.1593 -0.1372  2.8788
15763TIP3   OH268703   1.662   5.918  15.933  0.4594 -0.2779 -0.1362
15763TIP3    H168704   1.576   5.893  15.898  0.5057  0.7807 -1.0850
15763TIP3    H268705   1.668   5.872  16.016 -1.3344  0.1342  0.2839
15764TIP3   OH268706   5.844   2.902   3.054 -0.1504  0.2022  0.0572
15764TIP3    H168707   5.795   2.821   3.041 -1.6521  1.0166  0.4635
15764TIP3    H268708   5.936   2.874   3.056 -0.6658 -1.5673  0.7861
15765TIP3   OH268709   2.033   2.141  15.077  0.0718 -0.1876 -0.6198
15765TIP3    H168710   2.053   2.070  15.139 -0.1878 -1.4625 -1.9466
15765TIP3    H268711   2.119   2.175  15.052  0.2035 -0.1059 -0.0866
15766TIP3   OH268712   4.551   2.366   4.972  0.2564  0.1513  0.2383
15766TIP3    H168713   4.643   2.343   4.982  0.1290 -0.4801 -0.0223
15766TIP3    H268714   4.505   2.283   4.961 -0.5554  0.3415  1.8584
15767TIP3   OH268715   4.477   0.690   6.157 -0.3466 -0.4486  0.0970
15767TIP3    H168716   4.572   0.694   6.168  0.1955  0.4915 -3.7637
15767TIP3    H268717   4.464   0.640   6.076 -3.1366 -0.0499  0.2186
15768TIP3   OH268718   1.486   3.589   3.606  0.0888  0.2756  0.2255
15768TIP3    H168719   1.487   3.495   3.587 -1.3814  0.3450 -0.2748
15768TIP3    H268720   1.472   3.594   3.701 -4.1749 -0.0795 -0.1836
15769TIP3   OH268721   5.395   0.391   4.134 -0.3238  0.7442  0.4158
15769TIP3    H168722   5.479   0.430   4.109 -0.8199  0.5799 -1.6937
15769TIP3    H268723   5.415   0.341   4.214  1.7666  0.1281 -0.4066
15770TIP3   OH268724   5.338   2.516  11.133  0.0271  0.6536  0.0199
15770TIP3    H168725   5.317   2.425  11.151  2.5115 -0.2609 -1.2774
15770TIP3    H268726   5.274   2.543  11.067 -0.6364 -0.1780  0.3132
15771TIP3   OH268727   4.593   0.207   3.638 -0.6022 -0.3171 -0.0764
15771TIP3    H168728   4.641   0.279   3.597 -1.0414 -0.6042 -1.1220
15771TIP3    H268729   4.649   0.179   3.711  1.2964 -1.2583 -1.8083
15772TIP3   OH268730   1.026   1.312  16.272  0.1307  0.7086  0.4193
15772TIP3    H168731   1.077   1.231  16.269 -2.1545 -0.8056  0.7087
15772TIP3    H268732   1.039   1.351  16.185  1.6695  0.3426  0.4517
15773TIP3   OH268733   5.047   5.467   3.165 -0.5435 -0.4558 -0.2797
15773TIP3    H168734   5.140   5.484   3.182 -0.2443 -2.1784 -0.0106
15773TIP3    H268735   5.020   5.537   3.106  0.2659  1.5198  1.5648
15774TIP3   OH268736   5.580   4.430   0.898 -0.0353  0.0450  0.6806
15774TIP3    H168737   5.546   4.416   0.810 -0.3313 -0.3706  0.8586
15774TIP3    H268738   5.503   4.453   0.950  0.4955  3.1221  0.2741
15775TIP3   OH268739   0.384   0.863   4.002  0.3582 -0.0563  0.0469
15775TIP3    H168740   0.380   0.768   3.995  1.9956 -0.0440 -2.1259
15775TIP3    H268741   0.301   0.893   3.964 -0.3835 -0.5769  1.1903
15776TIP3   OH268742   2.914   2.041  16.525 -0.2608  0.1318  0.2383
15776TIP3    H168743   2.819   2.049  16.537 -0.4550 -0.0206 -1.0644
15776TIP3    H268744   2.950   2.052  16.613 -1.3021  2.8354  0.4157
15777TIP3   OH268745   2.841   2.224  13.211 -0.6637 -0.5805  0.5848
15777TIP3    H168746   2.831   2.130  13.224 -1.9320 -0.5757 -0.1377
15777TIP3    H268747   2.814   2.239  13.120 -0.6388  0.4910  0.7369
15778TIP3   OH268748   0.944   3.800   6.215 -0.4495 -0.3135 -0.3138
15778TIP3    H168749   0.975   3.837   6.298 -2.6159  2.0057 -0.4357
15778TIP3    H268750   0.986   3.854   6.148  0.0995 -1.2227 -0.7379
15779TIP3   OH268751   2.828   3.567  13.419 -0.0944 -0.2623 -0.1950
15779TIP3    H168752   2.758   3.633  13.413  1.0147  1.0094  0.2048
15779TIP3    H268753   2.787   3.492  13.463 -1.0277  0.7313  0.7114
15780TIP3   OH268754   1.303   1.060   1.148  0.3046 -0.1943  0.7739
15780TIP3    H168755   1.254   1.035   1.070  0.6163 -1.0552  0.8400
15780TIP3    H268756   1.237   1.063   1.217  0.5462 -3.2918  1.2932
15781TIP3   OH268757   4.236   0.588  14.614  0.0713 -0.6213  0.0299
15781TIP3    H168758   4.196   0.553  14.694 -1.2682  0.1712 -0.2751
15781TIP3    H268759   4.163   0.619  14.561  0.9563 -0.9190 -1.4287
15782TIP3   OH268760   0.058   0.351   5.647 -0.1634 -0.5715  0.5613
15782TIP3    H168761  -0.012   0.304   5.693  0.3058 -1.0371  0.8032
15782TIP3    H268762   0.139   0.319   5.686  0.2330 -0.7957 -0.4243
15783TIP3   OH268763   4.178   5.398   1.933 -0.2365  0.6276 -0.5661
15783TIP3    H168764   4.198   5.467   1.996  0.2645  0.3373 -0.4011
15783TIP3    H268765   4.261   5.380   1.889 -0.6732  1.1640 -1.6598
15784TIP3   OH268766   0.698   5.610  13.266 -0.5867 -0.0345 -0.1707
15784TIP3    H168767   0.604   5.595  13.276 -0.4618  0.4489  2.4648
15784TIP3    H268768   0.738   5.566  13.342  1.3007 -0.0426 -1.1144
15785TIP3   OH268769   0.883   3.642   6.900  0.0380  0.3957 -0.3509
15785TIP3    H168770   0.836   3.559   6.897 -2.5980  1.8242 -1.4555
15785TIP3    H268771   0.950   3.634   6.831  0.6812 -1.2170  0.4074
15786TIP3   OH268772   1.602   4.704  16.300 -0.2713 -0.0395 -0.1882
15786TIP3    H168773   1.651   4.661  16.230 -2.4645 -1.5671 -0.9061
15786TIP3    H268774   1.626   4.656  16.379 -0.0183 -0.2557 -0.3926
15787TIP3   OH268775   3.245   0.023   1.423  0.6800 -0.3676  0.4258
15787TIP3    H168776   3.318  -0.012   1.372  0.5260 -0.1860  0.0769
15787TIP3    H268777   3.282   0.038   1.511  1.0322 -0.3820  0.2819
15788TIP3   OH268778   0.442   6.686  15.443  0.7740  0.0725  1.0448
15788TIP3    H168779   0.355   6.689  15.404  1.3011 -1.5340 -0.4346
15788TIP3    H268780   0.448   6.599  15.482  2.4396 -0.7553 -0.8740
15789TIP3   OH268781   4.210   4.588   5.887 -0.4396  0.3665  0.2463
15789TIP3    H168782   4.168   4.608   5.970 -1.7717  0.4835 -0.4408
15789TIP3    H268783   4.233   4.674   5.851  0.5171  0.2999  0.6652
15790TIP3   OH268784   5.295   5.471  16.937  0.1368  0.0331 -0.1850
15790TIP3    H168785   5.291   5.505  16.848 -0.1832 -0.0286 -0.1942
15790TIP3    H268786   5.231   5.399  16.938  1.9616 -1.7073 -0.6532
15791TIP3   OH268787   3.769   1.267   3.723 -0.5028  0.1195  0.3825
15791TIP3    H168788   3.755   1.360   3.704 -0.2279  0.7097  2.7223
15791TIP3    H268789   3.744   1.258   3.815  0.1176 -1.9958  0.3819
15792TIP3   OH268790   6.369   5.328   0.844 -0.0743  0.1450  0.0631
15792TIP3    H168791   6.300   5.268   0.872 -1.1848  0.7145 -1.3636
15792TIP3    H268792   6.341   5.360   0.759  2.3669 -0.2759 -1.0042
15793TIP3   OH268793   5.718   2.052  17.204  0.5021  0.0604  0.3886
15793TIP3    H168794   5.744   2.111  17.275  0.7553  0.4537 -0.0226
15793TIP3    H268795   5.726   1.965  17.242 -0.4271  0.2981  1.1922
15794TIP3   OH268796   2.816   0.803  13.409 -0.2289 -0.4879  0.0801
15794TIP3    H168797   2.764   0.816  13.330 -0.2809 -2.6591 -0.3030
15794TIP3    H268798   2.800   0.712  13.434  1.1685 -0.3739  1.5975
15795TIP3   OH268799   2.282   2.038  13.561 -0.1126 -0.3527  0.2438
15795TIP3    H168800   2.363   2.081  13.586  0.2592 -1.0965  0.3653
15795TIP3    H268801   2.293   2.016  13.468  0.6139 -2.0959  0.6998
15796TIP3   OH268802   1.772   6.074   2.031 -0.3298  0.0134 -0.0547
15796TIP3    H168803   1.743   6.136   1.965  0.8479  0.6635  0.0126
15796TIP3    H268804   1.807   6.128   2.101 -0.2643 -0.7076  0.4761
15797TIP3   OH268805   5.624   3.859   4.376  0.0816  0.3152 -0.7888
15797TIP3    H168806   5.698   3.860   4.315  2.0831 -2.0527  1.3359
15797TIP3    H268807   5.639   3.936   4.432  0.4078  0.3499 -0.9208
15798TIP3   OH268808   3.549   3.675   3.386  0.3855 -0.0669  0.1287
15798TIP3    H168809   3.489   3.673   3.460  0.2647  2.0993  0.1405
15798TIP3    H268810   3.494   3.695   3.311  0.2656 -3.5903 -0.9147
15799TIP3   OH268811   2.736   5.207  17.287 -0.4382  0.5244  0.3214
15799TIP3    H168812   2.686   5.125  17.297  1.3872 -0.7332 -0.3920
15799TIP3    H268813   2.792   5.210  17.364  0.5429  0.3268 -0.3747
15800TIP3   OH268814   6.413   1.161  14.999 -0.2437  0.0433 -0.2786
15800TIP3    H168815   6.494   1.116  15.025 -0.8969 -0.5579  0.7804
15800TIP3    H268816   6.348   1.090  14.990 -1.2014  0.7153  1.0659
15801TIP3   OH268817   0.418   3.970   4.991  0.4201  0.2638  0.4775
15801TIP3    H168818   0.341   4.011   5.031 -0.9737 -1.6078 -0.1667
15801TIP3    H268819   0.431   4.019   4.910 -0.3875  0.2935  0.3585
15802TIP3   OH268820   5.920   1.065   1.547  0.2061 -0.3838 -0.2257
15802TIP3    H168821   5.952   1.005   1.614  0.6477  0.3762  0.2549
15802TIP3    H268822   5.836   1.097   1.582  1.6585  2.0735  1.3033
15803TIP3   OH268823   6.123   1.347  15.223  0.1890  0.2176 -0.2381
15803TIP3    H168824   6.141   1.425  15.171  0.1832  0.8986  0.7474
15803TIP3    H268825   6.208   1.322  15.259  0.0476  0.2869  0.1477
15804TIP3   OH268826   1.404   3.132   2.667  0.2366 -0.0328 -0.7393
15804TIP3    H168827   1.480   3.122   2.610  1.0215 -0.5996  0.3743
15804TIP3    H268828   1.344   3.062   2.640 -0.8741  1.6692 -3.0291
15805TIP3   OH268829   0.484   3.446  13.136 -0.3635 -0.1378  0.0315
15805TIP3    H168830   0.433   3.375  13.097  0.1890 -0.3243 -0.3643
15805TIP3    H268831   0.418   3.506  13.171 -0.9491  0.7705 -2.4517
15806TIP3   OH268832   6.190   6.443  13.351  0.7892 -0.1809  0.1688
15806TIP3    H168833   6.145   6.510  13.299 -2.0072  0.1851  2.7025
15806TIP3    H268834   6.181   6.363  13.300  0.0673  0.5277 -0.8735
15807TIP3   OH268835   6.267   6.619   1.156  0.0558 -0.2565 -0.0385
15807TIP3    H168836   6.180   6.658   1.154 -1.0612 -2.5632 -1.8996
15807TIP3    H268837   6.270   6.572   1.239 -0.2727  0.2029  0.2402
15808TIP3   OH268838   3.126   4.969  16.356 -0.3114 -0.7682 -0.4792
15808TIP3    H168839   3.104   4.976  16.448 -0.2921  0.9899 -0.5732
15808TIP3    H268840   3.100   5.053  16.318  3.0958  0.1085 -1.2983
15809TIP3   OH268841   2.625   3.074  13.335  0.2520 -0.3780 -0.0845
15809TIP3    H168842   2.660   2.986  13.318  1.1292 -0.1767  0.6073
15809TIP3    H268843   2.678   3.131  13.279 -0.0157 -0.2343 -0.1912
15810TIP3   OH268844   0.674   3.686  13.664 -0.1131  0.3772 -0.1527
15810TIP3    H168845   0.668   3.593  13.684  0.1874  0.1218 -1.2157
15810TIP3    H268846   0.586   3.720  13.683 -0.4369 -0.2661 -0.4660
15811TIP3   OH268847   4.433   5.819   3.328 -0.0649 -0.5617 -0.1326
15811TIP3    H168848   4.526   5.840   3.326 -0.1846  0.2379  1.4608
15811TIP3    H268849   4.393   5.881   3.267  0.0944  1.1978  1.4868
15812TIP3   OH268850   3.136   6.419   2.858  0.1276 -0.8536 -0.0603
15812TIP3    H168851   3.189   6.425   2.938  0.4882 -2.8610 -0.0998
15812TIP3    H268852   3.194   6.452   2.789  0.6491 -1.2705  0.1722
15813TIP3   OH268853   3.588   6.474   3.577 -0.2357 -0.1698  0.3638
15813TIP3    H168854   3.594   6.560   3.535 -1.5929 -0.3093 -0.1687
15813TIP3    H268855   3.583   6.493   3.671  1.1546  0.2242  0.3894
15814TIP3   OH268856   6.155   4.683  14.152  0.4918  0.6095  0.5054
15814TIP3    H168857   6.211   4.610  14.177 -1.0005 -0.9486 -0.5247
15814TIP3    H268858   6.080   4.677  14.211  0.9563  2.2110  1.3476
15815TIP3   OH268859   5.594   1.876  15.407 -0.0851  0.0089 -0.0487
15815TIP3    H168860   5.519   1.935  15.419 -0.2348  0.3324 -2.1485
15815TIP3    H268861   5.572   1.798  15.457 -1.1248  0.6854  0.5846
15816TIP3   OH268862   3.933   0.040   5.667 -0.3366  0.4158 -0.5397
15816TIP3    H168863   3.985   0.101   5.720 -1.0055 -0.2654  0.9640
15816TIP3    H268864   3.982   0.032   5.585  1.5376  0.3907  0.5225
15817TIP3   OH268865   3.577   4.833   4.071 -0.2214 -0.1267  0.6283
15817TIP3    H168866   3.561   4.815   3.979 -0.1614  1.6095  0.2506
15817TIP3    H268867   3.491   4.859   4.106 -0.1688 -0.4090  0.9761
15818TIP3   OH268868   2.606   3.419  13.186  0.2747 -0.1423 -0.2510
15818TIP3    H168869   2.689   3.437  13.230 -0.3442 -0.0921  0.9483
15818TIP3    H268870   2.629   3.408  13.094  1.4994  0.6263 -0.0574
15819TIP3   OH268871   1.601   3.761  15.038  0.1976  0.8582 -0.6512
15819TIP3    H168872   1.661   3.723  14.973 -0.8062  1.0430 -1.7124
15819TIP3    H268873   1.580   3.847  15.004 -1.8455  0.2361 -1.1005
15820TIP3   OH268874   2.477   0.189  12.318 -0.3107  0.0971  0.2516
15820TIP3    H168875   2.430   0.266  12.350  0.5718  0.1542  1.4802
15820TIP3    H268876   2.435   0.115  12.361 -0.1924  0.0167  0.2296
15821TIP3   OH268877   0.971   0.904   0.039 -0.0372 -0.3137 -0.0066
15821TIP3    H168878   0.926   0.974  -0.008 -2.2516 -1.6872 -0.1197
15821TIP3    H268879   0.914   0.885   0.113  1.6260 -0.5624  1.2630
15822TIP3   OH268880   5.507   5.653   0.535 -0.0941 -0.2294  0.4937
15822TIP3    H168881   5.493   5.672   0.628  0.7748  2.2149  0.2037
15822TIP3    H268882   5.596   5.618   0.531 -0.8655 -2.3191  0.7710
15823TIP3   OH268883   6.667   6.253   5.840  0.2563  0.2376 -0.9049
15823TIP3    H168884   6.666   6.166   5.880  2.2778 -0.3640 -2.0418
15823TIP3    H268885   6.730   6.246   5.769  3.1617  3.5330  1.0337
15824TIP3   OH268886   2.903   1.571  14.843  0.3818  0.1169 -0.0708
15824TIP3    H168887   2.994   1.581  14.870  0.1580  0.6037  0.5168
15824TIP3    H268888   2.904   1.586  14.748  0.8241  0.6996  0.0195
15825TIP3   OH268889   1.224   3.168   2.278  0.0416 -0.2421  0.7062
15825TIP3    H168890   1.241   3.232   2.347  1.3426  0.2622 -0.0517
15825TIP3    H268891   1.142   3.125   2.305  0.3226  0.1815  2.3658
15826TIP3   OH268892   6.327   3.709   0.843  0.1435  0.1388  0.4718
15826TIP3    H168893   6.386   3.736   0.913  1.1194  0.9238 -0.6195
15826TIP3    H268894   6.239   3.718   0.880  0.6626  0.0024  1.7599
15827TIP3   OH268895   0.231   4.799  12.596 -0.6890 -0.8652  0.1968
15827TIP3    H168896   0.215   4.840  12.511  2.9921 -0.3149 -0.3714
15827TIP3    H268897   0.313   4.752  12.585  0.7112  0.4150  3.7859
15828TIP3   OH268898   0.791   6.158  17.084 -0.0157  0.0311 -0.4722
15828TIP3    H168899   0.823   6.070  17.102  2.8656  1.3612  1.9036
15828TIP3    H268900   0.748   6.185  17.166 -0.3967  1.0163 -0.9749
15829TIP3   OH268901   5.725   6.024  11.355  0.1955  0.1281 -0.2601
15829TIP3    H168902   5.643   6.057  11.319  0.4367 -0.4458 -1.3556
15829TIP3    H268903   5.793   6.061  11.299  0.5883 -0.6668 -0.3118
15830TIP3   OH268904   5.037   5.367  11.646  0.0807  0.2459  0.4178
15830TIP3    H168905   4.980   5.376  11.722 -1.4106  0.5648 -0.6904
15830TIP3    H268906   5.092   5.446  11.646  0.6750 -0.1527  1.5970
15831TIP3   OH268907   2.706   6.218   1.881  0.1205  0.4585 -0.2680
15831TIP3    H168908   2.772   6.182   1.822  0.1387 -0.6638  0.3908
15831TIP3    H268909   2.654   6.142   1.908  0.7927  0.7204  1.9890
15832TIP3   OH268910   5.602   5.181   6.172 -0.0138  0.0678 -0.6252
15832TIP3    H168911   5.556   5.242   6.231  2.7506  0.6015  1.1635
15832TIP3    H268912   5.632   5.236   6.100  0.7961  0.4887  0.0057
15833TIP3   OH268913   0.501   3.462   2.850 -0.3201  0.0302 -0.2406
15833TIP3    H168914   0.528   3.382   2.893 -1.7908 -0.2972  0.0913
15833TIP3    H268915   0.559   3.468   2.773 -0.0988 -1.2573 -0.1935
15834TIP3   OH268916   3.127   5.543  11.019  0.0884  0.1974  0.6172
15834TIP3    H168917   3.179   5.609  10.972  0.2791 -0.0932  0.4194
15834TIP3    H268918   3.039   5.580  11.020 -0.1211 -0.1972 -0.7923
15835TIP3   OH268919   4.681   6.600  16.922  0.3967 -0.2703 -0.0415
15835TIP3    H168920   4.712   6.580  16.834 -1.5863 -1.0179 -0.6068
15835TIP3    H268921   4.589   6.575  16.922  0.3137 -0.1681  2.2156
15836TIP3   OH268922   4.628   4.673   5.196 -0.6168 -0.1408 -0.2741
15836TIP3    H168923   4.669   4.593   5.164 -0.6864 -0.1481 -0.3445
15836TIP3    H268924   4.665   4.684   5.284 -0.8097 -0.3987 -0.1574
15837TIP3   OH268925   0.305   1.178   3.594  0.1895 -0.1733  0.0756
15837TIP3    H168926   0.217   1.166   3.557  0.0895 -0.8807  0.5213
15837TIP3    H268927   0.289   1.216   3.680  0.1827 -1.9759  0.9284
15838TIP3   OH268928   0.438   3.962  13.913  0.2297  0.1035 -0.6615
15838TIP3    H168929   0.347   3.966  13.943  0.7919 -0.4360  1.1916
15838TIP3    H268930   0.438   3.893  13.846 -0.7461  0.2197 -0.7976
15839TIP3   OH268931   3.091   3.059  17.285  0.0711 -0.7416  0.0666
15839TIP3    H168932   3.155   3.107  17.232 -2.0856  0.6243 -1.4502
15839TIP3    H268933   3.051   3.126  17.340 -2.7194 -0.7008 -1.8189
15840TIP3   OH268934   4.454   5.895  15.565 -0.0540 -0.0720 -0.5227
15840TIP3    H168935   4.441   5.914  15.472 -2.3697 -1.2408 -0.5306
15840TIP3    H268936   4.425   5.975  15.610  1.1703  0.5348 -0.7801
15841TIP3   OH268937   2.409   4.942  13.303  0.4893 -0.5654  0.0905
15841TIP3    H168938   2.501   4.918  13.294  0.9641  1.2035 -0.2007
15841TIP3    H268939   2.396   4.951  13.398  0.9072  0.1451  0.0890
15842TIP3   OH268940   3.330   4.298  11.912 -0.2731  0.2443  0.2158
15842TIP3    H168941   3.316   4.389  11.938  1.5669  0.8216 -0.6917
15842TIP3    H268942   3.343   4.302  11.817 -0.7370 -1.0495  0.0770
15843TIP3   OH268943   6.343   0.908   2.032 -0.0313  0.2341 -0.5883
15843TIP3    H168944   6.330   0.942   2.120 -0.7211 -0.1343 -0.5378
15843TIP3    H268945   6.438   0.905   2.020  0.0507  0.8983 -0.1026
15844TIP3   OH268946   3.484   4.006  14.783  0.0394  1.2495 -0.2697
15844TIP3    H168947   3.571   4.007  14.744 -0.5203  0.1860 -1.6422
15844TIP3    H268948   3.449   4.094  14.767  0.9551  1.7856  0.5791
15845TIP3   OH268949   1.660   3.267  16.747 -0.0075 -0.6830  0.1308
15845TIP3    H168950   1.734   3.323  16.723 -0.6180 -0.4375 -1.2603
15845TIP3    H268951   1.701   3.184  16.772  0.7298 -0.7147 -1.0856
15846TIP3   OH268952   0.134   3.844  13.106  0.2200  0.2031  0.2092
15846TIP3    H168953   0.140   3.938  13.089  0.6136 -0.0583 -1.1688
15846TIP3    H268954   0.064   3.813  13.049  2.0232 -0.8147 -1.5595
15847TIP3   OH268955   6.038   0.186  15.332 -0.4697 -0.4702 -0.6905
15847TIP3    H168956   6.015   0.249  15.264 -0.2469 -1.6060 -1.8494
15847TIP3    H268957   6.077   0.239  15.402 -0.6748  0.7133 -1.4534
15848TIP3   OH268958   3.457   5.966   3.816  0.2674  0.0396  0.6697
15848TIP3    H168959   3.443   6.039   3.757 -0.5865 -0.8797 -0.3151
15848TIP3    H268960   3.548   5.973   3.844 -0.0357  1.9497  1.2725
15849TIP3   OH268961   2.356   1.207  13.138 -0.4412  0.2020  0.6243
15849TIP3    H168962   2.376   1.219  13.231  1.5343  0.8864  0.1858
15849TIP3    H268963   2.278   1.153  13.136  1.3286 -2.6806  2.6783
15850TIP3   OH268964   3.826   5.785  16.411 -0.1300  0.6529 -0.6402
15850TIP3    H168965   3.909   5.815  16.449 -0.6367  1.6875 -0.3162
15850TIP3    H268966   3.776   5.751  16.485  0.0129 -0.0118 -0.8420
15851TIP3   OH268967   6.647   2.449   5.236 -0.7144  0.5943  0.6169
15851TIP3    H168968   6.581   2.512   5.265 -1.3970  0.1634  0.0238
15851TIP3    H268969   6.724   2.503   5.216 -2.0426  1.5982 -2.2742
15852TIP3   OH268970   2.921   3.282   3.003  0.1118 -0.3633 -0.2005
15852TIP3    H168971   2.908   3.369   2.965 -1.3440 -0.0522  0.9019
15852TIP3    H268972   2.919   3.297   3.098  2.3232 -1.2858  0.0540
15853TIP3   OH268973   4.648   5.175  13.361 -0.9096  0.2622 -0.0168
15853TIP3    H168974   4.576   5.135  13.313  0.1469 -0.6758 -0.8682
15853TIP3    H268975   4.671   5.253  13.310 -0.6026 -0.0479 -0.3542
15854TIP3   OH268976   0.876   4.460  12.812  0.6177 -0.1889 -0.9301
15854TIP3    H168977   0.896   4.426  12.899 -1.1779 -0.2927 -0.5108
15854TIP3    H268978   0.925   4.403  12.753  1.4087 -0.4812 -0.0290
15855TIP3   OH268979   0.311   4.935   3.304 -0.1440 -0.0324 -0.8859
15855TIP3    H168980   0.257   4.990   3.360 -1.1418  0.1681 -2.0153
15855TIP3    H268981   0.293   4.846   3.332  0.1379  0.1124 -0.2276
15856TIP3   OH268982   0.328   0.722  14.533  0.7359 -0.1908  0.2056
15856TIP3    H168983   0.313   0.780  14.608  0.8264 -0.0929  0.1484
15856TIP3    H268984   0.243   0.679  14.518  0.8998 -0.7332  0.8009
15857TIP3   OH268985   6.705   2.334   1.929  0.0719 -0.1989 -0.0430
15857TIP3    H168986   6.610   2.337   1.946  0.3899  1.9359  1.9384
15857TIP3    H268987   6.727   2.424   1.905  1.3981 -1.0231 -2.1441
15858TIP3   OH268988   4.830   5.359  15.223 -0.2039  0.7083  0.0252
15858TIP3    H168989   4.806   5.331  15.135  3.3632  0.4126 -0.9830
15858TIP3    H268990   4.785   5.297  15.281 -3.0971  1.2622 -1.4160
15859TIP3   OH268991   3.061   2.304   2.967  0.1326  0.3052 -0.6108
15859TIP3    H168992   3.025   2.371   3.026 -1.0228 -1.2118  0.4734
15859TIP3    H268993   2.991   2.287   2.905 -0.9077 -2.1468  1.0792
15860TIP3   OH268994   0.845   4.143   4.266  0.0065 -0.1790 -0.1951
15860TIP3    H168995   0.918   4.124   4.325 -0.8143 -0.4449  0.7714
15860TIP3    H268996   0.807   4.058   4.246 -0.1547 -0.0315 -0.5289
15861TIP3   OH268997   3.207   6.154   2.369  0.5237 -0.8355 -0.3291
15861TIP3    H168998   3.145   6.213   2.412  0.1439 -0.9579 -0.6991
15861TIP3    H268999   3.257   6.115   2.441 -0.6711 -1.6790  0.0838
15862TIP3   OH269000   1.891   0.958   5.528  0.0223  0.6441  0.1959
15862TIP3    H169001   1.885   1.052   5.509 -2.1791  0.9823  2.1709
15862TIP3    H269002   1.815   0.921   5.485  0.9003 -0.3071 -0.5960
15863TIP3   OH269003   3.152   5.854  12.731  0.4065  0.3261 -0.2115
15863TIP3    H169004   3.169   5.775  12.680  0.8798 -0.0466  0.5065
15863TIP3    H269005   3.103   5.824  12.807  0.9584  0.6585  0.2818
15864TIP3   OH269006   2.285   0.796  13.420 -0.2016  0.0002  0.6468
15864TIP3    H169007   2.201   0.767  13.454 -0.5099 -0.5057 -0.4902
15864TIP3    H269008   2.265   0.830  13.332  0.7663 -0.0536  0.3895
15865TIP3   OH269009   0.480   3.913   3.136  0.1325 -0.4357 -0.0284
15865TIP3    H169010   0.431   3.861   3.072  0.3130  0.1385 -0.6509
15865TIP3    H269011   0.530   3.848   3.186  1.5696 -0.8196 -1.8097
15866TIP3   OH269012   1.089   4.748   2.856  0.0459  0.6757 -0.0050
15866TIP3    H169013   1.052   4.835   2.843 -0.3023  0.9025  2.1760
15866TIP3    H269014   1.013   4.690   2.862  0.2735  0.1677 -1.4488
15867TIP3   OH269015   4.305   0.126  16.686  0.1336  0.3075  0.5253
15867TIP3    H169016   4.327   0.176  16.607 -2.4208 -0.8931 -1.0886
15867TIP3    H269017   4.239   0.179  16.730  0.1924  0.1119  0.8523
15868TIP3   OH269018   3.038   1.933   1.845  0.0793 -0.2505  0.3995
15868TIP3    H169019   2.979   1.910   1.916  0.2374 -1.0071  0.2944
15868TIP3    H269020   3.026   2.028   1.833 -1.6166 -0.4867 -0.0846
15869TIP3   OH269021   1.522   5.899  16.716  0.0553 -0.3386 -0.0371
15869TIP3    H169022   1.606   5.942  16.704 -0.1215 -0.0434 -0.2495
15869TIP3    H269023   1.476   5.911  16.633  0.6051 -2.3259 -0.6718
15870TIP3   OH269024   6.607   1.296   1.551 -0.4398  0.2872  0.3139
15870TIP3    H169025   6.639   1.364   1.491  0.8244  0.5600  1.2366
15870TIP3    H269026   6.519   1.325   1.576  0.0379  1.5698  0.6160
15871TIP3   OH269027   4.392   0.346  12.978 -0.4740  0.4049  0.2135
15871TIP3    H169028   4.397   0.415  13.044  1.5455  0.1050  0.4122
15871TIP3    H269029   4.469   0.358  12.923 -0.9581 -0.6999 -0.7679
15872TIP3   OH269030   6.125   2.454   1.425 -0.0571  0.1144  0.1033
15872TIP3    H169031   6.201   2.411   1.387 -0.4422 -2.3227  1.8227
15872TIP3    H269032   6.113   2.533   1.373  2.8597 -0.0551 -1.0159
15873TIP3   OH269033   4.515   0.002  12.855  0.3084 -0.2490 -0.0335
15873TIP3    H169034   4.581   0.039  12.914  0.8523 -1.3341  0.0816
15873TIP3    H269035   4.566  -0.043  12.788 -0.3191  0.1205 -0.7647
15874TIP3   OH269036   4.774   1.594   0.873 -0.5306 -0.3232  0.5803
15874TIP3    H169037   4.691   1.546   0.871  0.3436 -1.8774  0.3749
15874TIP3    H269038   4.786   1.615   0.966 -0.3000 -1.6874  0.8884
15875TIP3   OH269039   4.625   5.255  11.810 -0.2477  0.1862  0.3214
15875TIP3    H169040   4.570   5.236  11.887 -1.4381  0.9544 -0.3130
15875TIP3    H269041   4.706   5.291  11.847 -0.7472  0.4148  1.2260
15876TIP3   OH269042   6.436   1.119   3.745  0.2489 -0.4785 -0.1999
15876TIP3    H169043   6.426   1.190   3.809  3.9905 -0.3382  0.4362
15876TIP3    H269044   6.400   1.155   3.664 -1.5788  0.5755  0.9887
15877TIP3   OH269045   0.510   3.093  15.492  0.4513 -0.2916  0.0649
15877TIP3    H169046   0.422   3.078  15.530  0.6095 -0.5592  0.3380
15877TIP3    H269047   0.559   3.015  15.517  0.3685 -0.8035 -1.2868
15878TIP3   OH269048   5.454   1.398   5.837 -0.1021 -0.2772  0.1081
15878TIP3    H169049   5.455   1.330   5.904  1.0398 -1.7881 -1.3368
15878TIP3    H269050   5.528   1.455   5.859  1.8508 -2.1861 -1.1307
15879TIP3   OH269051   2.562   1.031  12.984 -0.2308 -0.2123  0.1618
15879TIP3    H169052   2.490   1.092  13.001  0.4078  0.6416 -0.1279
15879TIP3    H269053   2.636   1.087  12.960  1.6361 -0.7635  3.9843
15880TIP3   OH269054   4.611   4.063   4.506  0.2033 -0.6114  0.5636
15880TIP3    H169055   4.519   4.045   4.523 -0.2494  1.4227  0.5576
15880TIP3    H269056   4.615   4.079   4.412  0.1481  1.1916  0.8278
15881TIP3   OH269057   0.923   2.333   0.296  0.2699 -0.5944  0.1101
15881TIP3    H169058   0.855   2.347   0.362 -0.5060  0.5686 -0.8964
15881TIP3    H269059   0.994   2.392   0.320 -0.4204  0.5635 -0.6162
15882TIP3   OH269060   1.557   2.203   6.443 -0.2951  0.4527 -0.1063
15882TIP3    H169061   1.621   2.253   6.393 -1.2124  0.7682 -1.0047
15882TIP3    H269062   1.533   2.260   6.516 -0.9352  1.1344 -0.8257
15883TIP3   OH269063   4.861   3.850  15.725  0.0499 -0.2587 -0.0329
15883TIP3    H169064   4.929   3.819  15.665 -0.4841 -1.9061  0.1667
15883TIP3    H269065   4.785   3.795  15.705 -1.1418  1.3179 -0.0281
15884TIP3   OH269066   0.020   0.801   1.593 -0.1376 -0.5610  0.7995
15884TIP3    H169067   0.064   0.861   1.654  0.4834 -0.6544  0.4426
15884TIP3    H269068  -0.006   0.727   1.647  2.5700 -1.8081  0.5666
15885TIP3   OH269069   0.997   3.402  14.152  0.4504  0.2230  0.1898
15885TIP3    H169070   0.954   3.478  14.111  0.4115  0.0379 -0.1123
15885TIP3    H269071   1.018   3.432  14.240 -1.0314  0.0724  0.6294
15886TIP3   OH269072   3.005   4.873  11.912  0.0165  0.2013 -0.5092
15886TIP3    H169073   3.036   4.949  11.961  1.0958 -1.9713  2.4289
15886TIP3    H269074   3.078   4.851  11.854  0.5124  0.2543  0.0811
15887TIP3   OH269075   2.311   6.249  12.228  0.0996 -0.9900 -0.3846
15887TIP3    H169076   2.275   6.290  12.149 -1.0768 -0.7806  0.2350
15887TIP3    H269077   2.325   6.157  12.204  1.2475 -0.5999 -1.2944
15888TIP3   OH269078   0.041   1.035   5.564 -0.7744 -0.5983  0.7467
15888TIP3    H169079   0.045   0.972   5.636 -2.4809  0.7475  2.1027
15888TIP3    H269080  -0.049   1.032   5.534 -0.8579  1.0996  0.7657
15889TIP3   OH269081   1.401   4.047   6.461 -0.2998 -0.0049  0.1972
15889TIP3    H169082   1.491   4.018   6.444 -0.1844  1.1623 -1.4487
15889TIP3    H269083   1.347   3.989   6.408 -0.6459 -1.2037  1.7667
15890TIP3   OH269084   0.944   0.052  17.266  0.3673 -0.3385 -0.4565
15890TIP3    H169085   0.878   0.119  17.281  1.3737  0.7461 -0.6855
15890TIP3    H269086   0.896  -0.023  17.232 -0.7825  0.2725 -0.2147
15891TIP3   OH269087   3.764   3.550  11.167 -0.1608  0.4119  0.2839
15891TIP3    H169088   3.775   3.638  11.203 -0.4414 -0.1370  1.7900
15891TIP3    H269089   3.670   3.534  11.172 -0.0010 -0.3714  1.0455
15892TIP3   OH269090   2.974   0.353   2.015  0.2523  0.1696 -0.3285
15892TIP3    H169091   2.980   0.304   2.097  0.7249 -0.9926 -1.0334
15892TIP3    H269092   2.906   0.307   1.965  1.3440 -0.3688 -1.3777
15893TIP3   OH269093   1.738   2.388   6.324  0.4690  0.1470 -0.2992
15893TIP3    H169094   1.656   2.437   6.316  0.1464 -0.1974  0.7570
15893TIP3    H269095   1.797   2.447   6.371  1.2831  0.9043 -2.1881
15894TIP3   OH269096   6.301   5.479  15.138  0.2296 -0.1686 -0.2666
15894TIP3    H169097   6.235   5.450  15.200 -2.0292  2.1970 -1.3916
15894TIP3    H269098   6.296   5.416  15.066  2.4806 -2.6029  1.5055
15895TIP3   OH269099   4.930   0.530   3.036 -0.6128 -0.3394  0.0429
15895TIP3    H169100   4.868   0.603   3.030  0.6789  0.7345 -0.7158
15895TIP3    H269101   4.882   0.455   2.999 -1.0177  0.7787 -1.8196
15896TIP3   OH269102   0.303   5.663  14.723 -0.3481 -0.4053 -0.1318
15896TIP3    H169103   0.265   5.742  14.762  1.5250  0.4150  0.1520
15896TIP3    H269104   0.366   5.696  14.660  0.4714 -1.6847 -0.0064
15897TIP3   OH269105   5.590   2.863  12.910  0.5313  0.3063  0.4048
15897TIP3    H169106   5.586   2.801  12.837  0.4285 -0.9776  1.4496
15897TIP3    H269107   5.675   2.907  12.900  0.9029 -0.4820 -0.0073
15898TIP3   OH269108   1.953   0.518  11.478 -0.2673  0.0923 -0.3224
15898TIP3    H169109   2.009   0.443  11.498 -0.5763 -0.4546 -1.4422
15898TIP3    H269110   1.876   0.480  11.436 -0.9309  0.9457  0.1101
15899TIP3   OH269111   2.115   6.740   1.706  0.2144 -0.2990 -0.2089
15899TIP3    H169112   2.166   6.663   1.678 -1.0357 -1.3506  0.3100
15899TIP3    H269113   2.070   6.711   1.786  0.0202  1.1126  0.2156
15900TIP3   OH269114   1.591   0.177  15.658 -0.6421 -0.4217 -0.0583
15900TIP3    H169115   1.509   0.138  15.630 -0.7261 -0.1084 -0.2471
15900TIP3    H269116   1.659   0.118  15.625 -0.7728 -0.4720 -0.2346
15901TIP3   OH269117   4.673   5.098  11.296  0.0318 -0.2252  1.1636
15901TIP3    H169118   4.694   5.145  11.215  0.4280  0.8138  1.8526
15901TIP3    H269119   4.715   5.012  11.285  1.2509  0.3867  0.8307
15902TIP3   OH269120   0.321   2.548  13.496 -0.1739  0.1474 -0.0112
15902TIP3    H169121   0.272   2.476  13.535  0.5556 -1.1304 -1.3339
15902TIP3    H269122   0.282   2.558  13.408  0.2050  0.8912 -0.1011
15903TIP3   OH269123   6.560   5.535  14.587  0.8146 -0.0072  0.3696
15903TIP3    H169124   6.650   5.566  14.583  0.9017 -0.1951  0.8228
15903TIP3    H269125   6.538   5.537  14.680  0.1739  0.5440  0.2106
15904TIP3   OH269126   0.235   2.818  13.665  0.7442 -0.2579 -0.3797
15904TIP3    H169127   0.258   2.900  13.621  0.9339 -0.2309 -0.2308
15904TIP3    H269128   0.245   2.752  13.596 -0.3752 -0.0367 -0.7687
15905TIP3   OH269129   4.737   4.974   1.388  0.0629  0.3010  0.2052
15905TIP3    H169130   4.740   5.016   1.475  1.5660 -0.0241  0.3343
15905TIP3    H269131   4.683   4.896   1.401 -2.3226  1.8095  0.0919
15906TIP3   OH269132   1.897   3.905   5.794 -0.0852  0.1921  0.4422
15906TIP3    H169133   1.846   3.940   5.721 -1.5440 -0.8344  0.9133
15906TIP3    H269134   1.974   3.865   5.754 -0.0692  1.0217 -0.3699
15907TIP3   OH269135   5.699   1.242   0.203 -0.3381  0.0754  0.0585
15907TIP3    H169136   5.656   1.212   0.283 -0.4795  0.7729  0.2571
15907TIP3    H269137   5.630   1.244   0.137  0.0886 -2.0082 -0.5304
15908TIP3   OH269138   1.139   4.934  11.543 -0.2035  0.4695  0.8688
15908TIP3    H169139   1.205   5.004  11.543 -0.9074  1.1961 -1.0501
15908TIP3    H269140   1.171   4.872  11.477  1.0615 -1.7644  3.4020
15909TIP3   OH269141   2.031   1.021   1.098 -0.2815  0.1048  0.2926
15909TIP3    H169142   2.115   0.985   1.127  0.2933  0.8842 -0.3483
15909TIP3    H269143   1.968   0.988   1.161  0.2599 -1.7176 -0.0588
15910TIP3   OH269144   3.880   1.072   4.795  0.0037 -0.1140 -0.0933
15910TIP3    H169145   3.834   1.041   4.873 -1.0345  0.9794 -0.2452
15910TIP3    H269146   3.811   1.080   4.729  0.1430  2.7422  0.0224
15911TIP3   OH269147   0.039   5.066   1.107  0.3123 -0.0418 -0.7114
15911TIP3    H169148  -0.043   5.040   1.148 -0.4941 -0.1118 -2.2706
15911TIP3    H269149   0.043   5.014   1.026  0.7327  1.5986 -1.8062
15912TIP3   OH269150   3.844   2.805  11.350 -0.2907 -0.1719 -0.0719
15912TIP3    H169151   3.869   2.819  11.259  0.2257  0.4549  0.1572
15912TIP3    H269152   3.880   2.719  11.372 -1.1890 -0.7284 -0.7114
15913TIP3   OH269153   5.886   6.485  12.720  0.6810  0.1884  0.2924
15913TIP3    H169154   5.909   6.561  12.774  2.1840  1.2561 -1.6860
15913TIP3    H269155   5.812   6.514  12.668 -0.6984 -0.8006  1.6305
15914TIP3   OH269156   0.615   3.599   1.058 -0.2044 -0.1943  0.1699
15914TIP3    H169157   0.585   3.563   1.142 -1.9280 -0.1068 -0.3658
15914TIP3    H269158   0.707   3.621   1.073 -0.3603 -0.5598  1.9115
15915TIP3   OH269159   3.203   3.770  16.197 -0.2237  0.7339 -0.3885
15915TIP3    H169160   3.241   3.857  16.208 -0.0469  0.6846 -0.5963
15915TIP3    H269161   3.131   3.783  16.135  0.4527  0.5596 -1.2238
15916TIP3   OH269162   5.967   2.333  10.556 -0.7720 -0.1340 -0.3389
15916TIP3    H169163   6.035   2.299  10.498  0.2690  0.3794  0.5415
15916TIP3    H269164   6.013   2.396  10.612 -1.9494  0.1206  0.3704
15917TIP3   OH269165   4.143   3.954  11.796 -0.0353  0.0417 -0.1945
15917TIP3    H169166   4.184   3.950  11.882 -1.3692  0.1954  0.4690
15917TIP3    H269167   4.187   4.027  11.751  0.7619 -0.1340  0.2988
15918TIP3   OH269168   4.849   2.991  16.873 -0.4148 -0.3682  0.6444
15918TIP3    H169169   4.863   3.069  16.927  3.6540  0.1109 -0.7709
15918TIP3    H269170   4.839   3.025  16.784 -0.6152 -1.4095  0.2592
15919TIP3   OH269171   4.111   0.952   3.326 -0.1809  0.1625  0.0800
15919TIP3    H169172   4.038   1.013   3.314  0.4695  1.3674  1.8187
15919TIP3    H269173   4.180   0.986   3.269 -0.7003 -0.5247 -0.9741
15920TIP3   OH269174   5.738   5.490   0.618  1.1442  0.4503  0.5211
15920TIP3    H169175   5.777   5.442   0.545 -4.3300  0.4089 -2.9330
15920TIP3    H269176   5.682   5.426   0.662 -0.8521  1.9161  0.2891
15921TIP3   OH269177   6.040   4.520  16.627 -0.5304 -0.2479  0.2502
15921TIP3    H169178   5.993   4.513  16.710 -0.8065  0.4546  0.1547
15921TIP3    H269179   6.123   4.475  16.643 -1.0124 -1.0620  0.5728
15922TIP3   OH269180   6.076   5.955  14.246 -0.8296  0.3471  0.2679
15922TIP3    H169181   6.009   5.921  14.187  0.9041  1.4400 -2.5183
15922TIP3    H269182   6.152   5.898  14.233 -0.2875  0.8193  1.2188
15923TIP3   OH269183   4.142   3.289   4.505  0.7021  0.3489  0.6229
15923TIP3    H169184   4.130   3.246   4.589  0.9579  0.4121  0.6932
15923TIP3    H269185   4.237   3.290   4.492  0.6747  0.5160  0.4262
15924TIP3   OH269186   5.657   2.813  14.523 -0.3463  0.4371  0.2492
15924TIP3    H169187   5.725   2.833  14.459  0.2263 -1.8376  0.0621
15924TIP3    H269188   5.677   2.870  14.597  1.9030 -0.2747  0.2692
15925TIP3   OH269189   4.594   1.125   3.791  0.5540  0.4608 -0.3674
15925TIP3    H169190   4.537   1.094   3.861 -1.4129  0.8303 -1.7386
15925TIP3    H269191   4.571   1.217   3.780  1.0923  0.5018 -1.2552
15926TIP3   OH269192   4.623   6.398   2.578  0.2972  0.3312  0.7460
15926TIP3    H169193   4.627   6.314   2.532 -0.5025  0.1231  1.0313
15926TIP3    H269194   4.538   6.396   2.623  0.2800  1.2839  0.7676
15927TIP3   OH269195   3.638   2.680  12.382  0.3020 -0.0547  0.3104
15927TIP3    H169196   3.661   2.756  12.437 -0.7609  0.5146 -0.0069
15927TIP3    H269197   3.701   2.683  12.310  1.2923 -0.4255  1.1275
15928TIP3   OH269198   6.589   1.861  16.186  0.7246 -0.3439 -0.1242
15928TIP3    H169199   6.563   1.883  16.276  2.4435 -0.6861  0.4953
15928TIP3    H269200   6.527   1.793  16.159 -0.5618  0.5926  0.3414
15929TIP3   OH269201   4.926   4.032  12.810  0.7777  0.3461 -0.0187
15929TIP3    H169202   4.992   4.079  12.860  0.0675  0.1845  1.1115
15929TIP3    H269203   4.923   4.076  12.725  1.0932  1.4588  0.5394
15930TIP3   OH269204   1.321   0.450   4.622 -0.3090 -0.0271  0.0170
15930TIP3    H169205   1.340   0.356   4.629 -1.6211 -0.3133  0.1212
15930TIP3    H269206   1.249   0.463   4.684 -0.0043  1.0990  0.1447
15931TIP3   OH269207   0.709   4.700   5.474 -0.1599 -0.7416 -0.3051
15931TIP3    H169208   0.628   4.693   5.524  0.4255  0.8270  0.9467
15931TIP3    H269209   0.778   4.681   5.537  0.6562  2.2416 -0.1325
15932TIP3   OH269210   6.316   6.154   2.641 -0.4197 -0.8300 -0.2905
15932TIP3    H169211   6.388   6.122   2.587 -0.9808  0.1432 -1.6665
15932TIP3    H269212   6.306   6.246   2.617 -0.2048 -0.1147  2.0422
15933TIP3   OH269213   6.106   5.833  15.339  0.5646  0.1931 -0.5191
15933TIP3    H169214   6.060   5.795  15.264 -0.1439  0.3364 -0.1686
15933TIP3    H269215   6.102   5.765  15.406 -1.0032  0.9537  0.2274
15934TIP3   OH269216   3.884   1.977   3.139 -0.5255 -0.3521  0.1189
15934TIP3    H169217   3.876   2.049   3.201 -0.3840 -0.7793  0.6454
15934TIP3    H269218   3.848   2.011   3.058  2.3325  1.3981 -0.5658
15935TIP3   OH269219   3.467   3.952  16.122  0.2042  0.6773 -0.9077
15935TIP3    H169220   3.547   3.938  16.174 -0.9427 -1.1644  0.4867
15935TIP3    H269221   3.453   4.047  16.125  1.9238  0.9645 -0.5941
15936TIP3   OH269222   4.843   4.892  14.660  0.5065 -0.1488 -0.1314
15936TIP3    H169223   4.759   4.927  14.631  1.2027  0.7598 -1.1029
15936TIP3    H269224   4.880   4.960  14.716  1.8221  0.7134 -1.9503
15937TIP3   OH269225   5.489   0.237  11.227 -0.2618 -0.9006  0.3141
15937TIP3    H169226   5.487   0.200  11.315 -2.6419  1.4439  1.3884
15937TIP3    H269227   5.521   0.326  11.238 -0.2896 -0.6593 -1.2522
15938TIP3   OH269228   3.212   0.282  15.498 -0.8081  0.3090  0.2231
15938TIP3    H169229   3.152   0.210  15.519  0.7484 -0.2688  3.3316
15938TIP3    H269230   3.161   0.361  15.513 -1.3518 -0.1746  0.9996
15939TIP3   OH269231   2.502   4.965  15.283  0.5131  0.1020  0.1392
15939TIP3    H169232   2.563   5.034  15.309  0.1136  0.5052  0.0308
15939TIP3    H269233   2.417   5.008  15.281  0.5679  0.2276 -2.2988
15940TIP3   OH269234   1.104   3.683   1.338  0.0303 -0.0922 -0.0024
15940TIP3    H169235   1.123   3.665   1.431 -1.1740 -1.5288  0.0009
15940TIP3    H269236   1.079   3.598   1.302 -2.4560  0.9452 -0.9156
15941TIP3   OH269237   0.549   2.707  10.514  0.4414  0.4265  0.5386
15941TIP3    H169238   0.482   2.697  10.447  1.0094 -0.8406  0.1280
15941TIP3    H269239   0.545   2.800  10.538 -0.3506  0.7180 -0.6249
15942TIP3   OH269240   3.632   3.836  14.960  0.2556  0.4338 -0.0460
15942TIP3    H169241   3.578   3.859  14.884  0.5057 -1.2366 -0.7801
15942TIP3    H269242   3.710   3.796  14.922  1.1725  1.1101  1.0614
15943TIP3   OH269243   0.181   5.476   1.028 -0.2291  0.3446  0.1515
15943TIP3    H169244   0.148   5.538   0.964 -2.6098 -1.1875 -0.2114
15943TIP3    H269245   0.211   5.401   0.976  0.6659  0.3017  0.6978
15944TIP3   OH269246   1.956   6.469   4.633 -0.1097  0.0612 -0.2876
15944TIP3    H169247   2.040   6.507   4.609 -0.1704  0.4531  0.0953
15944TIP3    H269248   1.909   6.540   4.677 -0.1533 -0.5050  0.6120
15945TIP3   OH269249   2.848   2.026  17.292  0.1626 -0.5260 -1.0778
15945TIP3    H169250   2.801   1.944  17.303 -1.4662  0.5694  0.9302
15945TIP3    H269251   2.914   2.027  17.361 -1.2749  0.7211  0.3536
15946TIP3   OH269252   3.878   2.129  15.297  0.3145  0.0476  0.1811
15946TIP3    H169253   3.796   2.139  15.248  0.5926 -0.1397 -0.3289
15946TIP3    H269254   3.912   2.218  15.304 -0.3637  0.2450  1.1644
15947TIP3   OH269255   3.596   2.165  11.778 -0.2339  0.5777 -0.0580
15947TIP3    H169256   3.518   2.122  11.813 -0.6705  1.4296  0.0413
15947TIP3    H269257   3.605   2.130  11.690  0.1320 -0.6248  0.4435
15948TIP3   OH269258   2.463   4.149   1.234 -0.2892 -0.1242  0.1690
15948TIP3    H169259   2.532   4.169   1.297 -0.6740 -1.4009  1.0387
15948TIP3    H269260   2.478   4.209   1.161  1.4148 -0.0410  0.5620
15949TIP3   OH269261   4.735   6.003  17.025 -0.3265  0.2948  0.0203
15949TIP3    H169262   4.677   5.927  17.015 -1.0265  0.6626  1.0611
15949TIP3    H269263   4.676   6.075  17.047  0.4406  0.9039  0.1110
15950TIP3   OH269264   3.436   1.589  16.920 -0.5388 -0.3955  0.2313
15950TIP3    H169265   3.424   1.562  16.829 -0.3178  0.1274  0.0444
15950TIP3    H269266   3.500   1.527  16.955 -0.7114 -0.6690  0.0636
15951TIP3   OH269267   5.901   6.283  12.125  0.4017 -0.3894 -0.5670
15951TIP3    H169268   5.843   6.214  12.093  1.8085 -2.1486  0.5056
15951TIP3    H269269   5.877   6.360  12.074 -2.5786 -1.1148 -0.4853
15952TIP3   OH269270   5.036   6.256   6.008 -0.4514  0.0085  0.1019
15952TIP3    H169271   4.948   6.289   6.025 -0.3161  1.5016 -1.8154
15952TIP3    H269272   5.093   6.329   6.031  0.0731  0.0799 -1.3768
15953TIP3   OH269273   4.042   1.149  13.757 -0.2447  0.3877  0.2854
15953TIP3    H169274   4.132   1.181  13.768 -0.1833 -0.0154  1.0117
15953TIP3    H269275   4.016   1.182  13.671  1.7976 -2.3403 -1.5342
15954TIP3   OH269276   1.494   4.200   4.810 -0.0523 -0.1662 -0.0779
15954TIP3    H169277   1.475   4.236   4.897  0.5854 -1.2299  0.5225
15954TIP3    H269278   1.495   4.105   4.823  0.1317 -0.3335 -1.2321
15955TIP3   OH269279   3.293   6.445   0.978 -0.6526 -0.5055 -0.1765
15955TIP3    H169280   3.199   6.423   0.975 -0.7552 -0.0894 -0.1309
15955TIP3    H269281   3.334   6.381   0.922 -1.2704  0.8021 -2.2295
15956TIP3   OH269282   0.286   6.523  12.012 -0.6966  0.7865 -0.3192
15956TIP3    H169283   0.200   6.551  12.046 -1.2826  2.5618 -2.9888
15956TIP3    H269284   0.265   6.464  11.940  0.4258 -0.1390  0.0769
15957TIP3   OH269285   2.554   4.160   2.398  0.4680 -0.1151 -0.0270
15957TIP3    H169286   2.536   4.097   2.329  3.4541 -1.0324 -0.0966
15957TIP3    H269287   2.635   4.203   2.372  1.0422  0.3799  2.2998
15958TIP3   OH269288   5.514   6.013   3.138  0.2244 -0.3155 -0.2954
15958TIP3    H169289   5.495   6.086   3.195 -0.8056 -1.3062  0.6749
15958TIP3    H269290   5.609   6.003   3.143  0.3742  0.9067 -0.4162
15959TIP3   OH269291   3.505   5.838   4.226 -0.0608  0.1607  0.2011
15959TIP3    H169292   3.437   5.896   4.261 -1.3190 -0.7447 -0.6387
15959TIP3    H269293   3.571   5.834   4.295 -0.9222  0.9872  1.0990
15960TIP3   OH269294   0.362   2.223   3.876 -0.2651  0.1989  0.0064
15960TIP3    H169295   0.320   2.148   3.916 -2.2472  1.6976  0.8998
15960TIP3    H269296   0.291   2.287   3.863  1.3579  2.0236 -0.4276
15961TIP3   OH269297   3.122   4.211  11.173  0.5938  0.1883 -0.4183
15961TIP3    H169298   3.124   4.119  11.147  0.3944  0.1354 -0.2551
15961TIP3    H269299   3.210   4.228  11.207 -0.2567 -0.8940  2.7096
15962TIP3   OH269300   4.459   3.219   0.140 -0.0847  0.0535  0.1156
15962TIP3    H169301   4.439   3.255   0.227  1.6233 -1.0900  1.0297
15962TIP3    H269302   4.522   3.150   0.157 -1.1177 -1.4644 -1.8811
15963TIP3   OH269303   0.928   4.512  16.175 -0.1884 -0.0527  0.5814
15963TIP3    H169304   0.984   4.521  16.252 -0.2049 -1.7103  0.8245
15963TIP3    H269305   0.989   4.496  16.103 -0.2069  0.9114  0.3443
15964TIP3   OH269306   3.852   1.861   1.742  0.6915 -0.1192  0.5664
15964TIP3    H169307   3.806   1.900   1.816 -0.7463 -1.5273  0.4674
15964TIP3    H269308   3.884   1.936   1.692 -2.0293  1.0336  0.3323
15965TIP3   OH269309   6.552   2.049  13.243  0.6983  0.0324 -0.5265
15965TIP3    H169310   6.533   2.137  13.275  1.3021 -0.1109  0.2598
15965TIP3    H269311   6.574   2.061  13.150  0.2633  0.6372 -0.5497
15966TIP3   OH269312   0.414   6.629  12.359 -0.1360 -0.1568 -0.1483
15966TIP3    H169313   0.437   6.573  12.285  0.2885 -0.1649 -0.0163
15966TIP3    H269314   0.383   6.568  12.426 -2.2574 -0.0084 -0.9279
15967TIP3   OH269315   4.291   5.485   4.618 -0.0561  0.4857  0.3696
15967TIP3    H169316   4.277   5.580   4.625 -0.6418  0.3460  1.2697
15967TIP3    H269317   4.211   5.446   4.653  0.5476 -0.3371  0.8737
15968TIP3   OH269318   3.305   4.794   1.847 -0.0293 -0.1883 -0.2960
15968TIP3    H169319   3.368   4.848   1.798  1.1179 -1.6472 -0.4820
15968TIP3    H269320   3.314   4.823   1.938 -1.2689  1.6638 -0.6920
15969TIP3   OH269321   3.946   0.290   3.159  0.1511  0.0484  0.6793
15969TIP3    H169322   3.892   0.218   3.128  0.4474 -0.9021  2.2570
15969TIP3    H269323   3.886   0.365   3.164  0.0844  0.2750 -2.0177
15970TIP3   OH269324   0.747   5.641   1.990 -0.5297 -0.1495  0.4882
15970TIP3    H169325   0.681   5.572   1.994  0.1553 -0.7710  2.0414
15970TIP3    H269326   0.746   5.681   2.077  1.6583 -0.7237  0.8465
15971TIP3   OH269327   0.766   4.983  13.572  0.0094  0.3433  0.1185
15971TIP3    H169328   0.829   4.911  13.578  0.4466  0.6804 -0.3268
15971TIP3    H269329   0.810   5.057  13.615 -0.7829  0.1287  1.3482
15972TIP3   OH269330   2.409   3.053   5.038 -0.0581  0.4172 -0.4031
15972TIP3    H169331   2.393   2.985   4.973 -1.1546 -1.2836  1.5296
15972TIP3    H269332   2.498   3.084   5.019  0.6943 -1.9233 -1.0292
15973TIP3   OH269333   6.670   1.074  14.682 -0.8772  0.3880 -0.4972
15973TIP3    H169334   6.684   1.165  14.708 -0.8837  0.5789 -1.1528
15973TIP3    H269335   6.623   1.079  14.599  0.4462 -0.1832 -1.3128
15974TIP3   OH269336   1.462   5.958  14.529  0.0777 -0.3150 -0.3879
15974TIP3    H169337   1.430   5.877  14.568 -0.9001 -0.2351 -1.0095
15974TIP3    H269338   1.487   6.012  14.604  2.7525 -1.9410  0.0372
15975TIP3   OH269339   1.141   0.699   2.299  0.3235  0.1703 -0.4578
15975TIP3    H169340   1.169   0.647   2.224 -0.1623 -0.7688 -0.0031
15975TIP3    H269341   1.192   0.665   2.372 -0.2601  0.0782 -0.0852
15976TIP3   OH269342   2.171   0.639  12.186 -0.7040  0.0637 -0.5570
15976TIP3    H169343   2.122   0.721  12.199  1.0847  0.8995  1.5010
15976TIP3    H269344   2.188   0.636  12.092  1.0329  3.2405 -0.4620
15977TIP3   OH269345   4.547   4.219   2.481  0.0071 -0.1140 -0.2583
15977TIP3    H169346   4.587   4.271   2.551  0.7764 -3.1624  1.7451
15977TIP3    H269347   4.621   4.175   2.438 -0.6380  0.0951 -1.6497
15978TIP3   OH269348   4.024   5.795   3.784 -0.2596 -0.2434 -0.5589
15978TIP3    H169349   4.035   5.707   3.749 -0.8939 -0.1661 -0.9633
15978TIP3    H269350   3.981   5.844   3.714  2.6813  1.2272 -1.5241
15979TIP3   OH269351   3.642   1.991   1.573  0.5711  0.1365  0.1507
15979TIP3    H169352   3.733   1.964   1.559  0.6268  0.2478  0.2933
15979TIP3    H269353   3.594   1.909   1.581  0.4048  0.0487 -1.4796
15980TIP3   OH269354   5.104   2.866   1.160 -0.1989 -0.2362  0.0364
15980TIP3    H169355   5.011   2.885   1.169 -0.5547 -0.5962 -2.2450
15980TIP3    H269356   5.144   2.904   1.238 -2.1886  0.2767  0.8673
15981TIP3   OH269357   0.767   6.124   6.465  0.2598 -0.4895  0.3185
15981TIP3    H169358   0.842   6.182   6.450 -0.2800 -0.2493 -1.8556
15981TIP3    H269359   0.712   6.170   6.528  0.1625  1.1364 -0.8859
15982TIP3   OH269360   0.694   0.620  16.084 -0.5718  0.3827 -0.1602
15982TIP3    H169361   0.716   0.710  16.105  0.6871 -0.0339  0.3909
15982TIP3    H269362   0.715   0.570  16.163 -1.4024 -0.3764 -0.3965
15983TIP3   OH269363   6.569   3.909   3.793 -0.5176 -0.3276  0.6438
15983TIP3    H169364   6.603   3.913   3.883 -1.4245 -0.9476  1.0244
15983TIP3    H269365   6.503   3.839   3.795 -1.3017  0.3656 -0.2570
15984TIP3   OH269366   2.618   1.734   5.624  0.3113 -0.2994  0.0604
15984TIP3    H169367   2.615   1.815   5.675  1.7950  1.2560 -2.1518
15984TIP3    H269368   2.534   1.692   5.640 -0.8500  2.1052  0.6203
15985TIP3   OH269369   4.572   5.077   3.862  0.0122 -0.0147  0.1153
15985TIP3    H169370   4.478   5.092   3.848  0.0703 -0.4345 -0.7815
15985TIP3    H269371   4.606   5.161   3.892 -0.8127 -0.0946  1.3307
15986TIP3   OH269372   3.340   6.640   4.663  0.0372  0.2216 -0.2983
15986TIP3    H169373   3.416   6.670   4.613 -0.3351 -0.2003 -1.1358
15986TIP3    H269374   3.344   6.689   4.745  0.7015  0.8721 -0.7118
15987TIP3   OH269375   1.436   4.611  14.866  0.1865 -0.2504 -0.8904
15987TIP3    H169376   1.489   4.558  14.806  0.2252  0.1565 -1.2206
15987TIP3    H269377   1.393   4.675  14.810 -0.2460 -0.2454 -0.5541
15988TIP3   OH269378   3.867   4.235   3.699 -1.2485 -0.0705  0.2397
15988TIP3    H169379   3.923   4.305   3.667  0.2507  0.2611  3.2062
15988TIP3    H269380   3.914   4.154   3.680 -1.8042 -0.1231 -0.9821
15989TIP3   OH269381   4.029   0.336   0.938  0.0443 -0.0686 -0.7371
15989TIP3    H169382   4.110   0.341   0.887  0.7944 -0.2688  0.4104
15989TIP3    H269383   4.017   0.424   0.973 -1.2591  0.4679 -2.3860
15990TIP3   OH269384   3.032   2.398  12.694  0.1787 -0.1574 -0.2110
15990TIP3    H169385   3.121   2.366  12.708 -0.0480  0.0056  1.8002
15990TIP3    H269386   3.040   2.493  12.691  0.0798 -0.1409 -0.0018
15991TIP3   OH269387   4.912   3.468   3.223  0.0378 -0.2954  0.7792
15991TIP3    H169388   4.937   3.540   3.282  0.7350  1.0947 -1.1016
15991TIP3    H269389   4.942   3.497   3.137 -0.4947 -2.4748 -0.1976
15992TIP3   OH269390   0.500   0.619  16.481  0.3648  0.0510  0.5090
15992TIP3    H169391   0.495   0.690  16.544  0.1478  0.8466 -0.3832
15992TIP3    H269392   0.426   0.635  16.422  0.4074 -0.8321  0.2062
15993TIP3   OH269393   4.842   1.624   3.613 -0.2649 -0.1122  0.1972
15993TIP3    H169394   4.799   1.539   3.604 -0.8403 -0.0852  2.1700
15993TIP3    H269395   4.928   1.603   3.649 -0.5041  0.1309  0.9335
15994TIP3   OH269396   6.161   6.675  13.196  0.0149 -0.4207 -0.0307
15994TIP3    H169397   6.195   6.761  13.222 -0.4107 -0.5890  1.1353
15994TIP3    H269398   6.206   6.656  13.113  1.2413  0.2595  0.4441
15995TIP3   OH269399   2.924   4.345  11.353  0.2865 -0.4189  0.2151
15995TIP3    H169400   2.937   4.251  11.341  2.2418 -0.1724  0.0914
15995TIP3    H269401   2.912   4.380  11.265  2.0641 -0.2631 -0.0039
15996TIP3   OH269402   4.692   2.808   4.366 -0.6453 -0.6444  0.1216
15996TIP3    H169403   4.756   2.763   4.421 -1.4187  0.2751  1.8403
15996TIP3    H269404   4.704   2.769   4.280  3.0506  0.2934  0.0332
15997TIP3   OH269405   1.550   5.114   4.616 -0.2118  0.5141 -0.2143
15997TIP3    H169406   1.476   5.067   4.655  0.9303 -0.4679  0.8859
15997TIP3    H269407   1.625   5.058   4.633  1.1172  2.4013  0.5194
15998TIP3   OH269408   4.292   5.924  12.651  0.3767  0.3412 -0.1239
15998TIP3    H169409   4.220   5.958  12.598  1.3110  2.3947 -0.1973
15998TIP3    H269410   4.294   5.981  12.728  0.1845 -1.4527  1.2811
15999TIP3   OH269411   1.990   5.968  13.552  0.2531  0.1233 -0.1794
15999TIP3    H169412   2.025   6.008  13.473 -0.5637  1.0747 -0.0710
15999TIP3    H269413   1.950   5.886  13.522 -1.3365  1.1504 -1.0233
16000TIP3   OH269414   2.953   4.106  16.133  0.7607 -0.4517  0.0689
16000TIP3    H169415   2.942   4.201  16.131 -2.1235 -0.7106 -1.8124
16000TIP3    H269416   2.928   4.081  16.222  1.5053  0.5316  0.5690
16001TIP3   OH269417   2.136   2.655  11.044 -0.1036 -0.1842 -0.5257
16001TIP3    H169418   2.095   2.617  10.965  0.0362  0.8118 -1.0977
16001TIP3    H269419   2.068   2.712  11.080 -0.2977 -0.9292  0.3000
16002TIP3   OH269420   4.877   1.204  14.315  0.4208  0.5039 -0.6772
16002TIP3    H169421   4.836   1.290  14.326 -1.4598 -0.3945 -0.1719
16002TIP3    H269422   4.964   1.214  14.354 -0.0380  1.9752  0.0628
16003TIP3   OH269423   0.744   0.466  15.091 -0.4539 -0.6493  0.1147
16003TIP3    H169424   0.713   0.556  15.094 -1.0541 -0.8566  0.1749
16003TIP3    H269425   0.685   0.418  15.149 -0.4479 -1.1779 -0.3147
16004TIP3   OH269426   1.725   2.681  14.893 -0.1035  0.2306  0.0773
16004TIP3    H169427   1.659   2.743  14.924  0.7775  1.2552  0.0069
16004TIP3    H269428   1.676   2.612  14.849 -1.0824  1.2953 -0.5592
16005TIP3   OH269429   5.051   4.107   4.743  0.3005  0.0790  0.3213
16005TIP3    H169430   5.008   4.193   4.748 -0.3068 -0.2832  2.6092
16005TIP3    H269431   4.984   4.049   4.708  0.5887  0.4220 -0.8627
16006TIP3   OH269432   5.151   2.967   3.308 -0.1969 -0.5758  0.6964
16006TIP3    H169433   5.216   2.913   3.353  0.5911  0.9034  1.4240
16006TIP3    H269434   5.188   2.981   3.221 -0.7052 -1.6814  0.2807
16007TIP3   OH269435   2.798   3.581   4.906  0.3480  0.2052  0.2908
16007TIP3    H169436   2.829   3.625   4.986  1.6673 -1.3602  0.7059
16007TIP3    H269437   2.843   3.627   4.835  0.0378  0.8875  0.5239
16008TIP3   OH269438   3.354   3.338  14.618  0.1543 -0.0669 -0.2235
16008TIP3    H169439   3.354   3.376  14.530 -0.7211 -0.5919 -0.4510
16008TIP3    H269440   3.364   3.414  14.677  1.9004  0.1941 -0.7878
16009TIP3   OH269441   1.851   6.057  16.148 -0.0035  0.5704  0.0986
16009TIP3    H169442   1.849   6.152  16.140 -0.0584  0.6585  1.0366
16009TIP3    H269443   1.830   6.025  16.061 -0.1506  1.4201 -0.1865
16010TIP3   OH269444   0.827   2.698   1.461 -0.2770 -0.0187 -0.2451
16010TIP3    H169445   0.819   2.615   1.508 -0.0040 -0.3510 -0.7795
16010TIP3    H269446   0.901   2.743   1.503 -0.9829  0.3615  0.6376
16011TIP3   OH269447   3.930   2.356  15.752 -0.5682  0.2412 -0.3668
16011TIP3    H169448   3.999   2.343  15.817  0.0508 -1.3713 -1.3016
16011TIP3    H269449   3.894   2.443  15.773  1.0239  0.6782  0.7862
16012TIP3   OH269450   3.128   2.829   5.478 -0.4083  0.3615 -0.5571
16012TIP3    H169451   3.139   2.923   5.462 -1.5418  0.6610  0.3353
16012TIP3    H269452   3.141   2.789   5.392  1.0549  1.2210 -0.7774
16013TIP3   OH269453   0.521   0.374   1.892  0.0689 -0.0639 -0.2107
16013TIP3    H169454   0.546   0.433   1.821  2.1395  0.2353  0.7162
16013TIP3    H269455   0.497   0.431   1.964  0.8385 -0.3276  0.2694
16014TIP3   OH269456   5.934   5.143  15.455 -0.0136  0.0761  0.3673
16014TIP3    H169457   5.882   5.215  15.492  0.5575  1.2763 -1.0660
16014TIP3    H269458   6.018   5.148  15.499 -0.8743 -1.5952  2.3725
16015TIP3   OH269459   0.984   4.167   4.515  0.4861 -0.2015 -0.3533
16015TIP3    H169460   0.953   4.111   4.586  0.2288 -0.4241 -0.6382
16015TIP3    H269461   0.986   4.255   4.552  0.1094 -0.2807 -0.1456
16016TIP3   OH269462   6.308   5.709   3.979 -0.1051 -0.7547 -0.0180
16016TIP3    H169463   6.225   5.752   3.957  1.3872  1.0333 -2.7702
16016TIP3    H269464   6.321   5.645   3.910  1.8398  0.6640 -1.0872
16017TIP3   OH269465   4.564   6.457  13.667 -0.0744 -0.2364  0.4965
16017TIP3    H169466   4.641   6.465  13.722  0.0009  0.6450  0.2777
16017TIP3    H269467   4.530   6.546  13.660 -1.5247 -0.7108  1.1629
16018TIP3   OH269468   4.966   1.128   1.333 -0.0561 -0.6289  0.0872
16018TIP3    H169469   4.947   1.107   1.425  1.4807  0.6239  0.7397
16018TIP3    H269470   5.013   1.051   1.300  0.1975 -0.7111  0.6307
16019TIP3   OH269471   3.108   4.145   0.059 -0.1696  0.4072  0.5794
16019TIP3    H169472   3.041   4.078   0.073 -0.1311 -0.0477 -1.1924
16019TIP3    H269473   3.060   4.220   0.025  0.1315  0.2633 -0.1876
16020TIP3   OH269474   2.328   2.048  11.662 -0.2486 -0.1660 -0.4651
16020TIP3    H169475   2.271   2.006  11.725 -0.6425  0.1210 -0.6300
16020TIP3    H269476   2.386   2.103  11.715 -0.4850 -0.0344 -0.3418
16021TIP3   OH269477   4.712   3.451  15.731  0.2870  0.4726 -0.0056
16021TIP3    H169478   4.706   3.356  15.739 -1.6309  0.4979 -0.7125
16021TIP3    H269479   4.804   3.470  15.750  0.6841 -1.4928  0.3146
16022TIP3   OH269480   1.575   0.421   1.134 -0.1447  0.1866  0.7044
16022TIP3    H169481   1.616   0.472   1.203 -1.2774 -0.6820  2.0823
16022TIP3    H269482   1.522   0.484   1.085  0.8545  0.8519  0.4663
16023TIP3   OH269483   3.817   6.325  12.143 -0.1249  0.5362 -0.2989
16023TIP3    H169484   3.865   6.265  12.085 -0.2616  1.1813 -1.0940
16023TIP3    H269485   3.783   6.393  12.085  0.1221  1.4556  0.5983
16024TIP3   OH269486   0.558   3.808  16.340  0.1168  0.0455 -0.3150
16024TIP3    H169487   0.481   3.806  16.284  0.7107 -1.2636 -1.1205
16024TIP3    H269488   0.529   3.765  16.421 -0.2768  0.4906 -0.2114
16025TIP3   OH269489   1.673   4.138   0.414  0.4642  0.1646 -0.3408
16025TIP3    H169490   1.622   4.084   0.353 -0.6071  0.4869  0.2544
16025TIP3    H269491   1.705   4.211   0.360 -0.0588  0.1850 -0.6232
16026TIP3   OH269492   1.199   1.112  15.439 -0.3885  0.3997  0.0004
16026TIP3    H169493   1.275   1.072  15.396  1.4019  1.4285  1.9803
16026TIP3    H269494   1.155   1.040  15.483  0.2138 -0.0243 -0.0813
16027TIP3   OH269495   4.526   5.860  16.596  0.1942  0.3146  0.4451
16027TIP3    H169496   4.501   5.942  16.638 -1.8154 -0.7511  1.4737
16027TIP3    H269497   4.597   5.826  16.650 -0.3056  0.4490  1.2047
16028TIP3   OH269498   6.584   5.798  14.009  0.0479  0.5438  0.2356
16028TIP3    H169499   6.563   5.777  13.918  1.2015 -0.8018  0.2528
16028TIP3    H269500   6.668   5.843  14.005 -0.4385  1.5089  0.5592
16029TIP3   OH269501   1.968   1.423   3.310  0.2479 -0.0954  1.1194
16029TIP3    H169502   1.971   1.507   3.354 -0.6057 -0.4179  1.8232
16029TIP3    H269503   2.042   1.374   3.346  0.7805  0.3669  0.6623
16030TIP3   OH269504   1.683   6.207   1.109 -0.0949 -0.0042 -0.2238
16030TIP3    H169505   1.757   6.267   1.121 -1.5128  1.4436  2.2313
16030TIP3    H269506   1.672   6.167   1.195 -1.1895 -1.4016 -0.9884
16031TIP3   OH269507   5.850   3.349  13.685 -0.8479  0.2738 -0.7710
16031TIP3    H169508   5.929   3.310  13.648  0.0981  0.2156  1.2221
16031TIP3    H269509   5.872   3.442  13.697  0.0908 -0.2582  2.5329
16032TIP3   OH269510   6.198   2.591  16.574  0.3785 -0.0187 -0.2045
16032TIP3    H169511   6.265   2.587  16.506  1.0726  0.5531  0.4317
16032TIP3    H269512   6.177   2.685  16.581 -0.6169 -0.2025 -0.5139
16033TIP3   OH269513   0.188   4.008  12.570 -0.2944  0.2442 -0.4751
16033TIP3    H169514   0.263   3.955  12.543 -0.1455 -0.3588  1.0356
16033TIP3    H269515   0.113   3.949  12.562 -0.4659  0.5228 -0.9696
16034TIP3   OH269516   1.479   6.541   1.225  0.0442 -0.1958 -0.1128
16034TIP3    H169517   1.406   6.481   1.205 -0.8032  0.9567 -0.5854
16034TIP3    H269518   1.463   6.568   1.315  1.5066 -2.1141  0.7963
16035TIP3   OH269519   1.415   4.874   2.991  0.4694 -0.0258 -0.0104
16035TIP3    H169520   1.359   4.849   3.065  0.7005 -0.9754 -0.1504
16035TIP3    H269521   1.360   4.933   2.939  0.3753  0.8199  1.0192
16036TIP3   OH269522   2.077   6.197  13.719 -0.3227 -0.0841  0.1671
16036TIP3    H169523   2.010   6.172  13.655  0.3354 -2.4012  0.3130
16036TIP3    H269524   2.158   6.161  13.685  0.6276  1.3839  0.7640
16037TIP3   OH269525   3.514   6.468  15.843  0.9900  0.0465 -0.5541
16037TIP3    H169526   3.536   6.398  15.904  2.3824  1.3728  0.5217
16037TIP3    H269527   3.575   6.457  15.770  2.8108  1.4322  0.6695
16038TIP3   OH269528   3.985   2.414   1.019 -0.3177 -0.0959 -0.1631
16038TIP3    H169529   3.894   2.445   1.012 -0.5566 -0.4851  0.9774
16038TIP3    H269530   4.021   2.464   1.092  0.6229  0.5743 -1.0626
16039TIP3   OH269531   5.058   1.974   3.896  0.0744  0.1603 -0.4238
16039TIP3    H169532   4.979   1.934   3.932  0.1549  1.3691  1.1823
16039TIP3    H269533   5.100   2.017   3.970  0.1292  2.9859 -1.9435
16040TIP3   OH269534   2.064   5.119   5.384  0.1072 -0.1010 -0.6101
16040TIP3    H169535   2.103   5.157   5.305 -0.3931  0.2939 -0.6718
16040TIP3    H269536   1.994   5.180   5.408  0.4923 -0.0293  0.3470
16041TIP3   OH269537   1.795   0.690  11.105 -0.1037 -0.2470  0.0502
16041TIP3    H169538   1.717   0.728  11.064  0.1395 -1.2583 -1.4101
16041TIP3    H269539   1.779   0.596  11.104  0.3726 -0.3698  1.3969
16042TIP3   OH269540   4.094   1.175   3.879 -0.3617  0.1846 -0.2995
16042TIP3    H169541   4.063   1.261   3.853 -0.4121 -0.3545 -2.1694
16042TIP3    H269542   4.020   1.136   3.926  0.4557  1.9683  2.6767
16043TIP3   OH269543   3.614   2.117   5.952  0.1978 -0.2574  0.1820
16043TIP3    H169544   3.705   2.093   5.965  0.3089  0.1210  0.1203
16043TIP3    H269545   3.583   2.142   6.039  0.4585  0.6297  0.0381
16044TIP3   OH269546   6.492   0.406   1.860 -0.3629 -0.3328 -0.3256
16044TIP3    H169547   6.401   0.400   1.829 -0.8214  2.9485  0.0220
16044TIP3    H269548   6.485   0.412   1.955  0.2167 -0.0384 -0.2979
16045TIP3   OH269549   3.382   1.651   0.284 -0.0686  0.2540 -0.7597
16045TIP3    H169550   3.436   1.703   0.225  0.2936 -0.2431 -0.8712
16045TIP3    H269551   3.426   1.566   0.289 -0.7171 -0.0834 -0.6694
16046TIP3   OH269552   4.749   6.639   5.651  0.3869 -0.3828  0.5002
16046TIP3    H169553   4.724   6.731   5.645  0.4055 -0.4764 -2.1066
16046TIP3    H269554   4.666   6.592   5.657  0.3640 -0.2408  1.4371
16047TIP3   OH269555   2.272   6.331  11.697 -0.3310 -0.4905 -0.0916
16047TIP3    H169556   2.208   6.282  11.645 -0.4486 -0.6725  0.2214
16047TIP3    H269557   2.357   6.293  11.673 -0.3145 -0.0422 -0.7344
16048TIP3   OH269558   2.144   6.546  13.280 -0.6144  0.2186 -0.0665
16048TIP3    H169559   2.050   6.557  13.266 -0.5336 -0.7010 -1.5394
16048TIP3    H269560   2.184   6.608  13.219 -0.2127  2.5939  2.4443
16049TIP3   OH269561   5.611   0.176  12.972  0.0180  0.1068  0.0190
16049TIP3    H169562   5.546   0.184  12.902 -0.4819  1.3779  0.5872
16049TIP3    H269563   5.561   0.146  13.048  0.4364 -0.6210  0.0183
16050TIP3   OH269564   4.338   5.918   4.894 -0.7517 -0.4686 -0.1464
16050TIP3    H169565   4.319   5.833   4.935 -0.0034 -0.9456 -0.7740
16050TIP3    H269566   4.396   5.897   4.822  0.9065  0.7753  0.7777
16051TIP3   OH269567   3.049   1.361  14.379  0.2206 -0.2040  0.1092
16051TIP3    H169568   3.040   1.295  14.310  1.1230  0.8958 -1.1296
16051TIP3    H269569   3.108   1.426  14.341  0.2762  0.7322  1.7283
16052TIP3   OH269570   6.271   4.909  13.706  0.0777 -0.3890 -0.0792
16052TIP3    H169571   6.310   4.943  13.625 -0.3738  0.2199 -0.0451
16052TIP3    H269572   6.227   4.984  13.745 -0.7307 -0.9503  0.1226
16053TIP3   OH269573   4.758   6.337   2.801 -0.1842 -0.3885  0.3854
16053TIP3    H169574   4.731   6.375   2.717 -1.3850 -0.2606  0.7979
16053TIP3    H269575   4.694   6.372   2.863  0.0523 -1.3169  1.1679
16054TIP3   OH269576   1.067   6.196  16.117  0.4424 -0.1491 -0.6036
16054TIP3    H169577   1.128   6.171  16.048 -1.2439 -1.3791 -1.7213
16054TIP3    H269578   1.011   6.119  16.130 -0.4372  0.6744  0.8701
16055TIP3   OH269579   3.293   2.209  14.239  0.3763 -0.2148  0.2086
16055TIP3    H169580   3.216   2.256  14.206  0.2333 -0.3905  0.2854
16055TIP3    H269581   3.355   2.210  14.166  1.1539  1.7591  0.8150
16056TIP3   OH269582   4.217   1.441   5.761 -0.2235 -0.6934  0.0329
16056TIP3    H169583   4.295   1.462   5.813  1.0693 -0.4287 -1.8960
16056TIP3    H269584   4.169   1.378   5.814  0.9517 -0.3533  1.5832
16057TIP3   OH269585   2.983   4.960  13.932  0.5493  0.2918 -0.2219
16057TIP3    H169586   2.906   4.932  13.882  0.7483  1.9378 -1.5410
16057TIP3    H269587   2.973   5.055  13.939  1.5708  0.3354  1.1745
16058TIP3   OH269588   1.853   2.676  13.911 -0.3003  0.5863  0.4201
16058TIP3    H169589   1.925   2.712  13.962 -0.7496  0.6212  1.0377
16058TIP3    H269590   1.805   2.752  13.878 -1.0076  0.5742  1.3811
16059TIP3   OH269591   1.713   1.628  10.795  0.6942  0.2176 -0.5271
16059TIP3    H169592   1.736   1.721  10.792  0.5515  0.2151 -1.9324
16059TIP3    H269593   1.629   1.622  10.749 -0.0283 -0.4175  0.7954
16060TIP3   OH269594   0.501   4.372  12.346 -1.1560 -0.3913  0.1542
16060TIP3    H169595   0.536   4.416  12.269  0.2085  1.0283  1.5198
16060TIP3    H269596   0.500   4.279  12.321 -1.8214  0.1228 -1.9344
16061TIP3   OH269597   6.659   3.780  16.834  0.6811 -0.4395 -0.4612
16061TIP3    H169598   6.576   3.811  16.871 -0.4153 -1.4675 -1.9800
16061TIP3    H269599   6.643   3.688  16.813  2.0616 -0.5249 -1.2206
16062TIP3   OH269600   6.688   4.666   0.789  0.5312 -0.0124 -0.0535
16062TIP3    H169601   6.665   4.574   0.802 -0.0625  0.0288 -0.7181
16062TIP3    H269602   6.604   4.709   0.769  0.4498  1.0738  2.3487
16063TIP3   OH269603   2.260   1.537  14.160  0.0208  0.0981 -0.1830
16063TIP3    H169604   2.210   1.569  14.235 -1.0812 -0.5614 -0.6100
16063TIP3    H269605   2.350   1.564  14.178 -0.2275 -0.0086  1.3487
16064TIP3   OH269606   2.891   6.317   3.008  0.3704 -0.5365 -0.0052
16064TIP3    H169607   2.893   6.223   2.987  1.6806 -0.6886  0.6786
16064TIP3    H269608   2.982   6.345   2.998 -0.2187  1.0021 -1.5502
16065TIP3   OH269609   6.560   0.575   1.447 -0.5009  0.1951  0.5221
16065TIP3    H169610   6.641   0.576   1.498 -0.8836  0.8982  1.1489
16065TIP3    H269611   6.509   0.502   1.484  0.0009 -0.5048 -0.1438
16066TIP3   OH269612   4.266   1.172   2.924  0.3436 -0.4947  0.1337
16066TIP3    H169613   4.216   1.253   2.911 -0.3715 -1.2635 -2.5395
16066TIP3    H269614   4.352   1.190   2.887  0.4837 -0.6818  0.3637
16067TIP3   OH269615   4.648   0.224   5.948 -0.8076  0.5621  0.5404
16067TIP3    H169616   4.676   0.225   5.857 -1.4138 -3.6148  0.0943
16067TIP3    H269617   4.717   0.270   5.996 -0.0448  2.0915 -1.8610
16068TIP3   OH269618   4.887   4.438   1.561  0.3688 -0.2476 -0.1498
16068TIP3    H169619   4.806   4.444   1.611  0.6112 -0.0779  0.2250
16068TIP3    H269620   4.889   4.518   1.508 -0.0523 -0.5860 -0.6826
16069TIP3   OH269621   1.334   6.276  11.935 -0.6800  0.0669  0.0911
16069TIP3    H169622   1.265   6.283  11.869 -0.7286  0.0309  0.1385
16069TIP3    H269623   1.342   6.364  11.971 -0.4293  0.1655 -0.1930
16070TIP3   OH269624   5.605   0.645  14.451  0.1771 -0.3666 -0.0305
16070TIP3    H169625   5.652   0.612  14.374 -0.0646 -0.5849 -0.0845
16070TIP3    H269626   5.566   0.727  14.421  0.6352 -0.1160  0.0548
16071TIP3   OH269627   1.337   2.836   1.755  0.5121 -0.3631  0.1724
16071TIP3    H169628   1.367   2.880   1.835  0.3312 -0.6240  0.3832
16071TIP3    H269629   1.369   2.746   1.763  0.2854 -0.4543  0.0642
16072TIP3   OH269630   2.086   3.525  16.247  0.1138 -0.2803  0.3429
16072TIP3    H169631   2.170   3.552  16.284  0.6531 -0.2739 -0.8383
16072TIP3    H269632   2.093   3.430  16.240  0.4157 -0.2000 -0.6299
16073TIP3   OH269633   1.619   1.668   4.254 -0.1547  0.2097 -0.2675
16073TIP3    H169634   1.561   1.698   4.184  0.1245 -0.2530 -0.7018
16073TIP3    H269635   1.577   1.589   4.288  0.1167 -0.0162 -0.4524
16074TIP3   OH269636   2.338   4.539  13.384 -0.3785  0.0582  0.4105
16074TIP3    H169637   2.433   4.546  13.371 -0.2874 -0.7409  0.5459
16074TIP3    H269638   2.321   4.444  13.380 -1.3846  0.2675 -1.0991
16075TIP3   OH269639   6.628   6.326   3.868 -1.1111  0.2748  0.5322
16075TIP3    H169640   6.558   6.280   3.823  0.7732 -0.6037 -1.7343
16075TIP3    H269641   6.659   6.263   3.934  0.1940 -1.0921 -1.2685
16076TIP3   OH269642   3.529   1.455  13.440  0.0648  0.0546  0.1649
16076TIP3    H169643   3.490   1.377  13.479  0.0038  0.1195  0.2341
16076TIP3    H269644   3.457   1.496  13.392 -0.1585  0.5847  0.9160
16077TIP3   OH269645   4.558   3.541   1.378  0.3342  0.2828  0.0470
16077TIP3    H169646   4.639   3.553   1.427  1.0156 -2.3267 -0.2824
16077TIP3    H269647   4.586   3.533   1.287 -0.4090  0.2892 -0.1868
16078TIP3   OH269648   2.104   1.269  11.811  0.0176  0.1648 -0.5923
16078TIP3    H169649   2.192   1.236  11.828  0.7083  2.3546  0.5183
16078TIP3    H269650   2.079   1.314  11.891 -3.0160 -2.0701 -0.1333
16079TIP3   OH269651   1.201   2.565  17.233  0.3394  0.1089  0.6996
16079TIP3    H169652   1.186   2.506  17.159  0.1676 -0.9192  1.5431
16079TIP3    H269653   1.296   2.563  17.246  0.3445  0.1051  0.6626
16080TIP3   OH269654   6.185   0.141  11.521 -0.3336  0.2909 -0.4125
16080TIP3    H169655   6.146   0.216  11.566  0.9181  0.9222 -0.3415
16080TIP3    H269656   6.162   0.066  11.576 -0.9721  0.7112 -0.0872
16081TIP3   OH269657   1.976   2.944   1.877 -0.1218  0.0308 -0.0658
16081TIP3    H169658   2.013   2.866   1.918  0.4644  0.0509 -0.5309
16081TIP3    H269659   1.935   2.912   1.797  0.0766  0.1827 -0.2331
16082TIP3   OH269660   2.072   3.772   4.433 -0.1568 -0.1528 -0.1830
16082TIP3    H169661   2.079   3.677   4.427  2.8410 -0.0469  0.0205
16082TIP3    H269662   2.115   3.804   4.353 -1.2415  1.0583 -0.3203
16083TIP3   OH269663   5.352   1.071   0.659 -0.0110 -0.6298  0.0199
16083TIP3    H169664   5.297   1.101   0.731  0.1348 -0.2603 -0.0240
16083TIP3    H269665   5.437   1.053   0.699 -0.2125 -1.4085  0.1295
16084TIP3   OH269666   2.254   1.730   1.101 -0.0908 -0.4057 -0.3479
16084TIP3    H169667   2.176   1.682   1.075 -1.1107 -0.1158  1.9714
16084TIP3    H269668   2.229   1.822   1.096  0.5792 -0.2459 -0.9462
16085TIP3   OH269669   1.968   1.368   1.725  0.0980 -0.6196  0.5737
16085TIP3    H169670   2.053   1.388   1.765  0.7869  2.6519 -2.0330
16085TIP3    H269671   1.909   1.353   1.799  2.2400  0.3645  2.6140
16086TIP3   OH269672   4.061   5.441  11.710  0.0118  0.2847  0.6719
16086TIP3    H169673   4.139   5.487  11.740  0.3214 -0.2396  0.6843
16086TIP3    H269674   4.089   5.350  11.700 -0.3595  0.2563 -0.1977
16087TIP3   OH269675   1.498   0.497  16.465 -0.7319  0.6335 -0.0176
16087TIP3    H169676   1.515   0.536  16.550  0.6737 -2.8006  1.4640
16087TIP3    H269677   1.549   0.549  16.403  0.4317  1.5467  1.6478
16088TIP3   OH269678   6.394   5.793  11.621 -0.3031 -0.2052 -0.4048
16088TIP3    H169679   6.365   5.704  11.639 -2.3997  0.5374  0.1789
16088TIP3    H269680   6.391   5.800  11.526 -0.9368 -0.5092 -0.4095
16089TIP3   OH269681   4.674   4.732   1.001 -0.3171 -0.2944  0.5612
16089TIP3    H169682   4.616   4.735   0.925 -1.0005 -1.2808  1.0233
16089TIP3    H269683   4.730   4.656   0.985 -2.1407 -2.1153  2.1585
16090TIP3   OH269684   1.293   5.430   3.572  0.2723  0.5629 -0.3623
16090TIP3    H169685   1.238   5.380   3.632  3.3939 -1.8090  0.7780
16090TIP3    H269686   1.304   5.515   3.615  1.1758 -0.5504  1.7283
16091TIP3   OH269687   2.597   2.835  12.410 -0.4391 -0.4946 -0.4610
16091TIP3    H169688   2.589   2.744  12.437 -2.4241 -0.5766 -1.1442
16091TIP3    H269689   2.514   2.875  12.436  0.0495  0.8900 -0.9558
16092TIP3   OH269690   4.613   5.325   5.077 -0.0988 -0.5162  0.3461
16092TIP3    H169691   4.528   5.331   5.120 -0.5034  1.2890 -0.6181
16092TIP3    H269692   4.601   5.371   4.993  2.3252  1.6051  1.0315
16093TIP3   OH269693   0.068   4.859   3.806  0.3353 -0.3430 -0.2619
16093TIP3    H169694   0.093   4.773   3.842 -1.3148 -0.7356  0.0018
16093TIP3    H269695  -0.027   4.857   3.802  0.1061  2.1680  1.4617
16094TIP3   OH269696   5.161   5.107   1.261  0.2266 -0.6021  0.1448
16094TIP3    H169697   5.117   5.113   1.346 -0.9874 -0.7316 -0.4409
16094TIP3    H269698   5.151   5.195   1.224 -2.5015 -1.4230 -1.3466
16095TIP3   OH269699   3.258   0.267  16.703 -0.1559  0.1913  0.1207
16095TIP3    H169700   3.262   0.316  16.785 -0.8529 -0.4324  0.5430
16095TIP3    H269701   3.338   0.291  16.657 -0.1600  1.2047  0.6083
16096TIP3   OH269702   2.075   4.157  11.359  0.1520 -0.1373 -0.5308
16096TIP3    H169703   2.144   4.120  11.414  1.5273 -0.9910 -2.6611
16096TIP3    H269704   2.033   4.080  11.319 -3.7088  0.1671  2.3572
16097TIP3   OH269705   5.120   6.583   3.213 -0.1331  0.2158  0.4734
16097TIP3    H169706   5.114   6.569   3.308  1.1725 -1.4548  0.3529
16097TIP3    H269707   5.104   6.497   3.175 -1.9568  1.1118 -0.9267
16098TIP3   OH269708   4.788   6.279  13.435 -0.0706 -0.1501  0.5490
16098TIP3    H169709   4.835   6.355  13.470 -0.2172  0.2937 -0.1963
16098TIP3    H269710   4.707   6.316  13.399  0.0390 -0.6022 -0.1774
16099TIP3   OH269711   4.550   0.885  12.853 -0.4057  0.1757  0.1127
16099TIP3    H169712   4.620   0.950  12.848 -0.3216  0.0866  0.1309
16099TIP3    H269713   4.469   0.936  12.851 -0.3316  0.4024  1.7627
16100TIP3   OH269714   1.020   6.090   1.540  0.5701  0.5916 -0.1868
16100TIP3    H169715   1.016   5.995   1.553  1.1822  0.6291  0.3697
16100TIP3    H269716   0.981   6.105   1.454 -2.3054  0.1419  0.9378
16101TIP3   OH269717   3.556   5.798   5.321  0.2133  0.2441  0.1808
16101TIP3    H169718   3.595   5.839   5.243  1.5404 -0.1642  0.5991
16101TIP3    H269719   3.619   5.816   5.391 -0.4221 -0.3427  0.9158
16102TIP3   OH269720   2.467   3.172  12.208  0.1085  0.0167 -0.1181
16102TIP3    H169721   2.440   3.263  12.192  3.1727  0.9101 -0.7706
16102TIP3    H269722   2.502   3.143  12.124 -1.0735 -1.9446  0.0003
16103TIP3   OH269723   1.763   2.512   2.112  0.1751 -0.8867 -0.0664
16103TIP3    H169724   1.744   2.598   2.073 -0.6518 -0.7640  0.5744
16103TIP3    H269725   1.813   2.466   2.044  0.4378  0.0135 -0.5069
16104TIP3   OH269726   1.637   5.726  12.963  0.0075  0.0438 -1.0833
16104TIP3    H169727   1.605   5.724  12.873  0.2573 -1.0030 -1.1591
16104TIP3    H269728   1.671   5.638  12.979  0.0691  0.2450 -0.0017
16105TIP3   OH269729   6.005   0.926  13.107 -0.2907  0.3822  0.4764
16105TIP3    H169730   6.037   0.980  13.179 -0.9972  2.7485 -0.8544
16105TIP3    H269731   5.948   0.985  13.057 -2.4061 -2.0902 -0.2235
16106TIP3   OH269732   3.526   5.047   3.718 -0.3464  0.1555 -0.3997
16106TIP3    H169733   3.485   4.979   3.773 -1.3094  1.6912  0.8739
16106TIP3    H269734   3.557   5.112   3.781 -0.1913  1.2922 -1.6233
16107TIP3   OH269735   6.519   1.616  13.423 -0.3861  0.2313 -0.3081
16107TIP3    H169736   6.605   1.640  13.458  0.3010 -1.6608 -0.5828
16107TIP3    H269737   6.496   1.688  13.364  0.9249  0.8363 -0.1212
16108TIP3   OH269738   2.461   6.734  17.022 -0.1035  0.9836  0.2049
16108TIP3    H169739   2.543   6.764  16.984 -0.5933  2.1794  0.0550
16108TIP3    H269740   2.476   6.735  17.116 -0.6642  3.5541  0.3422
16109TIP3   OH269741   3.191   5.155  11.863 -0.2265 -0.4123 -0.4431
16109TIP3    H169742   3.219   5.067  11.835 -0.9238 -0.1217 -2.2127
16109TIP3    H269743   3.263   5.212  11.835 -0.9404 -0.1151 -1.7762
16110TIP3   OH269744   5.137   6.312  13.744 -0.6082  0.0319  0.6320
16110TIP3    H169745   5.155   6.303  13.651 -0.8970 -1.1769  0.6807
16110TIP3    H269746   5.221   6.333  13.784 -0.5193  0.7347  0.0817
16111TIP3   OH269747   4.359   0.157  11.705 -0.6303 -0.8261  0.6325
16111TIP3    H169748   4.268   0.135  11.684 -0.4176  0.3176 -1.7973
16111TIP3    H269749   4.406   0.148  11.622  1.0667  0.6560  1.3645
16112TIP3   OH269750   4.977   1.458  15.259  0.0171 -0.2661 -0.0535
16112TIP3    H169751   5.069   1.468  15.283  0.4939  0.2261 -1.8951
16112TIP3    H269752   4.971   1.498  15.172 -2.5006  2.2315  1.0875
16113TIP3   OH269753   1.005   4.889   6.735 -0.4943  0.1717 -0.5672
16113TIP3    H169754   1.009   4.850   6.822 -1.1662  1.4502  0.0665
16113TIP3    H269755   1.052   4.972   6.743 -0.3853  0.2073 -1.4757
16114TIP3   OH269756   4.615   1.473   3.923  0.2274 -0.7027 -0.1518
16114TIP3    H169757   4.701   1.433   3.925  1.3956  1.6243  3.1103
16114TIP3    H269758   4.563   1.423   3.986  0.4471  0.3671  0.8890
16115TIP3   OH269759   2.939   1.618  14.288  0.0880  0.0524 -0.1703
16115TIP3    H169760   3.008   1.683  14.298  3.4385 -3.4835  2.7520
16115TIP3    H269761   2.937   1.599  14.194  2.0538  1.3198 -0.5201
16116TIP3   OH269762   4.849   5.650  11.612 -0.0255 -0.5174  0.2103
16116TIP3    H169763   4.785   5.707  11.655  0.1266 -0.7604  0.7554
16116TIP3    H269764   4.846   5.568  11.661  0.1053 -0.8186 -0.2778
16117TIP3   OH269765   3.170   3.129   5.418 -0.0543 -0.2021 -0.1642
16117TIP3    H169766   3.194   3.206   5.470  1.7233 -1.4792  1.0376
16117TIP3    H269767   3.155   3.163   5.330  2.1328  1.3716 -0.0115
16118TIP3   OH269768   3.399   3.405  16.408 -0.4505  0.2673 -0.0782
16118TIP3    H169769   3.389   3.491  16.367 -0.9195  0.0031 -0.5235
16118TIP3    H269770   3.429   3.348  16.338 -1.5409 -0.2511 -0.1416
16119TIP3   OH269771   2.236   2.942   4.842  1.0295 -0.3445  0.1146
16119TIP3    H169772   2.193   2.882   4.903  0.8420  0.2534  0.5695
16119TIP3    H269773   2.309   2.891   4.807 -0.8098 -1.9087 -1.7532
16120TIP3   OH269774   0.005   3.514   6.022 -1.0843 -0.0785 -0.7629
16120TIP3    H169775  -0.002   3.534   6.115  0.4753  0.2236 -0.6804
16120TIP3    H269776   0.078   3.452   6.016 -0.7849  0.3505 -1.8389
16121TIP3   OH269777   0.886   6.515  12.019 -0.0536  0.1869  0.2140
16121TIP3    H169778   0.865   6.422  12.021 -0.4581  0.2783  0.2964
16121TIP3    H269779   0.970   6.522  12.064  1.1487 -0.4300 -1.7842
16122TIP3   OH269780   2.445   1.602  16.402  0.3096  0.1416 -0.1518
16122TIP3    H169781   2.427   1.577  16.493 -1.5319 -1.2923 -0.8530
16122TIP3    H269782   2.398   1.685  16.391  1.1042  0.6724  0.3811
16123TIP3   OH269783   6.157   1.881  16.911 -0.4750 -0.3222  0.2081
16123TIP3    H169784   6.158   1.943  16.984 -0.9897 -0.0455 -0.0139
16123TIP3    H269785   6.075   1.899  16.865 -0.0623 -0.3610 -0.5598
16124TIP3   OH269786   2.425   6.326  11.089 -0.0456  0.3517  0.0824
16124TIP3    H169787   2.466   6.282  11.014  1.5165  0.4775  0.8056
16124TIP3    H269788   2.413   6.416  11.060 -2.0449 -0.1898 -0.9494
16125TIP3   OH269789   5.218   4.304   3.721 -0.4588  0.2533  0.1454
16125TIP3    H169790   5.254   4.268   3.640  0.7003 -0.5030  0.9502
16125TIP3    H269791   5.126   4.277   3.721 -0.2404 -0.5303 -0.4897
16126TIP3   OH269792   6.233   2.454   5.438 -0.3923  0.5913 -0.2259
16126TIP3    H169793   6.164   2.485   5.498 -1.3875 -0.9524 -0.5115
16126TIP3    H269794   6.260   2.370   5.475 -0.2189  0.1567 -1.3279
16127TIP3   OH269795   5.451   1.337  13.001  0.1205 -0.6320  0.1100
16127TIP3    H169796   5.504   1.358  13.078 -1.4597  2.3728  0.5486
16127TIP3    H269797   5.464   1.412  12.942  2.9317 -3.7049 -3.7308
16128TIP3   OH269798   3.229   3.961   1.926 -0.3090  0.2515 -0.2810
16128TIP3    H169799   3.274   3.908   1.860  0.4431  0.7615 -0.1841
16128TIP3    H269800   3.291   3.966   1.999 -1.3628 -0.8368  0.7472
16129TIP3   OH269801   1.932   4.399   5.188  0.7970  0.3581 -0.4348
16129TIP3    H169802   1.841   4.418   5.164 -0.3179  0.2402  3.1269
16129TIP3    H269803   1.959   4.475   5.240  0.9868 -1.6480  2.5943
16130TIP3   OH269804   5.486   5.481  11.965 -0.6657 -0.2399  0.1094
16130TIP3    H169805   5.561   5.526  11.927 -1.8025  0.5295 -1.3027
16130TIP3    H269806   5.504   5.388  11.953 -0.6913 -0.0283 -1.7542
16131TIP3   OH269807   3.116   1.674   2.058 -0.5227  0.2585  0.6751
16131TIP3    H169808   3.185   1.673   1.992  0.1317  0.9405  1.3234
16131TIP3    H269809   3.077   1.761   2.051 -0.7164  0.1924  0.9101
16132TIP3   OH269810   2.259   2.229  16.673 -0.0063  0.1879  0.0616
16132TIP3    H169811   2.218   2.187  16.597 -2.2312  1.4436  0.4855
16132TIP3    H269812   2.189   2.280  16.714  1.0158 -0.5902  3.1158
16133TIP3   OH269813   5.736   3.837   3.224  0.0251 -0.1539  0.1589
16133TIP3    H169814   5.671   3.786   3.272 -1.1750  0.3477 -0.9008
16133TIP3    H269815   5.759   3.782   3.149 -1.0363  0.6966 -0.8126
16134TIP3   OH269816   4.581   0.322  11.775 -0.3530  0.0696  0.4338
16134TIP3    H169817   4.586   0.228  11.792  0.0585 -0.0043 -0.0553
16134TIP3    H269818   4.492   0.336  11.744 -0.1364 -0.3353 -0.4237
16135TIP3   OH269819   2.048   3.673   4.844  0.2667  0.2409 -0.0384
16135TIP3    H169820   2.008   3.751   4.804  0.2116  0.1522 -0.1554
16135TIP3    H269821   2.027   3.602   4.784  0.6176  0.1967 -0.1079
16136TIP3   OH269822   5.287   2.772   0.663  0.4606 -0.1614 -0.0361
16136TIP3    H169823   5.303   2.771   0.758  2.4688  0.3527 -0.3119
16136TIP3    H269824   5.333   2.694   0.631 -2.1699 -1.6835 -0.3926
16137TIP3   OH269825   1.713   3.356   3.516 -0.0880 -0.2355 -0.0408
16137TIP3    H169826   1.627   3.376   3.553 -0.2793  1.0145 -1.0595
16137TIP3    H269827   1.729   3.265   3.538 -1.0271 -0.0792  1.4179
16138TIP3   OH269828   5.075   0.126   5.183 -0.6328  0.7569  0.4190
16138TIP3    H169829   5.018   0.049   5.173 -1.4506  1.5910 -2.4868
16138TIP3    H269830   5.111   0.141   5.095  1.6757  2.1096  1.5031
16139TIP3   OH269831   5.866   3.246  11.292  0.8836 -0.1138 -0.2031
16139TIP3    H169832   5.819   3.323  11.262  2.7511  1.6602  1.1856
16139TIP3    H269833   5.952   3.252  11.251  1.7982 -0.2438  1.6019
16140TIP3   OH269834   0.622   0.009  14.958 -0.7042 -0.0413  0.1903
16140TIP3    H169835   0.592  -0.081  14.954 -0.9074  0.0230  0.2235
16140TIP3    H269836   0.596   0.039  15.046 -1.6929  0.4082 -0.2421
16141TIP3   OH269837   6.653   3.249  14.681  0.2362  0.6493  0.5417
16141TIP3    H169838   6.612   3.335  14.697 -1.8726 -0.2945  0.4612
16141TIP3    H269839   6.580   3.191  14.660  1.3628 -1.6302  2.4751
16142TIP3   OH269840   4.259   1.930   4.775  0.2859  0.2160 -0.0740
16142TIP3    H169841   4.234   1.841   4.748  1.5469 -1.0219  2.4155
16142TIP3    H269842   4.180   1.965   4.817 -0.0083 -0.0283 -0.4218
16143TIP3   OH269843   2.335   6.189  16.805 -0.0838 -0.1241 -0.6980
16143TIP3    H169844   2.372   6.177  16.717  2.6282 -0.5894  0.3970
16143TIP3    H269845   2.309   6.281  16.808 -0.1093 -0.0735 -1.9334
16144TIP3   OH269846   5.148   0.078  10.513  0.9600 -0.4511  0.3128
16144TIP3    H169847   5.218   0.051  10.573  2.1066 -2.6926 -1.8403
16144TIP3    H269848   5.142   0.006  10.450 -0.6709  1.4147 -1.8108
16145TIP3   OH269849   0.931   5.527   4.281  0.0715 -0.1175  0.1136
16145TIP3    H169850   0.960   5.452   4.229  1.7967  0.1401  0.6514
16145TIP3    H269851   0.845   5.502   4.314  0.0546 -1.3131 -0.7700
16146TIP3   OH269852   2.486   5.747   4.355 -0.0946  0.1136 -0.0665
16146TIP3    H169853   2.518   5.714   4.439  1.9037 -0.1471 -0.8682
16146TIP3    H269854   2.483   5.670   4.298 -0.1720  0.4957 -0.5876
16147TIP3   OH269855   0.611   6.686   2.539  0.5047  0.4210  0.0388
16147TIP3    H169856   0.630   6.605   2.587 -1.2645 -0.2065 -0.2483
16147TIP3    H269857   0.593   6.751   2.607  0.3607  0.1659  0.2413
16148TIP3   OH269858   3.703   4.794   4.488 -0.0161 -0.5437  0.4248
16148TIP3    H169859   3.684   4.722   4.429 -2.0010 -1.4184  2.0357
16148TIP3    H269860   3.618   4.833   4.507  0.7791  0.8263  1.3343
16149TIP3   OH269861   5.482   3.819   5.793 -0.0006  0.6376 -0.2471
16149TIP3    H169862   5.557   3.877   5.781  0.0020  0.2144 -2.8367
16149TIP3    H269863   5.504   3.740   5.742 -1.7721  0.1098 -0.2584
16150TIP3   OH269864   3.655   0.613  17.199  0.3835 -0.3235 -0.0111
16150TIP3    H169865   3.678   0.654  17.282  1.7648  0.2764 -0.6675
16150TIP3    H269866   3.593   0.544  17.223  0.6184 -0.0404  1.4926
16151TIP3   OH269867   3.002   0.300  11.554 -0.1932  0.8731  0.1177
16151TIP3    H169868   3.030   0.269  11.640  0.4785 -0.1977 -0.4639
16151TIP3    H269869   3.066   0.263  11.493 -1.7307  0.0121 -1.0474
16152TIP3   OH269870   6.648   1.009  15.059  0.5485 -0.2587 -0.2898
16152TIP3    H169871   6.714   1.055  15.112  2.3060 -1.6552 -1.1244
16152TIP3    H269872   6.700   0.948  15.006 -1.2672  0.0917 -2.5826
16153TIP3   OH269873   5.026   6.684   4.144  0.3329  0.1064 -0.4518
16153TIP3    H169874   5.029   6.736   4.064 -2.2606 -1.0967 -1.4151
16153TIP3    H269875   5.093   6.617   4.131 -0.3711 -0.3532 -1.8504
16154TIP3   OH269876   0.824   1.748   2.157 -0.4661  0.2824  0.3190
16154TIP3    H169877   0.797   1.791   2.076  1.6695  0.1937 -0.4996
16154TIP3    H269878   0.840   1.658   2.132 -0.0667  0.1838  0.9138
16155TIP3   OH269879   0.712   2.100  14.028 -0.0780 -0.3433  0.0566
16155TIP3    H169880   0.646   2.126  14.091 -1.0129 -0.7499 -0.7329
16155TIP3    H269881   0.796   2.116  14.072 -0.6726  1.0584  0.7309
16156TIP3   OH269882   1.680   2.229  13.334  0.0577 -0.2595  0.0398
16156TIP3    H169883   1.732   2.201  13.410 -0.7277 -1.4720  0.1605
16156TIP3    H269884   1.736   2.212  13.259  0.1623 -0.7339  0.2238
16157TIP3   OH269885   2.452   6.327   3.534 -0.2807  0.2653  0.1568
16157TIP3    H169886   2.401   6.314   3.454 -0.0202  3.2986 -0.6279
16157TIP3    H269887   2.397   6.383   3.589  0.9559  1.1406  0.5565
16158TIP3   OH269888   2.983   4.347  17.241 -0.0868  0.3629 -0.0226
16158TIP3    H169889   2.939   4.425  17.274 -0.1121 -0.0747  0.9985
16158TIP3    H269890   2.941   4.331  17.156 -0.8908  0.7804  0.2838
16159TIP3   OH269891   3.470   3.701  12.043  0.4314 -0.2468 -0.6446
16159TIP3    H169892   3.417   3.693  11.963 -1.2123  0.0018  0.3559
16159TIP3    H269893   3.544   3.642  12.029 -1.1789 -2.2518 -1.3366
16160TIP3   OH269894   3.611   4.087   1.112  0.0459 -0.2809  0.3291
16160TIP3    H169895   3.529   4.047   1.143 -0.3170 -0.6505 -0.9929
16160TIP3    H269896   3.680   4.031   1.147 -0.4261 -1.6920 -0.8704
16161TIP3   OH269897   0.644   1.144   0.570  0.6268 -0.6168 -0.4206
16161TIP3    H169898   0.656   1.235   0.541  2.1958  0.0251  1.9774
16161TIP3    H269899   0.549   1.129   0.565  0.2789  1.3428 -0.3581
16162TIP3   OH269900   2.239   1.744   3.756 -0.1002 -0.2950  0.5132
16162TIP3    H169901   2.326   1.763   3.721 -0.0421 -0.0409  0.7836
16162TIP3    H269902   2.179   1.767   3.685  0.0790 -1.0113  0.1225
16163TIP3   OH269903   0.884   6.314  11.155 -0.2460 -0.2918  0.1842
16163TIP3    H169904   0.809   6.362  11.121 -0.1199 -1.3384 -1.7169
16163TIP3    H269905   0.864   6.300  11.247 -1.4658  1.1232  0.1586
16164TIP3   OH269906   0.949   3.673   0.133  0.3367 -0.4652 -0.1211
16164TIP3    H169907   0.897   3.593   0.133 -0.2116 -0.3279 -4.2415
16164TIP3    H269908   1.024   3.653   0.188 -0.8620 -2.9944  0.7510
16165TIP3   OH269909   6.439   0.822   1.502 -0.1582 -0.0943 -0.1143
16165TIP3    H169910   6.478   0.897   1.457  0.3882 -0.3208 -0.0276
16165TIP3    H269911   6.493   0.810   1.580 -1.2497  0.4477  0.7378
16166TIP3   OH269912   4.298   0.119  11.150 -0.2594 -0.0369 -0.0562
16166TIP3    H169913   4.232   0.124  11.081 -0.7540 -1.0731  0.3208
16166TIP3    H269914   4.264   0.054  11.212  1.3953 -1.0466 -0.1544
16167TIP3   OH269915   0.249   0.020   5.500 -0.4262 -0.1490 -0.2176
16167TIP3    H169916   0.343   0.003   5.494 -0.5170 -1.0650  0.7413
16167TIP3    H269917   0.229   0.010   5.593 -1.4997 -0.0943 -0.4348
16168TIP3   OH269918   3.463   4.327  14.083  0.5541  0.4637 -0.5251
16168TIP3    H169919   3.477   4.239  14.047  0.5796 -0.0487  0.6964
16168TIP3    H269920   3.525   4.383  14.035  2.7214 -0.7149  0.7191
16169TIP3   OH269921   0.208   2.330   1.426 -0.2244  0.2632  0.5588
16169TIP3    H169922   0.269   2.296   1.492 -1.5670 -2.9410  0.3163
16169TIP3    H269923   0.264   2.362   1.356  1.2100 -0.8180  1.1637
16170TIP3   OH269924   6.181   4.041  12.401 -0.2185 -0.3282  0.0002
16170TIP3    H169925   6.209   4.059  12.491  0.4892 -1.0212 -0.0657
16170TIP3    H269926   6.145   3.953  12.404  1.5088 -1.1200 -0.7108
16171TIP3   OH269927   3.228   4.069  14.291  0.0484 -0.2141  0.9101
16171TIP3    H169928   3.260   4.042  14.206  2.2326  1.4398  1.1344
16171TIP3    H269929   3.186   4.154  14.275 -2.3651 -1.2931  1.0267
16172TIP3   OH269930   2.482   4.542   3.133  0.1673  0.6661 -0.5636
16172TIP3    H169931   2.455   4.634   3.129  0.0242  0.5931 -1.4952
16172TIP3    H269932   2.486   4.514   3.042  0.7740 -0.0952 -0.3186
16173TIP3   OH269933   5.540   1.184  14.348 -0.4232 -0.5488  0.1891
16173TIP3    H169934   5.497   1.230  14.421 -0.1870  0.7147 -0.4319
16173TIP3    H269935   5.523   1.240  14.272  0.8078 -0.9574 -0.4063
16174TIP3   OH269936   0.669   1.130   1.806  0.5206 -0.3842  0.3888
16174TIP3    H169937   0.715   1.212   1.787  0.3343 -0.0536  1.3003
16174TIP3    H269938   0.622   1.147   1.888 -1.0342 -0.8019 -0.3755
16175TIP3   OH269939   6.417   4.548  15.965 -0.1187  0.0437  0.1590
16175TIP3    H169940   6.480   4.555  15.893 -0.1961 -0.1423  0.0728
16175TIP3    H269941   6.470   4.556  16.044  0.0790 -0.5826  0.0933
16176TIP3   OH269942   6.743   0.712  13.748 -0.0155  0.1689  0.4219
16176TIP3    H169943   6.672   0.737  13.689 -0.5101 -1.0853  0.4623
16176TIP3    H269944   6.708   0.727  13.836  0.2811  0.8648  0.4297
16177TIP3   OH269945   5.251   3.603  15.594 -0.3744  0.3161 -0.1563
16177TIP3    H169946   5.253   3.641  15.506 -0.0180 -0.0246 -0.2936
16177TIP3    H269947   5.247   3.509  15.580 -0.2378  0.2553  0.1955
16178TIP3   OH269948   6.191   3.285   4.446  0.7048  0.3272  0.2805
16178TIP3    H169949   6.125   3.254   4.508 -1.0391  1.9047 -0.6840
16178TIP3    H269950   6.273   3.282   4.496 -0.2598 -0.5735  1.9161
16179TIP3   OH269951   3.275   3.850  14.692 -0.4133 -0.1274  0.6797
16179TIP3    H169952   3.301   3.855  14.600 -1.5964  0.0703  0.3308
16179TIP3    H269953   3.338   3.905  14.739 -0.0834  0.1561 -0.0895
16180TIP3   OH269954   4.432   3.254  14.463  0.4850 -0.0288  0.3085
16180TIP3    H169955   4.337   3.262  14.471  0.3968 -0.2127 -0.4357
16180TIP3    H269956   4.451   3.163  14.484  0.2852 -0.4422 -1.1822
16181TIP3   OH269957   5.675   3.972   1.532  0.2531 -0.5196 -0.4626
16181TIP3    H169958   5.690   3.878   1.520  0.1732 -0.6074  0.1085
16181TIP3    H269959   5.753   4.013   1.495 -1.2855 -0.5885 -4.1959
16182TIP3   OH269960   3.877   1.542  11.721  0.4802 -0.0679  0.1664
16182TIP3    H169961   3.922   1.606  11.776 -0.8259  0.3591  0.7936
16182TIP3    H269962   3.947   1.487  11.685  1.6178  1.6034 -0.2731
16183TIP3   OH269963   0.754   6.200  12.777  0.3094 -0.0829 -0.2548
16183TIP3    H169964   0.788   6.111  12.786 -0.2351 -0.1244  1.8579
16183TIP3    H269965   0.823   6.256  12.813 -0.1214  0.1720  0.1942
16184TIP3   OH269966   0.248   0.719   1.455  0.8551  0.7705  0.2858
16184TIP3    H169967   0.297   0.698   1.535 -0.4441  1.6078  1.3545
16184TIP3    H269968   0.160   0.741   1.486  0.1868  0.6928 -1.4318
16185TIP3   OH269969   2.558   6.584   5.559  0.0195  0.0641  0.1259
16185TIP3    H169970   2.591   6.638   5.632  0.2861  0.1440 -0.0513
16185TIP3    H269971   2.634   6.571   5.503 -0.6072  1.6648 -1.1679
16186TIP3   OH269972   2.256   5.937   5.160  0.0156 -0.1081 -0.5221
16186TIP3    H169973   2.304   5.973   5.085 -2.6501  0.0334 -2.2997
16186TIP3    H269974   2.317   5.943   5.233  1.9186  2.0305 -2.1501
16187TIP3   OH269975   2.014   4.215   3.399  0.3066  0.3025  0.6666
16187TIP3    H169976   2.056   4.155   3.337 -2.4122 -0.7155 -0.3312
16187TIP3    H269977   2.055   4.194   3.483  3.4539  1.0873 -0.5031
16188TIP3   OH269978   3.171   0.163  16.976  0.5438  0.4078  0.0116
16188TIP3    H169979   3.110   0.234  16.954 -1.0014 -0.4762  1.2564
16188TIP3    H269980   3.242   0.206  17.025 -1.1721  0.9326  2.1816
16189TIP3   OH269981   2.646   6.476   1.863  0.3655 -0.4041 -0.0191
16189TIP3    H169982   2.704   6.514   1.930 -0.0331 -0.8807  0.6051
16189TIP3    H269983   2.661   6.382   1.869 -0.1903 -0.5015 -0.1221
16190TIP3   OH269984   5.659   4.474  11.614  0.0700 -0.0883  0.0557
16190TIP3    H169985   5.613   4.544  11.660 -0.0239 -0.3438  0.3551
16190TIP3    H269986   5.714   4.519  11.550  1.5042  0.3739  1.5607
16191TIP3   OH269987   4.889   4.735  11.403 -0.4981  0.0532 -0.2097
16191TIP3    H169988   4.882   4.655  11.350 -0.0058  1.3500 -2.3796
16191TIP3    H269989   4.803   4.775  11.396 -0.9420 -0.5365  1.4011
16192TIP3   OH269990   4.661   3.996  12.935  0.2426 -0.2445  0.2367
16192TIP3    H169991   4.675   4.012  12.841  1.0186 -0.1418  0.3666
16192TIP3    H269992   4.730   4.045  12.978  1.0584 -1.8110  0.7708
16193TIP3   OH269993   0.795   4.635   1.565 -0.1410 -0.1340 -0.6391
16193TIP3    H169994   0.774   4.606   1.653 -0.7923  0.4657 -0.5813
16193TIP3    H269995   0.878   4.593   1.544  0.4980  0.4581  0.6163
16194TIP3   OH269996   1.555   2.136  13.639 -0.3346 -0.3496  0.8725
16194TIP3    H169997   1.549   2.041  13.634  0.6532 -0.4003  0.4954
16194TIP3    H269998   1.638   2.158  13.598 -2.2546  0.9643 -2.8431
16195TIP3   OH269999   5.413   5.524  16.529 -0.0393 -0.4327  0.1223
16195TIP3    H170000   5.336   5.496  16.480 -0.6140 -0.8422  1.2429
16195TIP3    H270001   5.397   5.617  16.548  1.0107  0.2402 -1.9687
16196TIP3   OH270002   0.181   1.417  15.994  0.0203 -0.7435  0.0838
16196TIP3    H170003   0.161   1.323  15.994 -1.8366 -0.3725  0.2836
16196TIP3    H270004   0.277   1.420  15.988  0.0517 -2.6224 -1.8431
16197TIP3   OH270005   0.428   1.508  16.760  0.0006 -0.4923  0.3863
16197TIP3    H170006   0.454   1.452  16.833  1.4940 -0.8220 -0.3421
16197TIP3    H270007   0.485   1.481  16.688 -0.0550  1.1571 -0.3326
16198TIP3   OH270008   0.529   2.693   6.477  0.2532  0.0224  0.0135
16198TIP3    H170009   0.489   2.647   6.403  0.1406  0.1535 -0.0084
16198TIP3    H270010   0.467   2.763   6.497  0.6235  0.4208 -0.2232
16199TIP3   OH270011   0.680   6.310   6.679 -0.0340 -0.0343 -0.0198
16199TIP3    H170012   0.759   6.364   6.681  0.8040 -1.2202  1.9895
16199TIP3    H270013   0.613   6.363   6.721  0.2901  0.1634  0.2499
16200TIP3   OH270014   4.183   2.476   0.831  0.0077  0.4738  0.0534
16200TIP3    H170015   4.127   2.469   0.908  1.4733  1.8792  1.3186
16200TIP3    H270016   4.210   2.568   0.829  1.8432 -0.0338 -0.8037
16201TIP3   OH270017   2.968   4.282  16.698  0.0536  0.0116 -0.5070
16201TIP3    H170018   2.995   4.205  16.649  1.0932 -0.0667  0.1628
16201TIP3    H270019   2.912   4.331  16.638 -0.0222 -0.8956 -1.1905
16202TIP3   OH270020   4.516   3.198   4.079  0.3275  0.0123 -0.3983
16202TIP3    H170021   4.447   3.149   4.034 -0.7247 -0.2976  1.4257
16202TIP3    H270022   4.575   3.131   4.113  1.1994  0.2508 -1.3738
16203TIP3   OH270023   4.248   1.843   1.625 -0.3132  0.0304  0.2914
16203TIP3    H170024   4.210   1.776   1.569  0.6479 -0.7864  0.5877
16203TIP3    H270025   4.282   1.909   1.565  1.7908 -1.4070 -0.2074
16204TIP3   OH270026   5.571   2.714  17.134  0.1632  0.7806 -0.1327
16204TIP3    H170027   5.550   2.627  17.101 -0.4830  0.3592  1.2764
16204TIP3    H270028   5.601   2.698  17.224  0.8151  1.9467 -0.1256
16205TIP3   OH270029   5.737   0.947  16.717 -0.2631 -0.2601  0.3508
16205TIP3    H170030   5.809   1.010  16.722  0.1010 -0.5064 -1.3966
16205TIP3    H270031   5.780   0.862  16.705 -0.7992 -0.7238  1.4799
16206TIP3   OH270032   1.574   2.004   3.852 -0.2894  0.4560  0.4438
16206TIP3    H170033   1.665   1.981   3.870 -0.5371 -0.1200  1.0040
16206TIP3    H270034   1.529   1.994   3.936 -1.1870 -0.8947 -0.1522
16207TIP3   OH270035   1.178   5.818  14.309 -0.4614  0.7440 -0.1669
16207TIP3    H170036   1.158   5.906  14.276 -1.6613  0.0970 -1.2601
16207TIP3    H270037   1.243   5.784  14.247  1.6462  1.5973  1.4648
16208TIP3   OH270038   3.705   6.080   3.858 -0.4549  0.4138  0.4726
16208TIP3    H170039   3.783   6.030   3.879 -1.9992 -2.7964 -0.7710
16208TIP3    H270040   3.737   6.165   3.829  2.4443 -0.3134  1.3042
16209TIP3   OH270041   2.264   4.235   5.105 -0.0524 -0.0338 -0.0720
16209TIP3    H170042   2.255   4.330   5.105  0.5386  0.0666 -1.9992
16209TIP3    H270043   2.184   4.203   5.064  0.0701 -0.3025 -0.1043
16210TIP3   OH270044   6.019   4.689  15.385 -0.2956  0.3832  0.6149
16210TIP3    H170045   6.013   4.722  15.475 -0.8600  0.7889  0.4358
16210TIP3    H270046   5.946   4.730  15.340  0.2171  0.4914 -0.1346
16211TIP3   OH270047   2.519   6.180  14.663 -1.1177  0.0363 -0.1314
16211TIP3    H170048   2.456   6.174  14.735 -2.5315 -1.6246 -1.4378
16211TIP3    H270049   2.476   6.235  14.598 -0.0697  1.0734 -0.0012
16212TIP3   OH270050   6.282   1.936  13.704 -0.5622 -0.4088  0.3711
16212TIP3    H170051   6.360   1.889  13.674 -1.4599 -1.1283 -0.9395
16212TIP3    H270052   6.265   1.900  13.791  0.7039 -0.0430  0.7948
16213TIP3   OH270053   1.833   0.296   2.393  0.4551  0.2883  0.1868
16213TIP3    H170054   1.756   0.267   2.441  0.9519 -0.7127  0.4031
16213TIP3    H270055   1.907   0.256   2.440  1.2774  2.7700  1.1800
16214TIP3   OH270056   6.172   5.670   1.689  0.2656  0.5952  0.2044
16214TIP3    H170057   6.187   5.579   1.716  0.1569  0.4534 -0.2058
16214TIP3    H270058   6.259   5.710   1.691  0.0387  1.1456  2.6965
16215TIP3   OH270059   0.543   5.814   3.152  0.4367  0.1141 -0.1136
16215TIP3    H170060   0.523   5.756   3.225  1.1354  2.0307  1.7103
16215TIP3    H270061   0.625   5.857   3.178  0.9676  0.5274 -2.2709
16216TIP3   OH270062   2.706   4.526  13.990  0.2380  0.0896  0.0027
16216TIP3    H170063   2.798   4.510  14.011  0.5845 -2.0344 -2.5495
16216TIP3    H270064   2.666   4.439  13.989 -1.3032  0.7678 -0.9495
16217TIP3   OH270065   4.907   2.432   1.522  0.3540  0.1588 -0.1989
16217TIP3    H170066   4.871   2.518   1.546  0.7596  0.3234 -0.1737
16217TIP3    H270067   4.922   2.438   1.428 -0.3562 -0.1624 -0.3398
16218TIP3   OH270068   1.083   2.549  15.115  0.7456  0.3064  0.0311
16218TIP3    H170069   1.041   2.590  15.040  0.2979 -0.6532 -0.2628
16218TIP3    H270070   1.044   2.591  15.191 -1.5188 -1.2164 -0.2087
16219TIP3   OH270071   2.337   5.390  17.220  0.8314 -0.5731  0.2982
16219TIP3    H170072   2.351   5.482  17.198  3.2795 -0.5092  1.7498
16219TIP3    H270073   2.392   5.341  17.159  0.1285 -1.0238  0.0192
16220TIP3   OH270074   0.303   0.252   5.751  0.2438 -0.2890 -0.2595
16220TIP3    H170075   0.394   0.224   5.742 -0.0331 -2.0068  1.5280
16220TIP3    H270076   0.257   0.174   5.782 -1.8988  0.4805 -1.3070
16221TIP3   OH270077   3.932   3.483   1.529 -0.0299 -0.3870  0.6561
16221TIP3    H170078   3.864   3.425   1.564  0.7342 -0.5001  2.0283
16221TIP3    H270079   3.994   3.424   1.486 -0.7326 -0.2929 -0.5102
16222TIP3   OH270080   2.866   4.831  15.254 -0.0910  0.3662  0.4469
16222TIP3    H170081   2.938   4.768  15.243 -0.5684 -0.2806  0.9290
16222TIP3    H270082   2.899   4.894  15.317  0.5263  0.8137 -0.3093
16223TIP3   OH270083   4.578   1.927   1.780 -0.0557 -0.2147  0.2601
16223TIP3    H170084   4.652   1.911   1.839 -0.0440  0.9654  0.5786
16223TIP3    H270085   4.618   1.945   1.695  0.1285  1.7960  0.7269
16224TIP3   OH270086   6.412   5.480  10.761  0.4884 -0.1747  0.2545
16224TIP3    H170087   6.389   5.446  10.848  1.3912 -0.4800  0.3822
16224TIP3    H270088   6.359   5.427  10.700  1.2489 -1.2486  0.5090
16225TIP3   OH270089   3.730   0.832  12.765 -0.3561 -0.4865  0.1414
16225TIP3    H170090   3.699   0.781  12.840 -2.2170  1.2712  0.6771
16225TIP3    H270091   3.755   0.917  12.803  1.9898 -0.6903 -0.8065
16226TIP3   OH270092   4.360   1.785  16.678  0.8549  0.2227 -0.0237
16226TIP3    H170093   4.275   1.772  16.637  1.3003  0.7926 -1.1734
16226TIP3    H270094   4.357   1.874  16.713  1.7455  1.1506 -2.1146
16227TIP3   OH270095   4.569   2.107   2.599  0.4493  0.1584  0.6576
16227TIP3    H170096   4.511   2.031   2.610 -0.3575  0.6666  0.0324
16227TIP3    H270097   4.541   2.168   2.667  0.1347  0.4700  0.2516
16228TIP3   OH270098   4.708   2.114   5.166  0.4293 -0.1065 -0.3337
16228TIP3    H170099   4.799   2.143   5.160  0.0517  0.9325 -1.5405
16228TIP3    H270100   4.698   2.052   5.093  0.0213  0.2543 -0.5920
16229TIP3   OH270101   3.839   6.007   2.280 -0.1642 -0.3539 -0.1680
16229TIP3    H170102   3.799   5.974   2.361 -0.0169 -0.7127 -0.2401
16229TIP3    H270103   3.866   6.096   2.301  0.4566 -0.6650  0.3802
16230TIP3   OH270104   6.527   4.782   0.548 -0.2280  0.0014 -0.3942
16230TIP3    H170105   6.471   4.704   0.551  0.7390 -0.6937  0.0978
16230TIP3    H270106   6.483   4.845   0.605  0.8292 -1.4792  2.2037
16231TIP3   OH270107   6.504   2.952   5.624 -0.0410  0.0804  0.3495
16231TIP3    H170108   6.487   2.958   5.718 -0.3558 -0.1782  0.3129
16231TIP3    H270109   6.599   2.959   5.616 -0.0327  0.3654  0.6644
16232TIP3   OH270110   0.844   0.415   0.601  0.0730 -0.4163  0.3464
16232TIP3    H170111   0.867   0.365   0.522 -1.0768  0.5449 -0.6390
16232TIP3    H270112   0.764   0.374   0.633 -0.8914  0.7306 -0.4812
16233TIP3   OH270113   4.775   6.295   3.494  0.4445  0.3573 -0.1812
16233TIP3    H170114   4.844   6.233   3.469 -0.7991 -0.6090 -1.3600
16233TIP3    H270115   4.769   6.287   3.589  0.6529 -0.9851 -0.2583
16234TIP3   OH270116   1.139   0.106  13.007 -0.2376 -0.1744 -0.4344
16234TIP3    H170117   1.166   0.043  13.073 -1.8575  0.7513  1.2137
16234TIP3    H270118   1.098   0.054  12.939  0.1519 -1.0455 -0.0126
16235TIP3   OH270119   0.646   1.869   0.500 -0.0380  0.1994  0.0490
16235TIP3    H170120   0.665   1.875   0.594  3.1609 -0.8056 -0.4052
16235TIP3    H270121   0.660   1.777   0.478 -2.9395 -0.0633 -1.1088
16236TIP3   OH270122   2.063   1.930  15.701  0.6148  0.7342 -0.5110
16236TIP3    H170123   1.968   1.929  15.685  0.5451 -0.1845 -0.0801
16236TIP3    H270124   2.099   1.878  15.629  0.5443 -1.0996  0.7150
16237TIP3   OH270125   6.693   4.110   0.283  0.1034 -0.1449  0.0434
16237TIP3    H170126   6.702   4.139   0.192  1.2697  1.2984  0.5886
16237TIP3    H270127   6.608   4.145   0.311  0.2100  0.2776 -0.1704
16238TIP3   OH270128   2.302   2.287   5.865  0.0952 -0.4924  0.2358
16238TIP3    H170129   2.250   2.225   5.814 -0.8203  1.1507 -0.9195
16238TIP3    H270130   2.267   2.280   5.954 -1.0808 -0.5043 -0.2091
16239TIP3   OH270131   4.416   6.497   6.011  0.7240  0.2134  0.0006
16239TIP3    H170132   4.351   6.559   5.979  1.0470  0.1092 -0.8785
16239TIP3    H270133   4.423   6.516   6.105 -1.7383 -0.8532  0.4683
16240TIP3   OH270134   6.667   3.359   1.266  0.1616 -0.4031  0.4819
16240TIP3    H170135   6.723   3.380   1.191  0.4619 -0.8578  0.5679
16240TIP3    H270136   6.729   3.348   1.339 -0.1045 -0.2208  0.7390
16241TIP3   OH270137   1.056   0.448  12.046 -0.0562 -0.1205  0.8787
16241TIP3    H170138   1.023   0.537  12.055  1.3466  0.4612  0.5811
16241TIP3    H270139   0.979   0.395  12.028 -0.8814  1.0734  0.7911
16242TIP3   OH270140   1.338   6.457   5.745  0.1986 -0.3784  0.1459
16242TIP3    H170141   1.287   6.377   5.738  1.2075 -0.9591 -0.8664
16242TIP3    H270142   1.417   6.432   5.793  0.8960 -0.2023 -0.8800
16243TIP3   OH270143   1.901   2.858   4.781  0.1764  0.5972 -0.4417
16243TIP3    H170144   1.962   2.913   4.732 -0.1079  0.8495 -0.5140
16243TIP3    H270145   1.900   2.775   4.734  0.9749  0.3605 -0.0573
16244TIP3   OH270146   4.223   6.071   4.340  0.2672 -0.0640  0.8025
16244TIP3    H170147   4.250   6.008   4.273  0.8514  0.2719  0.7134
16244TIP3    H270148   4.200   6.150   4.292 -0.6093 -0.2493  0.9054
16245TIP3   OH270149   2.970   6.603  15.611  0.0907 -0.1983  0.5025
16245TIP3    H170150   2.876   6.606  15.590  0.3034  0.1512 -0.4694
16245TIP3    H270151   2.984   6.516  15.648 -0.3192 -0.9116 -0.9425
16246TIP3   OH270152   3.417   4.152  17.011 -0.1216  0.1979  0.2473
16246TIP3    H170153   3.437   4.062  16.984  0.1156  0.6616 -1.1653
16246TIP3    H270154   3.424   4.150  17.107  2.5214 -0.6609  0.1005
16247TIP3   OH270155   5.271   2.880   0.925  0.1686 -0.1330 -0.1334
16247TIP3    H170156   5.229   2.952   0.877 -0.8765 -0.2024  0.6638
16247TIP3    H270157   5.238   2.888   1.014  0.8872 -0.9566  0.2150
16248TIP3   OH270158   1.580   1.283   2.680  0.2394 -0.2826 -0.2174
16248TIP3    H170159   1.608   1.256   2.592  0.1329  0.6136 -0.5310
16248TIP3    H270160   1.617   1.216   2.738 -0.1150 -1.1747 -0.9849
16249TIP3   OH270161   1.913   2.327  11.871  0.2164 -0.5142 -0.1116
16249TIP3    H170162   1.992   2.275  11.882 -0.4290 -1.5476 -0.2290
16249TIP3    H270163   1.893   2.322  11.778  0.8946  1.1039 -0.3827
16250TIP3   OH270164   6.644   0.826  15.641  0.0468  0.0335  0.2377
16250TIP3    H170165   6.587   0.854  15.712 -0.4439  1.5350 -0.6958
16250TIP3    H270166   6.607   0.742  15.612  0.4689 -0.7784  1.9432
16251TIP3   OH270167   2.576   4.354  11.460  0.6560  0.0464 -0.6008
16251TIP3    H170168   2.650   4.307  11.500 -0.1294 -0.1839  0.6263
16251TIP3    H270169   2.590   4.445  11.485  0.9911  0.1431 -1.1216
16252TIP3   OH270170   5.132   4.854  14.739  0.2251  0.1388  0.1129
16252TIP3    H170171   5.073   4.928  14.725  0.8164  0.8151  1.0479
16252TIP3    H270172   5.080   4.789  14.785 -0.4690 -0.2933 -1.2356
16253TIP3   OH270173   3.978   3.147   0.937 -0.7914  0.1865 -0.0963
16253TIP3    H170174   3.979   3.053   0.921 -0.2109  0.0390  0.7582
16253TIP3    H270175   4.069   3.170   0.954 -1.0013  0.8090  0.2370
16254TIP3   OH270176   4.177   4.517   4.533 -0.5166 -0.2245 -0.3115
16254TIP3    H170177   4.133   4.601   4.547  0.4247  0.1100  0.9006
16254TIP3    H270178   4.159   4.494   4.442 -0.5739  1.4316 -0.7436
16255TIP3   OH270179   6.663   3.199   2.310  0.7471  0.7661  0.5862
16255TIP3    H170180   6.687   3.274   2.257  1.7337  1.3273  1.7787
16255TIP3    H270181   6.567   3.197   2.306  0.7874  0.5023 -1.5391
16256TIP3   OH270182   0.416   4.393  15.062 -0.0573  0.0405 -0.1457
16256TIP3    H170183   0.459   4.308  15.060  0.5624  0.3685 -1.2644
16256TIP3    H270184   0.483   4.455  15.035 -0.1098  1.0937  1.9223
16257TIP3   OH270185   4.190   5.630   2.135  0.2408  0.0777 -0.0290
16257TIP3    H170186   4.209   5.592   2.221 -0.2809  1.2565  0.6363
16257TIP3    H270187   4.108   5.678   2.147  1.0431  1.7130 -0.6968
16258TIP3   OH270188   6.122   4.423   2.937  0.3503  0.0473 -0.1688
16258TIP3    H170189   6.142   4.403   3.028  0.0621 -1.9918 -0.4921
16258TIP3    H270190   6.118   4.518   2.933 -0.4999  0.1660  2.1220
16259TIP3   OH270191   1.899   6.537   3.538 -0.1302  0.1228 -0.1765
16259TIP3    H170192   1.838   6.479   3.582  1.8741 -0.2470  2.3336
16259TIP3    H270193   1.908   6.499   3.450 -0.7922 -1.8774  0.5543
16260TIP3   OH270194   3.781   2.095   2.919  0.4152  0.1315 -0.8767
16260TIP3    H170195   3.834   2.167   2.884 -0.1036  0.5721 -0.7639
16260TIP3    H270196   3.699   2.136   2.945  1.2021  0.1316  2.0743
16261TIP3   OH270197   0.294   0.221   1.867  0.0436 -1.0732 -0.3243
16261TIP3    H170198   0.331   0.161   1.930  1.7869  0.8588  0.6142
16261TIP3    H270199   0.369   0.272   1.834 -1.3228  0.7053 -0.8940
16262TIP3   OH270200   1.230   5.841   3.906 -0.0875  0.0248  0.2341
16262TIP3    H170201   1.294   5.899   3.864  1.0264 -1.3779 -0.0721
16262TIP3    H270202   1.158   5.899   3.930  0.5576  1.3753 -0.9295
16263TIP3   OH270203   3.394   3.066  15.129 -0.0384  0.1987 -0.3801
16263TIP3    H170204   3.427   3.155  15.127  1.4669 -0.2138  2.0439
16263TIP3    H270205   3.324   3.067  15.194 -0.4652 -0.2843 -0.8111
16264TIP3   OH270206   3.087   2.905  11.093  0.1868 -0.5706 -0.3490
16264TIP3    H170207   3.147   2.856  11.149  0.4115 -2.9890 -2.5271
16264TIP3    H270208   3.117   2.996  11.100 -0.6403 -0.3947  4.3528
16265TIP3   OH270209   0.427   6.087  12.675 -0.1352  0.1412 -0.3710
16265TIP3    H170210   0.415   6.123  12.763  0.4097 -1.2446  0.3113
16265TIP3    H270211   0.503   6.029  12.683 -0.4052 -0.4261 -1.6188
16266TIP3   OH270212   3.979   3.552  10.991 -0.6826 -0.8657 -0.1213
16266TIP3    H170213   4.040   3.593  11.053 -0.3714 -1.3699 -0.0835
16266TIP3    H270214   3.893   3.568  11.029 -0.4841 -1.3598  0.5736
16267TIP3   OH270215   0.324   1.186   1.068 -0.3243 -0.0570  0.4704
16267TIP3    H170216   0.246   1.213   1.020  0.3625  1.5786  0.2094
16267TIP3    H270217   0.366   1.121   1.011  0.6546  2.0925 -1.3925
16268TIP3   OH270218   5.581   0.564  13.525  0.3332  0.6118 -0.1176
16268TIP3    H170219   5.552   0.500  13.460  1.2589 -0.5838  0.6171
16268TIP3    H270220   5.501   0.609  13.552 -0.3961 -0.5164 -0.3472
16269TIP3   OH270221   1.599   1.091   6.078 -0.2800 -0.3617 -0.1184
16269TIP3    H170222   1.524   1.147   6.097 -1.1170 -1.5791  0.2814
16269TIP3    H270223   1.610   1.037   6.156  0.6148 -0.6574 -0.4296
16270TIP3   OH270224   5.574   4.952   2.785  0.5165 -0.6389 -0.0794
16270TIP3    H170225   5.491   4.923   2.823 -0.1909 -0.0108 -1.1003
16270TIP3    H270226   5.612   4.873   2.747  0.0743 -0.8117 -0.1664
16271TIP3   OH270227   0.759   5.171   2.954 -0.1955 -0.5823 -0.1704
16271TIP3    H170228   0.749   5.144   3.045 -0.5921 -0.3648 -0.1471
16271TIP3    H270229   0.730   5.095   2.903  0.5644 -0.9092 -0.1214
16272TIP3   OH270230   0.158   0.860   0.367  0.0715 -0.3549 -0.3033
16272TIP3    H170231   0.101   0.894   0.297 -1.0389 -2.9374 -0.7935
16272TIP3    H270232   0.100   0.804   0.419  1.2662  0.2428  1.7354
16273TIP3   OH270233   1.886   4.783  13.915 -0.1839  0.1591  0.1006
16273TIP3    H170234   1.809   4.798  13.860  0.3631 -1.4148 -1.1738
16273TIP3    H270235   1.908   4.870  13.950 -1.4936  0.9220 -0.8803
16274TIP3   OH270236   1.975   5.162   1.556  0.5836 -0.2009 -0.2109
16274TIP3    H170237   1.933   5.152   1.642 -0.8652 -2.3957 -1.0902
16274TIP3    H270238   1.944   5.247   1.524  1.5480  0.8824  1.5904
16275TIP3   OH270239   1.620   2.779   5.267 -0.0564  0.0592 -0.0085
16275TIP3    H170240   1.693   2.820   5.314  0.0077  0.9263 -0.8442
16275TIP3    H270241   1.661   2.732   5.195 -0.3065  0.4448 -0.4075
16276TIP3   OH270242   1.172   3.967   3.261 -0.3015  0.1456  0.0309
16276TIP3    H170243   1.184   3.993   3.170 -1.3857 -0.6371 -0.3670
16276TIP3    H270244   1.091   3.915   3.261  0.8376 -1.7558  1.0392
16277TIP3   OH270245   4.567   3.279   2.608  0.9166 -0.3942  0.3781
16277TIP3    H170246   4.594   3.319   2.525  1.3982 -0.2276  0.6158
16277TIP3    H270247   4.541   3.190   2.584 -0.3381  0.0976 -0.1903
16278TIP3   OH270248   5.125   2.500   3.118 -0.0489 -0.4642  0.1826
16278TIP3    H170249   5.114   2.405   3.126 -0.1741 -0.4706 -0.0556
16278TIP3    H270250   5.082   2.522   3.036 -0.5776 -0.1079  0.5531
16279TIP3   OH270251   4.660   0.833  15.842  0.5709  0.0851 -0.1426
16279TIP3    H170252   4.739   0.803  15.887 -1.1610 -0.0121  3.1495
16279TIP3    H270253   4.680   0.923  15.817  2.3304 -0.5202 -1.1177
16280TIP3   OH270254   1.798   5.960   0.520 -0.0937 -0.5852 -0.4332
16280TIP3    H170255   1.797   6.027   0.588 -1.1825 -1.0120 -0.0146
16280TIP3    H270256   1.825   6.006   0.440  0.2552  0.1101  0.0806
16281TIP3   OH270257   2.434   3.645  16.115 -0.1291 -0.2762  0.0108
16281TIP3    H170258   2.525   3.617  16.126 -0.3232 -0.5022  1.1519
16281TIP3    H270259   2.398   3.645  16.204 -1.1360  0.1917 -0.3833
16282TIP3   OH270260   1.634   5.258  13.267 -0.4959 -0.2185  0.8513
16282TIP3    H170261   1.570   5.191  13.245  0.6914 -1.0999 -0.0456
16282TIP3    H270262   1.708   5.210  13.305  1.2205  0.2636 -1.6444
16283TIP3   OH270263   2.708   5.975  13.102 -0.0249 -0.5004  0.1895
16283TIP3    H170264   2.737   6.066  13.111 -1.4991 -0.0086  0.1674
16283TIP3    H270265   2.775   5.933  13.049  0.0158  0.9010 -0.9043
16284TIP3   OH270266   4.864   5.544   2.861 -0.3339 -0.5485 -0.0808
16284TIP3    H170267   4.913   5.606   2.916  0.1836 -0.4077 -0.6983
16284TIP3    H270268   4.775   5.580   2.858 -0.2859 -0.3758  0.3774
16285TIP3   OH270269   0.329   2.026  13.779  1.1164  0.1761 -0.1440
16285TIP3    H170270   0.240   2.046  13.808  1.3820  3.2755 -1.0502
16285TIP3    H270271   0.318   1.971  13.701 -0.0549  0.6641 -0.3362
16286TIP3   OH270272   5.505   2.217  16.472 -0.2060  0.4537 -0.0144
16286TIP3    H170273   5.576   2.261  16.425  1.0569  1.9619  3.0401
16286TIP3    H270274   5.463   2.287  16.523 -0.9816 -1.1716  1.6839
16287TIP3   OH270275   2.519   0.527  12.201 -0.2646  0.1429 -0.3170
16287TIP3    H170276   2.589   0.559  12.145  0.5450 -1.3331 -0.1997
16287TIP3    H270277   2.461   0.479  12.143 -0.8773  0.8567 -0.3120
16288TIP3   OH270278   5.987   0.851   2.521 -0.6098  0.3520 -0.8171
16288TIP3    H170279   5.953   0.863   2.432 -0.4235 -1.3718 -1.1568
16288TIP3    H270280   6.072   0.809   2.509  0.4126  2.0357  0.1364
16289TIP3   OH270281   4.845   3.256   0.546 -0.7074  0.1919 -0.0270
16289TIP3    H170282   4.809   3.345   0.553 -1.3443 -0.0890  0.3506
16289TIP3    H270283   4.882   3.238   0.632  0.7858  0.6467 -0.5391
16290TIP3   OH270284   2.121   6.074  13.314  0.1258  0.1148 -1.4042
16290TIP3    H170285   2.165   6.157  13.296 -0.9441  0.9110 -0.4998
16290TIP3    H270286   2.192   6.012  13.333  0.9058  1.8886  2.2557
16291TIP3   OH270287   6.228   1.033  15.158  0.1610  0.4664  0.4903
16291TIP3    H170288   6.235   1.121  15.194 -2.5965  0.5548  1.0570
16291TIP3    H270289   6.224   0.976  15.235  0.7442 -0.0410  0.1561
16292TIP3   OH270290   1.856   1.381  14.965 -0.0383 -0.2254  0.4395
16292TIP3    H170291   1.890   1.293  14.949  0.8657  0.1821  0.0300
16292TIP3    H270292   1.807   1.402  14.886 -0.2753 -0.3647  0.5476
16293TIP3   OH270293   2.383   0.610   0.534  0.1460  0.9099  0.0399
16293TIP3    H170294   2.358   0.578   0.621  1.1853 -1.9587 -0.6025
16293TIP3    H270295   2.308   0.662   0.505 -0.0745  2.2391  2.7519
16294TIP3   OH270296   0.099   0.509   6.055  0.0370 -0.1387  0.0243
16294TIP3    H170297   0.124   0.593   6.092 -1.0924  0.4095 -0.3996
16294TIP3    H270298   0.026   0.479   6.110  0.4149 -0.8321  0.1580
16295TIP3   OH270299   1.403   1.865   6.100 -0.4321  0.4436  0.0550
16295TIP3    H170300   1.471   1.807   6.065 -1.2704 -0.7777  0.4008
16295TIP3    H270301   1.451   1.925   6.157  0.4165 -0.1348 -0.0188
16296TIP3   OH270302   5.394   3.368  12.418  0.7896 -0.3971 -0.5825
16296TIP3    H170303   5.482   3.356  12.452  0.7111  2.2452  0.7947
16296TIP3    H270304   5.400   3.444  12.360 -0.3237 -1.1159 -1.7053
16297TIP3   OH270305   1.016   3.029  16.527 -0.1919 -0.3178 -0.4421
16297TIP3    H170306   0.962   3.098  16.565 -0.5949  0.4029 -2.2128
16297TIP3    H270307   0.986   3.022  16.436  2.5390 -0.0361 -1.4714
16298TIP3   OH270308   4.114   0.159   1.135  0.5349  0.1175 -0.6340
16298TIP3    H170309   4.077   0.196   1.055  0.0832  1.2881  0.0868
16298TIP3    H270310   4.110   0.231   1.199 -0.0501 -1.0762  0.7309
16299TIP3   OH270311   1.692   5.200  10.457  0.4692  0.6173  0.5132
16299TIP3    H170312   1.771   5.223  10.408 -0.7831  0.0294 -1.9393
16299TIP3    H270313   1.715   5.214  10.549  3.1513  1.1905 -0.1818
16300TIP3   OH270314   4.091   0.233  13.276 -0.7321  0.1487 -0.3077
16300TIP3    H170315   4.075   0.299  13.208  0.2473  1.4235  0.6539
16300TIP3    H270316   4.036   0.260  13.349  1.4314  1.3529  0.9719
16301TIP3   OH270317   5.065   0.664   6.108  0.3033  0.3439 -0.4823
16301TIP3    H170318   5.066   0.588   6.166 -0.3818 -0.7660 -1.8653
16301TIP3    H270319   5.155   0.671   6.077  0.2565 -0.2686 -0.7765
16302TIP3   OH270320   4.372   4.648   1.814  0.1177 -0.3164 -0.3407
16302TIP3    H170321   4.320   4.711   1.864 -3.1478 -1.4077 -2.0352
16302TIP3    H270322   4.400   4.584   1.879  0.3283  0.9177  0.8250
16303TIP3   OH270323   3.675   5.168  12.350  0.1974 -0.4929  0.8615
16303TIP3    H170324   3.668   5.120  12.433 -1.5521  0.2967  1.2101
16303TIP3    H270325   3.663   5.259  12.374 -2.3818 -0.4007 -0.4383
16304TIP3   OH270326   1.393   6.506   5.375 -0.1978 -0.3956  0.2422
16304TIP3    H170327   1.400   6.577   5.311  0.8812 -0.2002  0.5653
16304TIP3    H270328   1.444   6.535   5.450  0.9707 -1.8492  0.0587
16305TIP3   OH270329   4.995   3.629  16.305 -0.1385 -0.5815 -0.0221
16305TIP3    H170330   5.041   3.545  16.309 -1.1970 -1.1721  0.0160
16305TIP3    H270331   5.065   3.693  16.295  0.7048 -1.4451  0.1351
16306TIP3   OH270332   4.316   2.357   2.531  0.3137 -0.4155 -0.1414
16306TIP3    H170333   4.401   2.400   2.521  0.2849 -0.4920 -0.7287
16306TIP3    H270334   4.258   2.427   2.563  0.7934 -0.5726  1.1486
16307TIP3   OH270335   3.718   6.248   3.034 -0.0701 -0.1047 -0.4883
16307TIP3    H170336   3.681   6.180   3.091 -0.7829 -0.0142 -0.8327
16307TIP3    H270337   3.812   6.249   3.056 -0.2001 -0.6006  0.1315
16308TIP3   OH270338   4.148   4.390  14.355  0.0984 -0.1768  0.1613
16308TIP3    H170339   4.229   4.441  14.353 -0.3883  0.6015 -0.4219
16308TIP3    H270340   4.168   4.311  14.304  0.4904  0.0171  0.0105
16309TIP3   OH270341   4.696   2.592   6.153  0.3343 -0.0553  0.5449
16309TIP3    H170342   4.696   2.627   6.242 -2.0566 -1.4542  1.1973
16309TIP3    H270343   4.680   2.498   6.165  2.0003 -0.6264 -1.3062
16310TIP3   OH270344   3.826   0.625  11.855  0.1660 -0.3533 -0.8028
16310TIP3    H170345   3.807   0.717  11.840 -0.7585 -0.1994  1.0161
16310TIP3    H270346   3.870   0.623  11.941 -2.6721 -1.8025  0.7604
16311TIP3   OH270347   6.671   5.748  17.050  0.1106 -0.2010 -0.1851
16311TIP3    H170348   6.665   5.841  17.027 -2.0490 -0.3617 -0.4272
16311TIP3    H270349   6.647   5.744  17.143  0.7564 -0.4743 -0.0212
16312TIP3   OH270350   3.521   3.606  10.997 -0.0129  0.2639 -0.0326
16312TIP3    H170351   3.465   3.639  10.926  0.1198  2.7776  0.9478
16312TIP3    H270352   3.470   3.622  11.077  0.3359 -1.4605  0.5773
16313TIP3   OH270353   5.878   2.310   1.167  0.4926 -0.7036 -0.4065
16313TIP3    H170354   5.860   2.344   1.255  0.5996 -0.6830 -0.3915
16313TIP3    H270355   5.843   2.221   1.168  2.4222 -1.5189  0.3863
16314TIP3   OH270356   1.021   5.304   3.680  0.1031 -0.2654  0.0066
16314TIP3    H170357   0.949   5.361   3.655 -0.0770 -0.0510  0.9773
16314TIP3    H270358   1.064   5.350   3.752  0.9565 -0.5870 -0.2819
16315TIP3   OH270359   5.842   5.347   0.419  0.0997 -0.0213 -0.4672
16315TIP3    H170360   5.937   5.334   0.412  0.0475  0.0529 -1.5225
16315TIP3    H270361   5.806   5.299   0.345 -0.4501  2.2664 -1.8080
16316TIP3   OH270362   3.979   2.126  17.177 -0.5744  0.6854 -0.2705
16316TIP3    H170363   3.956   2.057  17.238 -1.5935 -0.1829 -1.5967
16316TIP3    H270364   4.074   2.134  17.184 -0.6162  0.2378  1.0026
16317TIP3   OH270365   2.312   4.669   1.702  0.3904  0.1352 -0.4164
16317TIP3    H170366   2.272   4.632   1.780  0.6953  1.8561  0.5833
16317TIP3    H270367   2.398   4.699   1.730  0.8621  0.0128 -1.6319
16318TIP3   OH270368   2.548   5.892  11.520 -0.4548 -0.3546  0.6172
16318TIP3    H170369   2.503   5.914  11.438  1.9484 -1.0332 -0.9614
16318TIP3    H270370   2.641   5.905  11.501  0.1209  1.6680  3.9394
16319TIP3   OH270371   4.631   4.534   5.658 -0.0075 -0.2006 -0.1037
16319TIP3    H170372   4.663   4.468   5.720  0.7672  0.9634  0.7906
16319TIP3    H270373   4.536   4.530   5.666 -0.0261 -1.9172 -0.8538
16320TIP3   OH270374   0.806   1.511   4.591  0.0483  0.1354 -0.1111
16320TIP3    H170375   0.748   1.551   4.655 -2.2042  0.1251 -2.0063
16320TIP3    H270376   0.894   1.533   4.621 -0.9726  2.9143  1.1840
16321TIP3   OH270377   6.630   3.916   0.602 -0.7418  0.7884 -0.2903
16321TIP3    H170378   6.719   3.911   0.636 -1.2722  1.3273  1.2369
16321TIP3    H270379   6.629   3.996   0.549 -0.8793  2.0541  1.5238
16322TIP3   OH270380   6.129   0.177  17.085 -0.2246  0.0728  0.2945
16322TIP3    H170381   6.121   0.090  17.123 -0.8024  0.6420  1.5035
16322TIP3    H270382   6.095   0.236  17.151 -1.8574  1.0533 -1.3228
16323TIP3   OH270383   5.182   0.826   3.951 -0.2118 -0.3146  0.2955
16323TIP3    H170384   5.254   0.884   3.975  0.1484  0.3211 -2.0645
16323TIP3    H270385   5.224   0.746   3.920 -0.3740  0.4002 -1.9775
16324TIP3   OH270386   0.140   6.050  12.997  0.3300 -0.2927 -0.2301
16324TIP3    H170387   0.108   6.132  13.035 -0.5673 -0.0056 -1.5462
16324TIP3    H270388   0.180   6.076  12.914 -0.0003 -1.1831 -0.6750
16325TIP3   OH270389   3.015   4.126   2.003 -0.0209  0.1103  0.3168
16325TIP3    H170390   3.023   4.142   2.097 -0.2578  2.1437  0.0324
16325TIP3    H270391   3.077   4.055   1.985 -0.1674 -0.4977  2.0278
16326TIP3   OH270392   3.022   1.630   3.932  0.1788 -0.9641  0.7123
16326TIP3    H170393   2.963   1.653   4.004  1.4245  0.5022  1.3134
16326TIP3    H270394   3.081   1.705   3.924 -1.1003 -0.1583 -3.1717
16327TIP3   OH270395   2.057   0.555   5.001 -1.1285  0.3330  0.1630
16327TIP3    H170396   2.071   0.522   4.912 -1.5305  0.0569  0.2033
16327TIP3    H270397   2.020   0.482   5.049  0.2792  0.0694  0.9111
16328TIP3   OH270398   4.507   0.208  11.464 -0.9061 -0.1957  0.0315
16328TIP3    H170399   4.586   0.176  11.508 -0.9470  1.9174  1.7908
16328TIP3    H270400   4.536   0.284  11.415 -1.4821 -0.6833 -1.1021
16329TIP3   OH270401   6.066   0.361  11.717 -0.3954  0.2163 -0.9283
16329TIP3    H170402   6.014   0.315  11.782  0.8601  0.6217  0.4245
16329TIP3    H270403   6.003   0.418  11.672 -1.1417  0.7012  0.6514
16330TIP3   OH270404   3.440   1.793  11.650  0.3025 -0.2007 -0.2076
16330TIP3    H170405   3.358   1.784  11.698 -0.0812  1.5227 -0.4651
16330TIP3    H270406   3.459   1.887  11.651  1.7556 -0.4422 -1.0121
16331TIP3   OH270407   5.720   3.888  16.156  0.3983 -0.2630 -0.7933
16331TIP3    H170408   5.701   3.925  16.069  1.2929 -0.3666 -1.0504
16331TIP3    H270409   5.799   3.835  16.142  0.9090  0.1987  0.2046
16332TIP3   OH270410   5.331   5.236   2.863  0.0037 -0.0402 -0.0938
16332TIP3    H170411   5.249   5.240   2.815  0.4425 -0.8677 -0.9571
16332TIP3    H270412   5.347   5.326   2.891 -0.7691  0.2835 -0.6495
16333TIP3   OH270413   4.395   5.048  11.456 -0.4291 -0.1677  0.2785
16333TIP3    H170414   4.384   5.096  11.539  0.0399  0.3767  0.0273
16333TIP3    H270415   4.445   5.107  11.400 -0.2877 -0.7497 -0.2172
16334TIP3   OH270416   3.488   3.243  15.385 -0.6429  0.1561  0.3582
16334TIP3    H170417   3.556   3.222  15.449 -0.5332  1.0817  0.5622
16334TIP3    H270418   3.514   3.196  15.305  0.5693  0.9907  0.2462
16335TIP3   OH270419   1.901   1.123  11.051  0.0691  0.2924 -0.4156
16335TIP3    H170420   1.985   1.080  11.033 -0.2060 -0.4215 -0.0640
16335TIP3    H270421   1.920   1.216  11.049  0.3944  0.2521 -2.7982
16336TIP3   OH270422   1.943   1.099  15.148 -0.0880  0.2011  0.1089
16336TIP3    H170423   1.883   1.050  15.203  1.4155  0.5555  2.1923
16336TIP3    H270424   2.013   1.127  15.207  1.1772  1.3929 -1.8156
16337TIP3   OH270425   6.502   2.063  15.976  0.4484 -0.4098 -0.6027
16337TIP3    H170426   6.462   2.011  15.906 -0.2319 -1.4059  0.4997
16337TIP3    H270427   6.554   2.000  16.026 -0.8869 -0.1771  1.1380
16338TIP3   OH270428   3.857   3.199  12.233 -0.2527  0.2249  0.2821
16338TIP3    H170429   3.886   3.115  12.270  0.5524  0.1129 -0.5683
16338TIP3    H270430   3.816   3.175  12.150  1.5149  0.7944 -0.8046
16339TIP3   OH270431   0.781   4.898  13.066 -0.3868 -0.5240  0.1066
16339TIP3    H170432   0.688   4.887  13.044 -0.5107 -1.1934  0.9174
16339TIP3    H270433   0.780   4.928  13.157  0.1880 -0.4170  0.0785
16340TIP3   OH270434   1.883   4.897   1.511  0.0241  0.0916 -0.0951
16340TIP3    H170435   1.948   4.863   1.451  0.9525 -1.6763  1.7723
16340TIP3    H270436   1.898   4.992   1.513  0.9509 -0.0121 -1.4614
16341TIP3   OH270437   2.723   3.245  11.665 -0.4824  1.0164  0.5057
16341TIP3    H170438   2.806   3.225  11.622  0.8032 -0.9103  3.5771
16341TIP3    H270439   2.663   3.178  11.633  0.6802 -0.9143  2.1374
16342TIP3   OH270440   3.363   0.622   3.734 -0.0044  0.1463 -0.2037
16342TIP3    H170441   3.339   0.561   3.804  2.4062 -0.4127  0.2074
16342TIP3    H270442   3.421   0.571   3.677  0.7402  1.5919 -0.7737
16343TIP3   OH270443   1.766   2.396   5.310  0.5352  0.0683 -0.1376
16343TIP3    H170444   1.779   2.481   5.351  2.6993  0.3640 -1.2541
16343TIP3    H270445   1.697   2.410   5.245  1.5574  1.2781 -1.0161
16344TIP3   OH270446   4.207   2.400   2.825  0.2748 -0.0017  0.4255
16344TIP3    H170447   4.176   2.388   2.915  0.2216 -0.3404  0.3640
16344TIP3    H270448   4.162   2.479   2.795  1.7110  1.1928  1.3174
16345TIP3   OH270449   1.146   4.994   4.147 -0.3136  0.0190  0.2690
16345TIP3    H170450   1.092   5.053   4.200  0.3304  1.4847 -0.6367
16345TIP3    H270451   1.154   5.038   4.062  0.1687 -1.4053 -0.4610
16346TIP3   OH270452   6.437   1.878  16.962  0.1637  0.3175  0.3827
16346TIP3    H170453   6.424   1.791  17.001  0.6685  0.8885  1.9036
16346TIP3    H270454   6.350   1.906  16.935 -0.6922  0.9460  3.4883
16347TIP3   OH270455   4.171   4.257   3.625  0.2358  0.1490 -0.0847
16347TIP3    H170456   4.125   4.340   3.618  2.1122  1.1517 -1.1377
16347TIP3    H270457   4.137   4.218   3.706 -0.9533  1.7408  0.2308
16348TIP3   OH270458   0.763   1.700  15.806  0.3333  0.3871 -0.1284
16348TIP3    H170459   0.840   1.698  15.749 -0.2979 -0.6288 -0.9812
16348TIP3    H270460   0.743   1.793  15.816  1.0464  0.6191 -0.7550
16349TIP3   OH270461   3.809   0.365  14.131  0.1299 -0.2480 -0.0152
16349TIP3    H170462   3.815   0.287  14.077  1.2145 -1.1086  1.2672
16349TIP3    H270463   3.856   0.342  14.212 -0.0235  1.5251  0.6329
16350TIP3   OH270464   3.414   4.782  12.649 -0.0404  0.1401  0.5303
16350TIP3    H170465   3.334   4.762  12.602  0.4502 -1.2800  0.2447
16350TIP3    H270466   3.481   4.792  12.581  0.2751  0.0389  0.8191
16351TIP3   OH270467   5.518   0.256   2.322  0.1208 -0.4201 -0.2540
16351TIP3    H170468   5.586   0.309   2.363  0.2999 -2.2164  1.9418
16351TIP3    H270469   5.556   0.169   2.315 -0.5046 -0.5622 -2.9197
16352TIP3   OH270470   5.997   3.185   1.676  0.1031  0.6659 -0.2489
16352TIP3    H170471   5.929   3.249   1.654  0.7872  0.7448 -2.3709
16352TIP3    H270472   6.046   3.174   1.595  0.9996 -1.3793  0.5174
16353TIP3   OH270473   1.012   3.732  11.713  0.4695  0.2822  0.2444
16353TIP3    H170474   1.013   3.652  11.766  1.2376 -0.8958 -1.4660
16353TIP3    H270475   1.102   3.741  11.682 -0.1381  0.4150 -1.5608
16354TIP3   OH270476   3.505   1.127  13.256  0.3060 -0.0545  0.0366
16354TIP3    H170477   3.538   1.209  13.219 -0.3049 -0.2192 -0.9155
16354TIP3    H270478   3.571   1.062  13.233  0.2328 -0.0354 -0.2387
16355TIP3   OH270479   3.311   3.727   0.357  0.0802  0.3609 -0.2631
16355TIP3    H170480   3.267   3.678   0.426  0.1030 -1.0828 -1.2185
16355TIP3    H270481   3.366   3.790   0.403 -1.5117  0.9091  0.9732
16356TIP3   OH270482   3.337   6.070  15.820  0.3489  0.0905 -0.0320
16356TIP3    H170483   3.275   6.077  15.892  0.5315  0.0374  0.1316
16356TIP3    H270484   3.283   6.064  15.742  0.1376 -0.7084  0.1738
16357TIP3   OH270485   1.135   0.392  11.097 -0.1766 -0.0598  0.6345
16357TIP3    H170486   1.223   0.430  11.105 -0.1780  0.9298 -2.5616
16357TIP3    H270487   1.127   0.370  11.004 -2.8082 -1.4705  1.1046
16358TIP3   OH270488   1.705   0.199   5.904  0.1176 -0.7427 -0.3477
16358TIP3    H170489   1.728   0.118   5.951  0.5235  0.0211  0.8205
16358TIP3    H270490   1.745   0.269   5.956 -0.2124  0.2174 -1.3482
16359TIP3   OH270491   5.207   4.542   0.148 -0.0577 -0.5469 -0.2054
16359TIP3    H170492   5.165   4.545   0.234  1.2349 -1.5384  0.5106
16359TIP3    H270493   5.196   4.630   0.113 -0.5910 -0.1095  0.9913
16360TIP3   OH270494   1.456   3.718  14.386 -0.0421 -0.4321 -0.4043
16360TIP3    H170495   1.382   3.657  14.388 -0.1676 -0.2791  0.6711
16360TIP3    H270496   1.518   3.681  14.449 -0.9573  1.5301  1.8036
16361TIP3   OH270497   5.847   1.122  12.982  0.0712 -0.0624  0.2081
16361TIP3    H170498   5.877   1.199  13.029  2.3791 -0.7353 -0.0293
16361TIP3    H270499   5.763   1.099  13.024  1.3648  0.1141  3.1766
16362TIP3   OH270500   0.680   4.309  13.085 -0.6768  0.2406  0.3478
16362TIP3    H170501   0.733   4.384  13.060 -0.9728 -0.0920 -1.4273
16362TIP3    H270502   0.617   4.299  13.013 -2.2897 -0.1870  1.7502
16363TIP3   OH270503   0.530   3.024  13.712 -0.2172  0.2956 -0.5924
16363TIP3    H170504   0.474   2.979  13.775  1.5418  0.0044  0.8171
16363TIP3    H270505   0.543   3.112  13.748  3.7534 -0.9327  1.5728
16364TIP3   OH270506   2.361   1.698   4.784 -0.6287 -0.0174  0.5488
16364TIP3    H170507   2.284   1.715   4.729 -0.2522  0.1642  0.0744
16364TIP3    H270508   2.341   1.742   4.866 -2.0072 -1.7936  1.2573
16365TIP3   OH270509   4.337   6.514  16.188 -0.1598  0.5573 -0.2012
16365TIP3    H170510   4.352   6.470  16.104 -0.1948  0.4192 -0.1344
16365TIP3    H270511   4.372   6.454  16.254  1.4719  1.4403 -0.2178
16366TIP3   OH270512   2.900   6.020  15.781  0.1000 -0.1653 -0.5066
16366TIP3    H170513   2.967   6.058  15.725  0.4833 -0.4737 -0.2582
16366TIP3    H270514   2.899   6.076  15.858  0.1280 -0.2066 -0.4759
16367TIP3   OH270515   3.506   1.387  14.521 -0.0423 -0.0439 -0.0302
16367TIP3    H170516   3.569   1.375  14.592 -1.3978 -1.8006  0.9666
16367TIP3    H270517   3.533   1.323  14.454  0.8410  1.1522 -0.8652
16368TIP3   OH270518   3.350   2.894   1.160 -0.9798 -0.4479  0.5543
16368TIP3    H170519   3.291   2.899   1.235 -2.0905  1.6204 -0.3837
16368TIP3    H270520   3.420   2.955   1.180 -0.7518 -0.6309  0.3261
16369TIP3   OH270521   4.011   3.414   5.182 -0.0355  0.5957 -0.6314
16369TIP3    H170522   4.066   3.492   5.194 -0.1345  0.5363  0.2946
16369TIP3    H270523   4.024   3.364   5.262 -0.2489 -0.1709 -1.0737
16370TIP3   OH270524   5.550   1.444  14.511  0.0428 -0.2353 -0.5456
16370TIP3    H170525   5.636   1.462  14.473  0.5733 -2.7009 -0.6917
16370TIP3    H270526   5.540   1.509  14.581  1.2464  1.1883 -1.6429
16371TIP3   OH270527   5.243   6.284   4.217  0.0431 -0.1983  0.0747
16371TIP3    H170528   5.148   6.293   4.212  0.2069  1.2257 -1.0773
16371TIP3    H270529   5.260   6.258   4.308 -1.3893  0.2030  0.4770
16372TIP3   OH270530   5.395   2.942  11.370  0.5440  0.0679  0.0552
16372TIP3    H170531   5.361   2.974  11.287 -0.0691 -0.3710  0.1278
16372TIP3    H270532   5.321   2.949  11.430  1.6716  2.9236  1.2944
16373TIP3   OH270533   4.852   1.354   3.952 -0.4109  0.1658 -0.2197
16373TIP3    H170534   4.896   1.307   3.881  2.6419  1.8764  0.3871
16373TIP3    H270535   4.866   1.299   4.029  0.3480  0.4882 -0.1158
16374TIP3   OH270536   1.166   3.990   3.000 -0.8280 -0.1253  0.2343
16374TIP3    H170537   1.140   4.019   2.913  1.7572 -0.1889 -0.6343
16374TIP3    H270538   1.238   3.929   2.985 -0.8449 -0.7628  2.3967
16375TIP3   OH270539   1.585   2.205   4.886  0.0262  0.4532 -0.7929
16375TIP3    H170540   1.496   2.173   4.876 -0.1287  1.1717 -1.8633
16375TIP3    H270541   1.587   2.245   4.973 -1.3025  2.2814 -1.5515
16376TIP3   OH270542   4.985   1.356  12.231 -0.5755 -0.3475  0.7190
16376TIP3    H170543   4.919   1.361  12.162  0.3381 -1.7843 -0.3235
16376TIP3    H270544   5.011   1.264  12.233  2.9214  0.4571 -0.4783
16377TIP3   OH270545   4.470   4.308  13.286  0.2870  0.4892 -0.5532
16377TIP3    H170546   4.413   4.385  13.278  0.3681  0.4948 -1.0873
16377TIP3    H270547   4.427   4.241  13.233  0.6180  0.3976 -0.7065
16378TIP3   OH270548   3.997   3.768   0.162 -0.0502 -0.0018  0.2377
16378TIP3    H170549   4.086   3.795   0.137 -0.2254 -0.1620 -0.5685
16378TIP3    H270550   3.992   3.676   0.135 -0.7682  0.2590 -0.5511
16379TIP3   OH270551   1.859   1.942   2.118 -0.0919  0.2338 -0.0302
16379TIP3    H170552   1.870   1.857   2.161 -1.3418  0.1762  0.1930
16379TIP3    H270553   1.888   1.927   2.028  2.1584  0.2535  0.6126
16380TIP3   OH270554   5.559   1.889   6.098 -0.2667  0.0653  0.2444
16380TIP3    H170555   5.518   1.860   6.180  2.3989  0.7688  1.9638
16380TIP3    H270556   5.571   1.983   6.111  1.9735 -0.1408 -0.0710
16381TIP3   OH270557   6.355   1.256  15.331 -0.8490  0.5022  0.4547
16381TIP3    H170558   6.417   1.318  15.368  1.0287 -0.6308 -0.6405
16381TIP3    H270559   6.367   1.176  15.383  1.3492 -0.8951 -1.9825
16382TIP3   OH270560   6.753   4.989  13.892 -0.1347 -0.4663  0.4038
16382TIP3    H170561   6.694   4.965  13.821 -0.8128 -0.2393  0.8854
16382TIP3    H270562   6.697   4.995  13.969  0.3591  0.6638  0.6927
16383TIP3   OH270563   2.849   6.567  16.898  0.8182  0.3434  0.4096
16383TIP3    H170564   2.932   6.596  16.860  0.5023  0.2662 -0.3571
16383TIP3    H270565   2.803   6.648  16.920  0.9788  0.3906  0.5680
16384TIP3   OH270566   5.536   2.046   3.053 -0.2956  0.1099  0.4055
16384TIP3    H170567   5.456   1.999   3.028  0.6541 -2.0964  1.2028
16384TIP3    H270568   5.571   2.079   2.970 -0.6045 -1.3665 -0.3485
16385TIP3   OH270569   4.494   0.011  15.222 -0.0377 -0.0357  0.9526
16385TIP3    H170570   4.436  -0.065  15.228 -0.4916  0.3056  0.9959
16385TIP3    H270571   4.438   0.085  15.247  0.2039  0.4028  0.2222
16386TIP3   OH270572   2.892   4.697   5.598  0.2725 -0.6324 -0.4434
16386TIP3    H170573   2.901   4.697   5.502  0.0639  0.6423 -0.4786
16386TIP3    H270574   2.962   4.756   5.628 -0.9598  0.6261  0.0365
16387TIP3   OH270575   0.542   0.291  12.049  0.3693  0.0875  0.2665
16387TIP3    H170576   0.462   0.240  12.066  0.4744  0.3063  1.5099
16387TIP3    H270577   0.571   0.262  11.963 -0.1161 -1.2522  0.5302
16388TIP3   OH270578   3.675   1.748   0.171 -0.5296  0.1569 -0.2282
16388TIP3    H170579   3.629   1.730   0.089 -1.4297 -1.6566  0.6019
16388TIP3    H270580   3.736   1.818   0.150  0.1496 -1.0705 -2.7656
16389TIP3   OH270581   6.749   4.519  16.690 -0.0252 -0.0449 -0.2800
16389TIP3    H170582   6.781   4.474  16.769 -0.6683  0.8689  0.5179
16389TIP3    H270583   6.680   4.461  16.656  0.3016 -0.4758 -0.2232
16390TIP3   OH270584   6.122   4.271  14.324  0.1983  0.1465  0.2170
16390TIP3    H170585   6.164   4.348  14.286 -0.7527  0.8188  0.4823
16390TIP3    H270586   6.132   4.283  14.419  1.0213 -0.6335  0.2398
16391TIP3   OH270587   2.291   4.693  14.336 -0.6468 -0.5162 -0.6510
16391TIP3    H170588   2.347   4.675  14.261 -0.0313  0.8398 -0.5455
16391TIP3    H270589   2.349   4.688  14.411 -0.6981  0.6107 -0.5142
16392TIP3   OH270590   0.145   3.845  16.962 -0.1046 -0.7163  0.4439
16392TIP3    H170591   0.163   3.766  17.012  0.5653 -1.7856 -1.3870
16392TIP3    H270592   0.062   3.827  16.918 -0.5135  0.0762  0.8620
16393TIP3   OH270593   3.381   0.625  15.800 -0.3687  0.3740  0.2989
16393TIP3    H170594   3.291   0.615  15.833 -1.4552 -0.5875 -2.6019
16393TIP3    H270595   3.381   0.577  15.716  1.8814  3.2022 -1.4994
16394TIP3   OH270596   1.978   1.164  16.354  0.2496  1.0288  0.0805
16394TIP3    H170597   2.061   1.201  16.324 -0.3785  1.7026 -0.8845
16394TIP3    H270598   1.919   1.174  16.279 -0.7835  0.8151  0.8486
16395TIP3   OH270599   5.134   6.303   2.326 -0.3986  0.1423  0.3970
16395TIP3    H170600   5.162   6.389   2.359  0.1556  0.4377 -0.7932
16395TIP3    H270601   5.214   6.250   2.327 -0.2938  0.2530 -0.7243
16396TIP3   OH270602   0.218   1.270  12.263 -0.9871 -0.0136  0.4784
16396TIP3    H170603   0.237   1.339  12.326 -1.0459  0.0768  0.3976
16396TIP3    H270604   0.123   1.270  12.256 -1.0043 -0.2891  0.6861
16397TIP3   OH270605   2.824   0.061  11.703  0.1792 -0.4236  1.2301
16397TIP3    H170606   2.816   0.012  11.785 -0.0102 -0.6368  1.0863
16397TIP3    H270607   2.793   0.149  11.724 -1.5808 -0.9378  0.9666
16398TIP3   OH270608   5.087   4.281  11.617  0.2557 -0.3975  0.2627
16398TIP3    H170609   5.064   4.373  11.604  0.9832 -0.4701 -1.9115
16398TIP3    H270610   5.177   4.283  11.648  0.1363 -0.3861  0.6201
16399TIP3   OH270611   2.140   1.244   3.667 -0.3234  0.1748  0.0215
16399TIP3    H170612   2.170   1.267   3.579  0.0923  0.6569  0.2834
16399TIP3    H270613   2.196   1.295   3.726 -0.4985 -0.2544  0.5720
16400TIP3   OH270614   0.801   3.316  11.397 -0.0495  0.4664  0.1283
16400TIP3    H170615   0.885   3.361  11.387 -0.2885  0.6817 -0.9850
16400TIP3    H270616   0.809   3.269  11.480  0.1072  2.7862  1.5410
16401TIP3   OH270617   4.417   1.120   0.026  0.1294 -0.4957  0.1685
16401TIP3    H170618   4.377   1.161   0.102 -2.2050  0.5604 -1.4825
16401TIP3    H270619   4.482   1.183  -0.005 -0.1433 -0.1319  0.3288
16402TIP3   OH270620   6.682   3.965  13.574 -0.0525 -0.3532  0.1575
16402TIP3    H170621   6.731   3.914  13.510  0.7313  0.7907 -0.1919
16402TIP3    H270622   6.683   4.054  13.539 -1.1605 -0.0401  0.8743
16403TIP3   OH270623   6.740   2.176  14.594 -0.3040  0.2018 -0.1270
16403TIP3    H170624   6.836   2.182  14.602 -0.2986 -0.2304  0.1676
16403TIP3    H270625   6.707   2.222  14.670 -0.3688  1.7364 -1.0414
16404TIP3   OH270626   0.748   3.011  11.308  0.1062  0.3289  0.1847
16404TIP3    H170627   0.788   2.925  11.325  1.5812  1.2999  1.9223
16404TIP3    H270628   0.794   3.044  11.231  0.0802 -0.0880 -0.0149
16405TIP3   OH270629   4.184   5.230   0.529  0.0204  0.1556  0.1944
16405TIP3    H170630   4.251   5.195   0.587 -0.2770 -0.7906 -0.0228
16405TIP3    H270631   4.207   5.196   0.442 -0.6812 -0.0916  0.1005
16406TIP3   OH270632   4.029   3.167   1.548 -0.5727 -0.1622 -0.2384
16406TIP3    H170633   4.024   3.160   1.453 -0.2816 -0.4247 -0.2350
16406TIP3    H270634   4.111   3.215   1.565 -0.1706 -0.8940 -0.0897
16407TIP3   OH270635   6.687   0.652  12.071 -0.1848 -0.0438 -0.0145
16407TIP3    H170636   6.701   0.574  12.124 -4.0045 -1.0865 -0.3074
16407TIP3    H270637   6.699   0.622  11.981 -1.8967 -0.4532 -0.1431
16408TIP3   OH270638   3.862   4.475   4.588 -0.1705  0.5902 -0.1016
16408TIP3    H170639   3.884   4.464   4.496  1.9978  0.9382  0.3134
16408TIP3    H270640   3.914   4.409   4.633  0.1376  1.5475  0.9969
16409TIP3   OH270641   3.008   0.883  12.954 -0.0493 -0.0218  0.2935
16409TIP3    H170642   3.043   0.972  12.958 -1.5837  0.7370 -1.4806
16409TIP3    H270643   3.078   0.831  12.914  0.5705  0.5462  0.6151
16410TIP3   OH270644   5.510   0.017  15.256  0.0601 -0.0088 -0.2750
16410TIP3    H170645   5.461   0.002  15.337 -0.2126 -0.3411 -0.5010
16410TIP3    H270646   5.527   0.112  15.256 -1.3639  0.2696 -0.6340
16411TIP3   OH270647   4.817   6.477   4.098 -0.6076 -0.4242  0.4240
16411TIP3    H170648   4.874   6.547   4.132 -1.1766  0.5117 -0.4881
16411TIP3    H270649   4.790   6.508   4.012 -0.9867 -1.7319  0.0546
16412TIP3   OH270650   6.753   5.014   4.384 -0.0717 -0.9679  0.3837
16412TIP3    H170651   6.784   4.965   4.459 -1.1019 -0.6945  1.0135
16412TIP3    H270652   6.769   5.106   4.405 -2.6146 -0.6717  1.4490
16413TIP3   OH270653   0.515   5.349   3.362 -0.3689 -0.6413  0.5132
16413TIP3    H170654   0.601   5.391   3.363 -0.6793  0.0783 -0.7241
16413TIP3    H270655   0.498   5.330   3.269 -0.7427 -2.4894  0.9177
16414TIP3   OH270656   2.652   4.348  16.614  0.4917  0.2365  0.5344
16414TIP3    H170657   2.664   4.381  16.525 -0.5738  1.4426  0.8105
16414TIP3    H270658   2.617   4.259  16.602  0.5241  0.3227 -0.2464
16415TIP3   OH270659   5.051   5.407   2.316  0.2217 -0.0797 -0.4313
16415TIP3    H170660   5.092   5.346   2.255 -1.4569  0.2399 -1.9597
16415TIP3    H270661   4.976   5.358   2.352  0.0685  0.3878 -0.1059
16416TIP3   OH270662   4.086   5.180  14.887 -0.2642 -0.5634  0.3086
16416TIP3    H170663   4.147   5.217  14.951  0.7466  1.5977 -1.7776
16416TIP3    H270664   4.000   5.192  14.927  0.4447 -1.2020  2.1324
16417TIP3   OH270665   1.829   4.821   3.560 -0.1965 -0.1347  0.1991
16417TIP3    H170666   1.809   4.914   3.573 -0.3273 -0.0002 -0.9154
16417TIP3    H270667   1.923   4.819   3.544 -0.3388 -0.0872 -0.6759
16418TIP3   OH270668   0.659   3.114  15.151 -0.0144 -0.6843  0.1292
16418TIP3    H170669   0.682   3.037  15.099  0.0935  0.5450 -1.7179
16418TIP3    H270670   0.597   3.163  15.097 -0.7056  0.1545  1.6033
16419TIP3   OH270671   3.161   6.740   4.482 -0.6025 -0.2269  0.3957
16419TIP3    H170672   3.196   6.703   4.562 -0.5669 -2.9558 -0.7783
16419TIP3    H270673   3.235   6.743   4.422 -0.2468  3.2471  0.8119
16420TIP3   OH270674   0.804   2.825  16.435  0.0521  0.1149  0.1735
16420TIP3    H170675   0.848   2.814  16.519  1.1317  0.4865 -0.3200
16420TIP3    H270676   0.715   2.792  16.449  0.8106 -1.7719  0.8947
16421TIP3   OH270677   5.329   0.058  10.720 -0.3998  0.3213  0.2465
16421TIP3    H170678   5.408   0.006  10.738 -0.2227  0.1972 -0.7963
16421TIP3    H270679   5.307   0.099  10.804 -1.1705 -2.2686  1.4308
16422TIP3   OH270680   3.000   2.725  13.703 -0.5965 -0.6461  0.2391
16422TIP3    H170681   2.993   2.702  13.611  1.6248  0.9879 -0.4275
16422TIP3    H270682   3.094   2.717  13.722 -0.8059  0.4868  1.9495
16423TIP3   OH270683   1.246   5.019  16.572 -0.1525 -0.0373 -0.1372
16423TIP3    H170684   1.270   4.935  16.533 -0.1674 -0.6973  1.2056
16423TIP3    H270685   1.202   5.067  16.502 -3.2069 -2.4534 -0.0665
16424TIP3   OH270686   1.888   0.955  17.247 -0.1222 -0.3982  0.4384
16424TIP3    H170687   1.931   0.871  17.233  0.1650 -0.3460  0.9693
16424TIP3    H270688   1.795   0.937  17.232  0.0876 -0.4588 -0.9389
16425TIP3   OH270689   4.531   0.776   5.033  0.9439 -0.6218  0.3381
16425TIP3    H170690   4.518   0.759   4.940  1.0832 -2.0553  0.5563
16425TIP3    H270691   4.445   0.762   5.073  0.9153 -0.1553  0.4362
16426TIP3   OH270692   3.816   0.915  15.403 -0.0226 -0.2280 -0.2099
16426TIP3    H170693   3.871   0.921  15.481 -1.4509  3.3981  0.7211
16426TIP3    H270694   3.789   1.005  15.386 -0.2098 -0.9064 -4.6765
16427TIP3   OH270695   1.306   1.627  11.751  0.2180  0.2094 -0.0442
16427TIP3    H170696   1.255   1.615  11.832 -1.4595 -1.6027 -1.2609
16427TIP3    H270697   1.355   1.545  11.742  0.5118  0.4574 -0.7818
16428TIP3   OH270698   6.581   4.793  11.715 -0.0759  0.3681  0.5782
16428TIP3    H170699   6.501   4.842  11.732  0.3456  0.5144  2.2565
16428TIP3    H270700   6.583   4.783  11.619 -1.5461  1.2535  0.4286
16429TIP3   OH270701   4.516   5.378   1.300 -0.5047  0.3600  0.1773
16429TIP3    H170702   4.467   5.416   1.228 -0.9374  0.5534  0.5674
16429TIP3    H270703   4.511   5.283   1.286  0.8781  0.4350 -0.9956
16430TIP3   OH270704   0.082   5.543   1.750 -0.5804  0.0542 -0.0935
16430TIP3    H170705   0.173   5.543   1.779 -0.1195  0.8946 -1.4149
16430TIP3    H270706   0.031   5.522   1.828  0.5834  2.0204  1.2721
16431TIP3   OH270707   6.037   5.012  14.132 -0.4807 -0.1608 -0.6480
16431TIP3    H170708   6.023   4.928  14.089 -1.1687 -1.6570  2.2254
16431TIP3    H270709   5.949   5.040  14.159 -0.0672  0.5905 -0.0304
16432TIP3   OH270710   5.505   3.045  13.971  0.5169 -0.1602 -0.2021
16432TIP3    H170711   5.457   3.122  13.940 -2.0818 -2.0197 -1.1091
16432TIP3    H270712   5.568   3.027  13.901 -0.9835 -0.6038 -1.5060
16433TIP3   OH270713   1.660   3.271  12.473 -0.1503 -0.6734 -1.2571
16433TIP3    H170714   1.601   3.284  12.399 -1.4747 -1.3981 -0.3838
16433TIP3    H270715   1.690   3.181  12.465 -0.0653 -0.6631 -1.0712
16434TIP3   OH270716   5.661   6.486   5.126 -0.3842  0.5481 -0.0504
16434TIP3    H170717   5.586   6.455   5.076 -0.0089 -1.0566  0.3097
16434TIP3    H270718   5.692   6.408   5.173  1.9466  0.9769 -0.7444
16435TIP3   OH270719   4.313   1.715   5.733  0.2051  0.1320  0.2278
16435TIP3    H170720   4.315   1.657   5.656 -0.5085 -0.1555  0.4194
16435TIP3    H270721   4.284   1.799   5.699 -0.1364 -0.0022  0.1869
16436TIP3   OH270722   1.081   4.592  16.398  0.6986  0.1076 -0.5863
16436TIP3    H170723   1.152   4.601  16.461 -1.1760  0.7151  1.5750
16436TIP3    H270724   1.009   4.556  16.449 -1.7494  3.0498 -1.6605
16437TIP3   OH270725   2.811   3.719   3.069  0.1677 -0.1953  0.3149
16437TIP3    H170726   2.743   3.786   3.067  0.0548 -0.3142 -2.0333
16437TIP3    H270727   2.893   3.769   3.073  0.0371  0.0478  0.0164
16438TIP3   OH270728   3.649   4.736   6.739 -0.6077 -0.0270  0.4791
16438TIP3    H170729   3.734   4.723   6.697 -0.9442  0.9984 -0.5797
16438TIP3    H270730   3.629   4.652   6.779  2.8357  0.6927  4.5191
16439TIP3   OH270731   6.246   2.171  11.341 -0.2031  0.2887  0.0553
16439TIP3    H170732   6.212   2.199  11.256 -0.4321  0.0825  0.0800
16439TIP3    H270733   6.331   2.214  11.347 -0.4734  0.8280  0.0123
16440TIP3   OH270734   3.829   6.595  16.013 -0.0498 -0.2499  0.4660
16440TIP3    H170735   3.841   6.533  15.942  0.2270  0.2656  0.0568
16440TIP3    H270736   3.806   6.541  16.089  0.0550 -0.8336  0.0831
16441TIP3   OH270737   3.977   2.001   4.850 -0.4069 -0.1941  0.4702
16441TIP3    H170738   3.980   2.083   4.899  2.7432  0.5250 -0.6731
16441TIP3    H270739   3.927   2.022   4.771  0.8238  0.8931 -0.0731
16442TIP3   OH270740   5.338   4.439   5.591 -0.2884 -0.0783  0.0129
16442TIP3    H170741   5.265   4.413   5.535  0.7424 -0.2840 -1.2929
16442TIP3    H270742   5.361   4.359   5.638 -0.9297  0.0019  0.4706
16443TIP3   OH270743   5.689   5.749   5.399 -0.6937 -0.1992  0.1505
16443TIP3    H170744   5.602   5.763   5.437 -1.5854 -1.9130 -1.0751
16443TIP3    H270745   5.748   5.745   5.474 -1.8636 -0.1858  1.1040
16444TIP3   OH270746   1.515   4.961  15.786 -0.5813 -0.3986 -0.9391
16444TIP3    H170747   1.551   5.030  15.842 -0.0191 -1.2219 -0.2587
16444TIP3    H270748   1.447   4.920  15.839 -0.1116 -1.1215 -0.8808
16445TIP3   OH270749   0.093   5.984  17.189 -0.1998 -0.0469 -0.1480
16445TIP3    H170750   0.123   5.893  17.188  1.4800  0.4597 -1.4164
16445TIP3    H270751   0.108   6.014  17.099 -0.8318  1.4511  0.2260
16446TIP3   OH270752   6.588   5.943  14.246 -0.3343  0.0845  0.5125
16446TIP3    H170753   6.610   5.854  14.217  2.4862  0.7878  0.2915
16446TIP3    H270754   6.536   5.930  14.325  0.6361 -1.7826  0.8953
16447TIP3   OH270755   0.719   5.997   4.093 -0.1872  0.3332  1.0121
16447TIP3    H170756   0.639   5.950   4.070 -0.2169 -0.1616  2.0540
16447TIP3    H270757   0.781   5.929   4.119  0.7455  0.6772 -0.2264
16448TIP3   OH270758   6.693   1.565  11.915 -0.0579 -0.0478 -0.2643
16448TIP3    H170759   6.713   1.496  11.979 -0.5329 -1.0200 -1.1392
16448TIP3    H270760   6.779   1.593  11.883  0.1954  0.6180  0.9604
16449TIP3   OH270761   0.138   3.056   1.950  0.1859  0.0941  0.2483
16449TIP3    H170762   0.162   2.966   1.972  1.5070  0.3531 -0.0451
16449TIP3    H270763   0.047   3.051   1.921  0.5190 -1.2914 -0.6167
16450TIP3   OH270764   0.996   2.052  13.295  0.1497  0.2114 -0.2323
16450TIP3    H170765   1.034   1.964  13.296 -1.4606 -0.5174 -0.4105
16450TIP3    H270766   0.903   2.038  13.280 -1.0559  1.6443  4.2987
16451TIP3   OH270767   5.539   4.192  16.151  0.0843  0.4724  0.4911
16451TIP3    H170768   5.605   4.167  16.215  0.2092  0.1481  0.2417
16451TIP3    H270769   5.585   4.188  16.067 -0.4959 -0.6948  0.2110
16452TIP3   OH270770   0.525   4.102   0.222  0.2890 -0.3777  0.0511
16452TIP3    H170771   0.581   4.180   0.227  0.3786 -0.5021  1.4223
16452TIP3    H270772   0.542   4.056   0.305  0.5295 -2.0607 -0.8899
16453TIP3   OH270773   6.403   1.572   2.514  0.2377  0.0758 -0.1183
16453TIP3    H170774   6.348   1.495   2.519  0.4752 -0.0584  0.5012
16453TIP3    H270775   6.346   1.645   2.541  1.0303 -0.4044  3.3062
16454TIP3   OH270776   0.260   1.464  12.455 -0.2389  0.0416 -0.7698
16454TIP3    H170777   0.315   1.435  12.528 -0.0564 -0.4813 -1.1024
16454TIP3    H270778   0.257   1.559  12.462 -1.9115 -0.0734  1.1320
16455TIP3   OH270779   6.169   2.788  16.919 -0.0839  0.1721  0.1333
16455TIP3    H170780   6.225   2.843  16.973 -1.7370  0.1499  1.9643
16455TIP3    H270781   6.144   2.715  16.976 -1.3169 -0.2573 -0.8936
16456TIP3   OH270782   0.119   4.419   6.337  0.0261  0.4377  0.5937
16456TIP3    H170783   0.087   4.339   6.377 -0.2377  1.2359  2.0622
16456TIP3    H270784   0.060   4.435   6.264  1.8140 -2.2236 -1.6643
16457TIP3   OH270785   4.798   0.598  16.567  0.6549 -0.1454  0.6049
16457TIP3    H170786   4.743   0.664  16.609  1.3498  0.6162  0.3435
16457TIP3    H270787   4.764   0.514  16.599  0.0706  0.3549  1.3190
16458TIP3   OH270788   6.030   5.460  14.944 -0.5837  0.0069  0.3072
16458TIP3    H170789   6.092   5.387  14.955  0.1833  0.6395  0.2180
16458TIP3    H270790   6.024   5.499  15.031  0.9835  1.4020 -0.1700
16459TIP3   OH270791   4.495   4.722   4.936  0.4068  0.3847 -0.0927
16459TIP3    H170792   4.528   4.810   4.921 -0.2662  0.6335 -0.1576
16459TIP3    H270793   4.520   4.701   5.026 -1.6791  1.6856  0.8786
16460TIP3   OH270794   5.276   3.879   2.188 -0.5458  0.3728  0.5178
16460TIP3    H170795   5.312   3.800   2.230 -0.9678 -0.6829 -1.0144
16460TIP3    H270796   5.189   3.889   2.227 -1.3213 -1.1518 -0.6946
16461TIP3   OH270797   6.287   0.785  14.058 -0.1915 -0.3077 -0.1838
16461TIP3    H170798   6.273   0.693  14.080  0.9263 -0.2827  0.7651
16461TIP3    H270799   6.254   0.832  14.135 -0.5652  0.0882 -0.5786
16462TIP3   OH270800   4.997   6.604   5.701 -0.0937  0.1900  0.0245
16462TIP3    H170801   5.027   6.663   5.770 -0.6433 -1.0818  1.4135
16462TIP3    H270802   4.902   6.605   5.708 -0.1294 -0.5031 -0.2221
16463TIP3   OH270803   4.958   3.711   6.736  0.2875  0.2471  0.2108
16463TIP3    H170804   4.872   3.683   6.707  0.9586 -1.5855 -0.1584
16463TIP3    H270805   4.948   3.804   6.756 -1.3296  0.4881 -1.4600
16464TIP3   OH270806   5.166   1.136   3.453  0.1774  0.1632  0.0346
16464TIP3    H170807   5.230   1.073   3.486 -1.9683 -1.9979  0.3297
16464TIP3    H270808   5.209   1.221   3.461  3.0567 -1.2026 -0.0468
16465TIP3   OH270809   5.651   3.251  12.443  0.1771 -0.7738 -0.1640
16465TIP3    H170810   5.708   3.176  12.456  1.5597  0.3736  0.6984
16465TIP3    H270811   5.679   3.289  12.360 -0.2440 -0.9847 -0.4018
16466TIP3   OH270812   4.887   2.839   5.193  0.3797  0.1610 -0.8593
16466TIP3    H170813   4.843   2.763   5.156 -2.4073  1.1913  0.0429
16466TIP3    H270814   4.817   2.890   5.233  2.4595  1.9592  0.7781
16467TIP3   OH270815   4.066   0.112   0.677 -0.4274  0.0817  0.2144
16467TIP3    H170816   4.113   0.061   0.742  0.5495  1.3848  0.5736
16467TIP3    H270817   4.132   0.172   0.641 -1.2764  0.3578 -0.9550
16468TIP3   OH270818   5.867   3.662  16.450  0.1020 -0.1686 -0.0291
16468TIP3    H170819   5.935   3.622  16.395 -1.6143 -2.2426 -0.7944
16468TIP3    H270820   5.863   3.606  16.527  0.8770  1.3836  1.2014
16469TIP3   OH270821   6.244   6.636  14.202 -0.0092 -0.1717  0.2848
16469TIP3    H170822   6.302   6.597  14.137 -0.5428 -1.2912  0.4549
16469TIP3    H270823   6.303   6.675  14.267  0.5410 -0.4640 -0.0336
16470TIP3   OH270824   4.658   6.365   4.715  0.0708 -0.1676 -0.1198
16470TIP3    H170825   4.569   6.364   4.749 -0.3017 -0.3616 -1.0730
16470TIP3    H270826   4.652   6.415   4.633  1.1187  1.1161  0.5500
16471TIP3   OH270827   5.555   0.593  11.923  0.0265 -0.0414 -0.3604
16471TIP3    H170828   5.515   0.668  11.879  0.2074 -0.8765 -2.0706
16471TIP3    H270829   5.491   0.522  11.911  0.0491 -0.2857  0.8499
16472TIP3   OH270830   3.208   6.099   3.058 -0.2802  0.3021  0.0316
16472TIP3    H170831   3.259   6.142   3.127  1.2318 -0.5575 -0.5049
16472TIP3    H270832   3.264   6.105   2.980 -1.0579 -0.5696 -0.6117
16473TIP3   OH270833   2.059   1.027  12.769 -0.0801  0.2905  0.2872
16473TIP3    H170834   2.130   1.048  12.829 -0.0815  0.4771  0.2246
16473TIP3    H270835   1.980   1.036  12.821 -0.0234 -0.4803  0.5080
16474TIP3   OH270836   0.087   3.017  14.028 -0.2018  0.2210 -0.0702
16474TIP3    H170837   0.034   3.096  14.031 -1.4094 -0.5613 -0.2006
16474TIP3    H270838   0.109   2.999  14.120 -0.4807  0.3436  0.0205
16475TIP3   OH270839   5.246   1.195  13.565  0.0890 -0.1652  0.4511
16475TIP3    H170840   5.255   1.209  13.471 -0.0748  1.8721  0.6880
16475TIP3    H270841   5.335   1.203  13.599  0.0553 -0.2042  0.5504
16476TIP3   OH270842   5.752   5.441  12.165 -0.1267 -0.1847 -0.0233
16476TIP3    H170843   5.815   5.488  12.109 -0.2348  0.0301  0.0329
16476TIP3    H270844   5.689   5.404  12.103  0.4581 -1.0136 -0.1315
16477TIP3   OH270845   2.376   6.343   0.134 -0.3865  0.5668 -0.6057
16477TIP3    H170846   2.461   6.299   0.142 -1.1390 -0.7271  0.5843
16477TIP3    H270847   2.380   6.415   0.197  0.4124  1.5598 -1.7353
16478TIP3   OH270848   3.785   2.790   1.795 -0.7870  0.9460  0.7992
16478TIP3    H170849   3.861   2.748   1.754 -0.9475  2.2831 -0.9945
16478TIP3    H270850   3.716   2.723   1.791 -0.0781  0.1721  1.2407
16479TIP3   OH270851   3.848   4.577   3.996  0.0001 -0.2381  0.5602
16479TIP3    H170852   3.807   4.512   3.939 -0.8172  0.5218  0.2507
16479TIP3    H270853   3.791   4.580   4.072  0.4234 -0.3775  0.8847
16480TIP3   OH270854   6.709   6.687   0.881  0.1000 -0.9653 -0.2886
16480TIP3    H170855   6.804   6.696   0.891  0.0481  0.3170 -0.7778
16480TIP3    H270856   6.690   6.599   0.915  0.9384  0.1111  3.4472
16481TIP3   OH270857   1.871   2.407  12.830 -0.0310  0.2233  0.0583
16481TIP3    H170858   1.778   2.388  12.818 -0.2081  0.5899  0.8447
16481TIP3    H270859   1.910   2.386  12.745 -0.8262  0.0617 -0.2767
16482TIP3   OH270860   3.965   6.007   5.389 -0.3266  0.5589 -0.1557
16482TIP3    H170861   3.982   6.100   5.373 -1.3036  0.6724 -0.6311
16482TIP3    H270862   4.052   5.969   5.406 -0.0500  1.7999  1.4574
16483TIP3   OH270863   6.144   5.200   2.196 -0.3995  0.0585  0.1741
16483TIP3    H170864   6.138   5.274   2.256 -1.4268  0.9800 -1.0098
16483TIP3    H270865   6.237   5.189   2.180 -0.1427  0.1372  1.4927
16484TIP3   OH270866   5.670   3.680  11.844 -0.4791  0.0058 -0.3672
16484TIP3    H170867   5.613   3.608  11.869  0.1045  0.0432  1.2156
16484TIP3    H270868   5.751   3.638  11.816 -0.4925  0.0195 -0.4268
16485TIP3   OH270869   4.817   1.503   2.250 -0.0731  0.2443  0.1870
16485TIP3    H170870   4.775   1.536   2.329  0.0537 -2.2584  1.4029
16485TIP3    H270871   4.746   1.463   2.200  0.1286  0.1837 -0.0505
16486TIP3   OH270872   1.828   0.210   3.359  0.6558  0.3578  0.3293
16486TIP3    H170873   1.835   0.225   3.264 -0.7056  1.0298  0.3141
16486TIP3    H270874   1.772   0.133   3.366 -0.8752  1.4512  0.5937
16487TIP3   OH270875   6.436   5.617  16.608 -0.2888  0.0134  0.1650
16487TIP3    H170876   6.377   5.632  16.534  2.3401  1.2785 -1.8571
16487TIP3    H270877   6.421   5.526  16.633 -0.4170 -0.8868 -2.8169
16488TIP3   OH270878   2.637   6.501   0.377  0.4627 -0.0122 -0.1939
16488TIP3    H170879   2.563   6.560   0.364 -0.4480 -1.0627  0.0627
16488TIP3    H270880   2.705   6.533   0.317 -0.4515  0.5411 -0.9483
16489TIP3   OH270881   0.419   2.849  14.513  0.5737 -0.4655  0.6230
16489TIP3    H170882   0.507   2.835  14.546  1.4022 -1.6608 -1.8242
16489TIP3    H270883   0.404   2.943  14.524  2.9448  0.1368 -0.5881
16490TIP3   OH270884   1.348   2.376   4.639 -0.1085  0.2120 -0.2930
16490TIP3    H170885   1.273   2.396   4.584  0.3957 -2.5571 -2.1746
16490TIP3    H270886   1.338   2.284   4.662  1.1277  0.5791  2.0824
16491TIP3   OH270887   2.524   2.375  17.293  0.0414 -0.0094 -0.3290
16491TIP3    H170888   2.505   2.441  17.227 -1.2090  1.6896  1.5815
16491TIP3    H270889   2.497   2.416  17.376  1.2518 -2.1190  1.2081
16492TIP3   OH270890   4.381   4.028   0.416 -0.0710 -0.3225  0.0889
16492TIP3    H170891   4.390   3.973   0.338 -1.3022 -0.9490  0.3643
16492TIP3    H270892   4.426   4.110   0.393 -0.9315 -0.2642 -1.4957
16493TIP3   OH270893   6.688   2.488   1.056  0.0716 -0.5791 -0.1332
16493TIP3    H170894   6.594   2.491   1.070 -0.1745  1.2748 -1.6963
16493TIP3    H270895   6.725   2.519   1.139 -0.8011  0.3883 -0.0794
16494TIP3   OH270896   2.581   5.068  14.186 -0.4714 -0.1175  0.1484
16494TIP3    H170897   2.601   4.975  14.181  1.2979  0.2740 -0.9890
16494TIP3    H270898   2.612   5.095  14.273  0.7263 -0.2450 -0.2251
16495TIP3   OH270899   5.931   2.449  11.984  0.3305 -0.0583  0.2045
16495TIP3    H170900   5.987   2.521  12.013  0.9151 -0.0877 -0.7778
16495TIP3    H270901   5.986   2.400  11.923 -0.4342 -0.6940  0.0085
16496TIP3   OH270902   5.511   1.016  15.342 -0.4849  0.1428  0.3936
16496TIP3    H170903   5.527   0.921  15.341 -0.4540  0.1531 -0.2537
16496TIP3    H270904   5.432   1.028  15.290  0.4328  0.6281 -0.9277
16497TIP3   OH270905   4.155   2.025  11.692 -0.1122  0.4586 -0.0535
16497TIP3    H170906   4.184   2.004  11.603  0.3186  0.8805 -0.0169
16497TIP3    H270907   4.230   2.002  11.748 -1.6507 -3.4081  0.6811
16498TIP3   OH270908   4.509   1.203  11.114 -0.3663 -0.2082 -0.0232
16498TIP3    H170909   4.586   1.163  11.075 -0.7661 -1.7766  0.7262
16498TIP3    H270910   4.449   1.130  11.131 -0.5197  0.4573  2.7928
16499TIP3   OH270911   6.075   2.177   6.204  0.0076  0.1954 -0.2404
16499TIP3    H170912   6.112   2.265   6.195 -1.3067  0.7858 -0.1220
16499TIP3    H270913   6.123   2.137   6.276  0.0669  1.1218  0.2420
16500TIP3   OH270914   3.074   6.578  11.146  0.3661 -0.1820 -0.2251
16500TIP3    H170915   3.074   6.570  11.242 -0.5220  1.0892 -0.0941
16500TIP3    H270916   3.146   6.521  11.118  2.1299  1.1390  1.3517
16501TIP3   OH270917   3.212   3.373   2.067  0.6765  0.1548 -0.1398
16501TIP3    H170918   3.180   3.297   2.017 -0.7291 -0.5259  1.6763
16501TIP3    H270919   3.303   3.351   2.087  0.1534 -1.3572  0.7943
16502TIP3   OH270920   5.598   2.941  14.753 -0.2376 -0.2254 -0.5586
16502TIP3    H170921   5.574   3.025  14.792 -0.4097 -0.0456 -1.0393
16502TIP3    H270922   5.664   2.905  14.812  0.2761  0.5242 -0.6574
16503TIP3   OH270923   0.049   6.689  15.844 -0.5966 -0.3844 -0.2201
16503TIP3    H170924   0.027   6.664  15.934 -0.1251 -0.7672 -0.2049
16503TIP3    H270925   0.144   6.702  15.845 -0.7872  1.2345 -0.2888
16504TIP3   OH270926   2.969   1.492   1.111 -0.6557 -0.6540 -0.1012
16504TIP3    H170927   2.904   1.489   1.041 -2.6242  0.0902  1.5869
16504TIP3    H270928   2.918   1.508   1.190  1.6683  0.7940  1.2249
16505TIP3   OH270929   0.804   1.126   6.493 -0.2559  0.2630  0.2493
16505TIP3    H170930   0.738   1.060   6.473 -0.8470  0.4522  1.5324
16505TIP3    H270931   0.760   1.210   6.478  0.0196  0.3921  0.1337
16506TIP3   OH270932   2.284   4.012  14.690  0.0322  0.0466 -0.0644
16506TIP3    H170933   2.321   3.925  14.674  0.3749  0.6024 -2.7351
16506TIP3    H270934   2.349   4.072  14.653 -0.1710  1.4869  1.7980
16507TIP3   OH270935   1.785   3.237   4.623 -0.8594 -0.0959 -0.2387
16507TIP3    H170936   1.821   3.302   4.563 -0.7500  1.3609  1.3508
16507TIP3    H270937   1.719   3.191   4.571 -0.5323  0.8770 -1.5780
16508TIP3   OH270938   4.828   2.636   3.014 -0.3901  0.1128  0.1285
16508TIP3    H170939   4.735   2.658   3.025 -0.1796  0.8267  0.5798
16508TIP3    H270940   4.867   2.716   2.978  0.2159  0.1521  0.8382
16509TIP3   OH270941   2.036   3.665   2.716  0.2543 -0.0207 -0.0355
16509TIP3    H170942   2.006   3.678   2.626 -0.5875 -3.5127 -0.3793
16509TIP3    H270943   1.987   3.730   2.767  1.0260  2.3078 -2.0391
16510TIP3   OH270944   5.249   5.238  12.876  0.8684 -0.2077 -0.3545
16510TIP3    H170945   5.307   5.306  12.844 -0.4883  1.4776  0.5964
16510TIP3    H270946   5.178   5.285  12.920 -2.3522 -1.9378 -3.1330
16511TIP3   OH270947   2.622   2.950   4.397 -0.4125  0.1357 -0.0103
16511TIP3    H170948   2.626   2.971   4.304 -0.0830  0.1302  0.0008
16511TIP3    H270949   2.651   2.858   4.402 -2.0278 -0.4030 -0.0821
16512TIP3   OH270950   3.229   5.176  14.949 -0.0883  0.1695 -0.1350
16512TIP3    H170951   3.152   5.148  14.997  2.4414 -3.7601  2.1051
16512TIP3    H270952   3.262   5.097  14.907  2.2516  1.8805 -1.8112
16513TIP3   OH270953   2.728   3.877  13.082  0.0838 -0.0211  0.4263
16513TIP3    H170954   2.669   3.808  13.112  0.4159 -0.3601  0.3151
16513TIP3    H270955   2.673   3.954  13.073 -0.4569 -0.4717 -0.1978
16514TIP3   OH270956   6.095   3.967  13.869 -0.0948 -0.0158 -0.1802
16514TIP3    H170957   6.112   4.008  13.954 -2.1351 -0.2437  0.4101
16514TIP3    H270958   6.049   3.886  13.891  0.5248 -0.7444 -1.4758
16515TIP3   OH270959   0.574   2.037  13.018  0.3015 -0.6715  0.5498
16515TIP3    H170960   0.611   2.028  12.930  0.3645  1.7719  0.2794
16515TIP3    H270961   0.516   1.962  13.027  0.4447 -1.0797 -1.4943
16516TIP3   OH270962   4.284   3.855  16.351 -0.2061  0.2746 -0.2400
16516TIP3    H170963   4.274   3.765  16.382 -0.1422  0.2004 -0.4303
16516TIP3    H270964   4.347   3.894  16.410  0.9671 -0.2665 -1.0922
16517TIP3   OH270965   5.508   0.266   4.398 -0.1987  0.1728  0.3443
16517TIP3    H170966   5.531   0.337   4.458  0.2142 -0.3908  0.8675
16517TIP3    H270967   5.416   0.248   4.416 -0.4290  0.8705 -0.1048
16518TIP3   OH270968   5.399   2.239   2.438  0.1302  0.0698 -0.1280
16518TIP3    H170969   5.437   2.194   2.514  0.1776 -1.5421 -1.0786
16518TIP3    H270970   5.373   2.325   2.473  1.2860 -0.1522  1.4077
16519TIP3   OH270971   5.522   6.277  11.851 -0.3617  0.5098  0.0270
16519TIP3    H170972   5.534   6.349  11.788 -0.0844  1.0586  0.6901
16519TIP3    H270973   5.444   6.230  11.819  0.6265 -0.1339 -1.5661
16520TIP3   OH270974   5.578   2.433   2.770 -0.0491 -0.2834 -0.4239
16520TIP3    H170975   5.625   2.515   2.752 -0.9701  0.0447 -1.4243
16520TIP3    H270976   5.583   2.423   2.865  1.2202  0.2321 -0.4182
16521TIP3   OH270977   6.324   5.375   6.303  0.1069 -0.0004  0.1590
16521TIP3    H170978   6.264   5.303   6.323  1.3165 -0.9054  0.6723
16521TIP3    H270979   6.403   5.332   6.271 -0.0804  1.2413 -2.1576
16522TIP3   OH270980   0.159   4.173  14.620  0.0153 -0.5167  0.3133
16522TIP3    H170981   0.140   4.264  14.643 -0.8160 -0.5716 -0.1374
16522TIP3    H270982   0.202   4.178  14.535  0.0499 -0.5353  0.3297
16523TIP3   OH270983   4.821   1.012   5.779 -0.6485 -0.0324 -0.3481
16523TIP3    H170984   4.916   1.020   5.784 -0.4187 -1.2136 -1.9493
16523TIP3    H270985   4.801   0.935   5.833 -0.5096 -0.6471 -1.1551
16524TIP3   OH270986   4.889   5.037   2.439  0.0083  0.0860  0.3252
16524TIP3    H170987   4.904   4.961   2.383  1.7856  0.4332  0.2682
16524TIP3    H270988   4.808   5.076   2.407 -0.3952 -1.2213 -0.2730
16525TIP3   OH270989   0.633   6.218   4.938 -0.1450  0.1433  0.0680
16525TIP3    H170990   0.593   6.201   5.023  0.5797  0.7082  0.5371
16525TIP3    H270991   0.675   6.304   4.948  1.1540 -0.4000 -0.3912
16526TIP3   OH270992   3.234   2.675   4.577 -0.1341 -0.1010  0.3204
16526TIP3    H170993   3.159   2.652   4.522 -0.2275  0.4515  0.2128
16526TIP3    H270994   3.228   2.770   4.587  1.9595  0.3383 -1.7915
16527TIP3   OH270995   6.702   5.285   0.901  0.4049 -0.0826  0.4831
16527TIP3    H170996   6.768   5.260   0.966  0.0566 -1.6508  0.2732
16527TIP3    H270997   6.744   5.354   0.850  1.2774  0.0620  1.3623
16528TIP3   OH270998   5.911   6.395  17.192 -0.3820 -0.1224  0.3156
16528TIP3    H170999   6.002   6.416  17.214  0.7027 -3.7203 -0.0129
16528TIP3    H271000   5.871   6.372  17.276 -1.0328  1.4541  0.4582
16529TIP3   OH271001   0.217   3.824  16.666 -0.6378 -0.1243  0.2123
16529TIP3    H171002   0.295   3.769  16.675 -0.3703  0.2406  0.0993
16529TIP3    H271003   0.184   3.832  16.756  0.7266  1.5759  0.6126
16530TIP3   OH271004   2.891   4.633  12.727  0.0578 -0.6937 -0.1453
16530TIP3    H171005   2.837   4.555  12.740 -0.5160 -0.1225  1.0783
16530TIP3    H271006   2.830   4.699  12.692  0.4117 -0.6152 -0.6292
16531TIP3   OH271007   1.534   6.712  13.998  0.2582  0.3301 -0.3212
16531TIP3    H171008   1.592   6.765  13.944  0.9937 -0.8992 -0.7802
16531TIP3    H271009   1.505   6.641  13.940 -1.3561  0.6504  0.0290
16532TIP3   OH271010   0.842   0.813  17.138 -0.0698  0.7273  0.4792
16532TIP3    H171011   0.886   0.818  17.222  3.6748 -0.3698 -1.1939
16532TIP3    H271012   0.865   0.895  17.094  1.0921 -0.1913 -0.7191
16533TIP3   OH271013   3.619   2.944  14.309 -0.3278 -0.0820  0.0799
16533TIP3    H171014   3.621   3.023  14.254 -0.1286  0.2157  0.5075
16533TIP3    H271015   3.707   2.907  14.300 -0.7372 -0.8702 -0.9818
16534TIP3   OH271016   5.464   1.054  12.244  0.0094  0.3615 -0.4177
16534TIP3    H171017   5.461   1.143  12.211 -1.3726  0.2348 -0.6839
16534TIP3    H271018   5.420   1.002  12.176 -0.9018 -0.2314  0.6041
16535TIP3   OH271019   2.835   5.462  13.097 -0.4390  0.0290 -0.2844
16535TIP3    H171020   2.756   5.498  13.056 -0.2366 -0.6322 -1.2960
16535TIP3    H271021   2.904   5.525  13.075 -0.4807  0.0715 -0.2933
16536TIP3   OH271022   3.761   2.500  14.277 -0.8027  0.1826 -0.2078
16536TIP3    H171023   3.767   2.426  14.337 -0.9579 -0.7085 -1.2607
16536TIP3    H271024   3.851   2.533  14.271 -0.6276 -0.2758 -0.1538
16537TIP3   OH271025   0.233   2.699  11.956  0.0925 -0.0462  0.6011
16537TIP3    H171026   0.207   2.787  11.983  2.4561  2.0267 -3.0258
16537TIP3    H271027   0.187   2.685  11.873  0.9991 -1.5343  0.3092
16538TIP3   OH271028   0.360   4.917   4.610  0.1585  0.3030  0.1881
16538TIP3    H171029   0.265   4.922   4.620  0.3076  0.8770  1.5423
16538TIP3    H271030   0.386   5.005   4.582  0.4467  0.6472  1.4781
16539TIP3   OH271031   6.446   2.773  17.240 -0.1127 -0.0873 -0.2732
16539TIP3    H171032   6.428   2.816  17.157 -1.6524 -0.9652 -0.4217
16539TIP3    H271033   6.484   2.689  17.217  0.9807  0.3218 -0.0289
16540TIP3   OH271034   6.011   2.100   2.401  0.0563 -0.5708  0.0280
16540TIP3    H171035   6.102   2.081   2.425  0.1221  0.3370  0.5620
16540TIP3    H271036   5.960   2.078   2.479 -0.1494 -0.8281 -0.1777
16541TIP3   OH271037   4.826   5.441  11.786  0.2987 -0.1466  0.2632
16541TIP3    H171038   4.731   5.431  11.780  0.5523 -2.3851 -0.8460
16541TIP3    H271039   4.840   5.481  11.872 -1.6962  1.6821 -0.1803
16542TIP3   OH271040   5.352   2.670   0.309 -0.6380  0.0856 -0.3860
16542TIP3    H171041   5.368   2.709   0.223  0.9377  2.6210  0.9162
16542TIP3    H271042   5.277   2.613   0.296  0.8832 -1.4228 -3.9129
16543TIP3   OH271043   5.679   0.093   0.002  0.6719 -0.4941 -0.3428
16543TIP3    H171044   5.598   0.056   0.036 -0.0927  1.1897 -0.2420
16543TIP3    H271045   5.651   0.163  -0.056  2.0456  0.9359  0.6357
16544TIP3   OH271046   4.173   6.727   5.918 -0.2962 -0.2424 -0.8031
16544TIP3    H171047   4.139   6.726   6.007  3.7574  1.8992  1.0344
16544TIP3    H271048   4.136   6.807   5.879 -1.0090 -0.4487 -0.5513
16545TIP3   OH271049   1.899   5.340   6.730 -0.0933  0.6234  0.5699
16545TIP3    H171050   1.896   5.278   6.657 -1.5635  1.2697  0.0422
16545TIP3    H271051   1.986   5.328   6.769  0.0872 -0.9151 -0.2464
16546TIP3   OH271052   1.105   5.329  14.524 -0.0759  0.3027  0.3920
16546TIP3    H171053   1.052   5.408  14.519 -0.6460 -0.1129 -0.5885
16546TIP3    H271054   1.042   5.257  14.523  0.4844 -0.2074 -0.7986
16547TIP3   OH271055   5.575   5.230   2.319 -0.2684  0.4738 -0.1171
16547TIP3    H171056   5.583   5.274   2.403 -0.4652 -0.8234  0.6138
16547TIP3    H271057   5.481   5.217   2.307 -0.2456  0.6946 -0.5695
16548TIP3   OH271058   6.070   2.720  14.479 -0.0312  0.3448  0.7371
16548TIP3    H171059   6.001   2.762  14.429  1.1535  2.1959  0.5841
16548TIP3    H271060   6.057   2.626  14.464 -1.6905  0.7180 -0.3282
16549TIP3   OH271061   1.748   3.251   1.268 -0.4896  0.0687 -0.2876
16549TIP3    H171062   1.834   3.213   1.285  0.4852  2.2164 -0.1629
16549TIP3    H271063   1.766   3.328   1.213 -2.2674  0.8462  0.1503
16550TIP3   OH271064   4.503   4.269   0.326 -0.2607  0.5042  0.0046
16550TIP3    H171065   4.545   4.349   0.357  0.3035  1.1561 -2.2706
16550TIP3    H271066   4.476   4.288   0.236 -2.1726 -1.1241  0.1509
16551TIP3   OH271067   3.045   0.820  13.262  0.0208  0.4262  0.0707
16551TIP3    H171068   2.962   0.846  13.302 -0.5315 -0.4285 -0.4830
16551TIP3    H271069   3.065   0.891  13.200 -0.4898  0.4558 -0.0642
16552TIP3   OH271070   0.735   1.466   4.286  0.4747  0.0889  0.2297
16552TIP3    H171071   0.678   1.523   4.337 -0.4469 -1.9509  1.5986
16552TIP3    H271072   0.770   1.404   4.349  2.5356 -0.0780 -0.9723
16553TIP3   OH271073   5.240   2.241  14.550  0.2570 -0.2783 -0.1393
16553TIP3    H171074   5.268   2.155  14.521 -1.5919 -0.7122 -0.7631
16553TIP3    H271075   5.229   2.232  14.645  1.5988 -0.2377  0.0449
16554TIP3   OH271076   4.950   0.278  13.938  0.0923  0.2852 -0.4081
16554TIP3    H171077   4.974   0.247  14.025 -0.5498 -0.7729 -0.5996
16554TIP3    H271078   4.891   0.351  13.954  0.6006  0.6057  0.0402
16555TIP3   OH271079   0.615   4.914   5.792  0.1213  0.2376 -0.5787
16555TIP3    H171080   0.539   4.859   5.772 -1.3169  2.0098 -0.3603
16555TIP3    H271081   0.608   4.931   5.886  0.0632  1.3722 -0.7670
16556TIP3   OH271082   2.810   6.317  14.281 -0.2985  0.3877 -0.5051
16556TIP3    H171083   2.894   6.286  14.315 -0.2062  0.9720 -0.1867
16556TIP3    H271084   2.748   6.249  14.304  0.2350 -0.4411 -1.4654
16557TIP3   OH271085   6.410   5.744   6.442 -0.2871  0.7666 -0.1394
16557TIP3    H171086   6.500   5.712   6.450 -0.6046 -0.6834 -1.8236
16557TIP3    H271087   6.401   5.807   6.514  2.7229  2.5626 -1.1633
16558TIP3   OH271088   2.970   0.784  13.692 -0.7592  0.8241  1.0282
16558TIP3    H171089   2.904   0.825  13.635 -1.0147 -0.1226  0.6209
16558TIP3    H271090   2.921   0.760  13.770 -0.7314  0.8169  1.0428
16559TIP3   OH271091   5.922   5.487  12.415 -0.2254 -0.2691 -0.2820
16559TIP3    H171092   6.002   5.518  12.373 -0.4771 -1.2921 -1.5827
16559TIP3    H271093   5.851   5.515  12.357 -0.5866 -1.6780 -0.5666
16560TIP3   OH271094   5.595   5.448   2.513  0.1373  0.4495 -1.1460
16560TIP3    H171095   5.559   5.383   2.574  1.0254 -0.8748 -1.9943
16560TIP3    H271096   5.527   5.516   2.509 -0.4186  0.0440  0.4600
16561TIP3   OH271097   3.121   5.332   1.509 -0.1438 -0.1580  0.4674
16561TIP3    H171098   3.136   5.405   1.449  0.0311 -0.8638 -0.3706
16561TIP3    H271099   3.026   5.321   1.510 -0.1813  0.1624  0.7079
16562TIP3   OH271100   6.663   4.697   0.280 -0.5166 -0.1002  0.3228
16562TIP3    H171101   6.632   4.735   0.197  0.1033  0.7343  0.4597
16562TIP3    H271102   6.602   4.729   0.346 -0.2893  0.2552  0.3636
16563TIP3   OH271103   1.375   3.253  14.251 -0.6268  0.1926  0.3305
16563TIP3    H171104   1.336   3.222  14.169 -0.2022  0.1994  0.1238
16563TIP3    H271105   1.402   3.173  14.296 -2.4832  0.0520  1.3083
16564TIP3   OH271106   3.132   2.091  11.877 -0.1016  0.0242 -0.0509
16564TIP3    H171107   3.098   2.024  11.936 -2.0217  0.6744 -0.3539
16564TIP3    H271108   3.079   2.084  11.798  1.9770 -0.3880 -1.5016
16565TIP3   OH271109   1.650   2.013   2.633  0.0741  0.0844  0.0536
16565TIP3    H171110   1.702   2.086   2.600 -0.1590  0.0255 -0.4635
16565TIP3    H271111   1.655   1.947   2.564 -1.5464  0.4921 -0.4899
16566TIP3   OH271112   2.917   4.023  13.344  0.2070  0.2221 -0.8834
16566TIP3    H171113   2.975   3.972  13.288  1.4972  0.8101 -0.1316
16566TIP3    H271114   2.868   4.079  13.284 -0.4353 -1.0864 -1.6230
16567TIP3   OH271115   1.589   3.433   0.785 -0.5829  0.3331  0.1500
16567TIP3    H171116   1.564   3.499   0.721  1.3060 -0.0549 -1.0610
16567TIP3    H271117   1.586   3.350   0.737 -0.2978 -0.1315  0.9100
16568TIP3   OH271118   4.947   3.129   1.130  0.1836 -0.5845  0.1970
16568TIP3    H171119   4.906   3.097   1.049  1.6525 -0.3142 -0.6911
16568TIP3    H271120   4.901   3.211   1.148  0.3508 -0.2521 -0.8074
16569TIP3   OH271121   1.458   6.717   5.741  0.1114  0.0365 -0.0315
16569TIP3    H171122   1.431   6.625   5.742  0.7597 -0.1813 -1.0222
16569TIP3    H271123   1.421   6.754   5.821 -0.9307 -0.8665 -0.0765
16570TIP3   OH271124   5.162   3.429  16.071  0.1576 -0.4748 -0.1432
16570TIP3    H171125   5.252   3.400  16.054 -0.1357 -1.4096 -0.2059
16570TIP3    H271126   5.158   3.518  16.038  0.4414 -1.1833 -2.2740
16571TIP3   OH271127   3.714   4.403  13.514 -0.0110 -0.1095 -0.3826
16571TIP3    H171128   3.722   4.396  13.419  0.7299 -1.9320 -0.2253
16571TIP3    H271129   3.801   4.427  13.544  0.2989 -1.5482 -0.0444
16572TIP3   OH271130   0.200   5.738   2.568  0.1801  0.2681 -0.0090
16572TIP3    H171131   0.249   5.818   2.591  1.3785 -0.2477 -0.6813
16572TIP3    H271132   0.246   5.703   2.492 -2.2947  0.6805 -1.8348
16573TIP3   OH271133   2.220   3.891  12.227  0.4735 -0.1380 -0.2226
16573TIP3    H171134   2.248   3.976  12.260 -1.8526  0.6763 -0.1969
16573TIP3    H271135   2.125   3.889  12.242  0.5613 -3.1433  0.6931
16574TIP3   OH271136   1.130   4.250   1.319 -0.5211 -0.1962  1.1906
16574TIP3    H171137   1.085   4.268   1.236  1.7731  0.5224  0.0149
16574TIP3    H271138   1.122   4.155   1.331  1.1559 -0.7093 -1.1783
16575TIP3   OH271139   3.995   6.304   5.398 -0.3969 -0.1937  0.0706
16575TIP3    H171140   3.962   6.359   5.327  1.1508 -0.8343 -1.1802
16575TIP3    H271141   3.935   6.322   5.471 -2.5355 -0.1430 -1.5999
16576TIP3   OH271142   4.785   5.369   2.514  0.3588  0.3356 -0.0658
16576TIP3    H171143   4.770   5.318   2.593  1.4286 -1.8198 -1.1842
16576TIP3    H271144   4.732   5.448   2.526 -0.5555 -0.5513  2.1826
16577TIP3   OH271145   2.355   3.816  15.610 -0.3975 -0.1869  0.0398
16577TIP3    H171146   2.415   3.890  15.615  1.0173 -1.2874  0.1766
16577TIP3    H271147   2.412   3.739  15.617 -1.8528 -1.2839  0.2924
16578TIP3   OH271148   3.507   4.249   2.254  0.4820 -0.1231 -0.0095
16578TIP3    H171149   3.573   4.256   2.323 -0.5331 -0.4674  1.0316
16578TIP3    H271150   3.436   4.306   2.283  1.0787  1.8224 -2.0881
16579TIP3   OH271151   3.658   4.529   3.793 -0.4462  0.1148 -0.0841
16579TIP3    H171152   3.680   4.516   3.700  0.8043 -1.3119  0.3674
16579TIP3    H271153   3.571   4.492   3.803 -0.3033 -0.3509 -0.5492
16580TIP3   OH271154   0.837   2.147   4.501  0.1496  0.3501 -0.1021
16580TIP3    H171155   0.859   2.156   4.594  0.5958 -1.5208  0.0160
16580TIP3    H271156   0.747   2.181   4.495 -0.4165 -0.7739  1.3095
16581TIP3   OH271157   0.427   5.123   0.659 -0.4675 -0.1630  0.3064
16581TIP3    H171158   0.512   5.099   0.695  0.3936  0.8973 -0.9271
16581TIP3    H271159   0.397   5.044   0.614  0.6333 -0.0662 -0.6313
16582TIP3   OH271160   4.692   1.674   6.277  0.1519 -0.3826 -0.4275
16582TIP3    H171161   4.686   1.717   6.362 -1.1479  1.4408 -1.3650
16582TIP3    H271162   4.786   1.666   6.261  0.4359  0.9155  0.4131
16583TIP3   OH271163   5.081   1.943   4.193 -0.0480  0.5902  0.1271
16583TIP3    H171164   5.018   1.961   4.263  2.1254  0.1496  2.3830
16583TIP3    H271165   5.147   2.013   4.202  0.6773  0.0668 -0.9624
16584TIP3   OH271166   6.546   6.745  12.184 -0.8942 -0.0117  0.2435
16584TIP3    H171167   6.530   6.830  12.224 -1.6320 -0.5482  1.1541
16584TIP3    H271168   6.491   6.745  12.106  0.5754  1.0555 -0.8444
16585TIP3   OH271169   3.475   3.503  16.646 -0.5101 -0.6505  0.0034
16585TIP3    H171170   3.443   3.470  16.562 -0.1081 -2.2177  0.4202
16585TIP3    H271171   3.570   3.489  16.642 -0.5550 -1.2828  0.9287
16586TIP3   OH271172   3.478   2.376   3.732  0.0209 -0.3330  0.2166
16586TIP3    H171173   3.444   2.448   3.678 -0.2948 -0.4463  0.2656
16586TIP3    H271174   3.520   2.317   3.669  0.6012  0.0741  0.2159
16587TIP3   OH271175   2.601   6.284  15.688 -0.2419  0.2739  0.9201
16587TIP3    H171176   2.530   6.347  15.694  0.5760  1.2860  0.3357
16587TIP3    H271177   2.667   6.315  15.751  0.1226 -0.0557  0.7080
16588TIP3   OH271178   0.573   3.401  10.968 -0.5985 -0.0759 -0.2574
16588TIP3    H171179   0.615   3.316  10.952  0.4411  0.4580 -0.4562
16588TIP3    H271180   0.571   3.444  10.883  0.3329  0.7224  0.0990
16589TIP3   OH271181   0.451   4.645   3.854 -0.5580 -0.1433 -0.2363
16589TIP3    H171182   0.406   4.595   3.786  1.0417 -0.1303 -1.3459
16589TIP3    H271183   0.537   4.664   3.817  0.1355  0.3944  1.5592
16590TIP3   OH271184   3.075   1.099  15.606  0.1260  0.3054 -0.7187
16590TIP3    H171185   3.021   1.113  15.528 -0.1362 -1.7889 -0.9781
16590TIP3    H271186   3.013   1.101  15.679  0.2737  1.5757 -0.6028
16591TIP3   OH271187   4.896   3.137   1.508  0.2464 -0.0832  0.2842
16591TIP3    H171188   4.877   3.060   1.560  1.1340 -0.6258 -0.1854
16591TIP3    H271189   4.958   3.108   1.442 -1.2963  0.4151 -1.5026
16592TIP3   OH271190   4.485   5.544   1.602 -0.6293  0.2661 -0.2199
16592TIP3    H171191   4.421   5.555   1.531 -1.0559  0.1752  0.1497
16592TIP3    H271192   4.437   5.569   1.681 -0.1677  0.3171  0.0445
16593TIP3   OH271193   4.269   0.417   0.826 -0.3060 -0.6867  0.4320
16593TIP3    H171194   4.288   0.376   0.741 -1.5779 -0.8741  0.2133
16593TIP3    H271195   4.350   0.406   0.876  1.4672  1.8218 -1.6274
16594TIP3   OH271196   2.340   0.987   2.263  0.3473 -0.5175 -0.2109
16594TIP3    H171197   2.286   1.066   2.266  1.1112  0.0146 -0.2457
16594TIP3    H271198   2.346   0.965   2.170  3.4739  1.7705 -0.7201
16595TIP3   OH271199   1.543   5.316   0.517  0.1728  0.3947  0.2674
16595TIP3    H171200   1.559   5.387   0.579 -1.6019  1.2347 -0.1943
16595TIP3    H271201   1.568   5.237   0.565 -1.5205  0.9771  2.2211
16596TIP3   OH271202   2.714   0.821   1.372  0.6044  0.3263 -1.0312
16596TIP3    H171203   2.784   0.762   1.401  0.2374  0.5197  0.3404
16596TIP3    H271204   2.641   0.763   1.352  0.1310  0.2960  0.6479
16597TIP3   OH271205   2.893   2.812   5.304 -0.7608 -0.1783  0.3119
16597TIP3    H171206   2.905   2.893   5.354  0.8373 -0.3501  0.2669
16597TIP3    H271207   2.982   2.786   5.280 -1.3185 -1.4976 -0.4016
16598TIP3   OH271208   5.621   3.223   4.649  0.0165  0.4585 -0.9510
16598TIP3    H171209   5.625   3.159   4.720 -0.1928  1.0652 -0.3834
16598TIP3    H271210   5.591   3.173   4.573  1.1635 -0.3934 -0.8530
16599TIP3   OH271211   3.805   1.403   2.044 -0.0810 -0.3279 -0.4439
16599TIP3    H171212   3.789   1.375   2.134  1.1298 -0.3213 -0.2012
16599TIP3    H271213   3.721   1.392   2.000 -0.8984  0.3651  0.8640
16600TIP3   OH271214   5.687   4.630  12.252 -0.7328  0.2261  0.3729
16600TIP3    H171215   5.766   4.632  12.198  0.6925 -1.7139  2.2079
16600TIP3    H271216   5.695   4.706  12.309 -0.0800 -0.0408  0.6501
16601TIP3   OH271217   2.750   1.002  16.392  0.4646  0.4023 -1.0267
16601TIP3    H171218   2.757   1.039  16.304  0.3416  0.2220 -1.1131
16601TIP3    H271219   2.787   1.069  16.449 -0.3516  0.9491 -1.1183
16602TIP3   OH271220   0.332   0.873   4.337  0.2560 -0.5469 -0.9118
16602TIP3    H171221   0.382   0.871   4.420 -1.5147 -0.9608  0.1935
16602TIP3    H271222   0.308   0.781   4.322 -1.0305 -0.2258 -0.8705
16603TIP3   OH271223   1.638   0.775  14.550  0.4608  0.3409  0.3827
16603TIP3    H171224   1.593   0.702  14.508  0.8234  0.0796  0.4498
16603TIP3    H271225   1.725   0.742  14.570  0.4754  0.6448  0.8350
16604TIP3   OH271226   4.190   4.182  10.268 -0.8302  0.2375 -0.2168
16604TIP3    H171227   4.261   4.238  10.237  0.5028 -0.5569  1.2917
16604TIP3    H271228   4.112   4.238  10.261  0.3339  2.0647  0.5364
16605TIP3   OH271229   4.148   5.406   3.607 -0.1254  0.2171 -0.2897
16605TIP3    H171230   4.150   5.334   3.545 -1.3942  0.1373 -0.2662
16605TIP3    H271231   4.183   5.481   3.559 -2.8582  0.6560 -1.8403
16606TIP3   OH271232   3.853   5.037   4.622 -0.0570  0.5835 -0.5206
16606TIP3    H171233   3.890   4.985   4.694 -1.8562  0.1857  0.1559
16606TIP3    H271234   3.802   4.974   4.570  0.6725  1.0017 -1.7980
16607TIP3   OH271235   1.145   0.393  12.300 -0.1102  0.1775  0.2000
16607TIP3    H171236   1.064   0.419  12.342 -0.3336 -0.4857  0.1794
16607TIP3    H271237   1.119   0.365  12.212 -0.1431 -1.9319  0.8401
16608TIP3   OH271238   4.703   2.187   4.397 -0.4050 -0.2907 -0.3390
16608TIP3    H171239   4.784   2.204   4.446  0.2454 -1.0078 -1.1367
16608TIP3    H271240   4.672   2.274   4.372 -0.9328  0.1203  1.5903
16609TIP3   OH271241   0.290   2.567   1.090  0.0647  0.6831  0.3240
16609TIP3    H171242   0.378   2.546   1.121 -0.2240  1.0386  1.4152
16609TIP3    H271243   0.283   2.521   1.006  1.2760  0.6348  0.2336
16610TIP3   OH271244   3.700   1.701   1.065 -0.1428  0.2820  0.1119
16610TIP3    H171245   3.693   1.608   1.085  1.5462  0.7350  3.4149
16610TIP3    H271246   3.624   1.741   1.107  0.6597  0.6728  1.2301
16611TIP3   OH271247   2.183   1.720  13.708 -0.1218 -0.1552  0.8446
16611TIP3    H171248   2.172   1.810  13.739  0.3920  0.0890  0.3379
16611TIP3    H271249   2.271   1.695  13.738  0.5510  0.2214 -0.6932
16612TIP3   OH271250   2.247   4.935  16.082 -0.1963 -0.2515  0.0315
16612TIP3    H171251   2.307   4.860  16.075  1.3252  0.7589  1.4769
16612TIP3    H271252   2.298   5.010  16.051 -0.6728  0.6562  1.3560
16613TIP3   OH271253   0.429   1.152  13.251 -0.3188  0.0263  0.1389
16613TIP3    H171254   0.434   1.238  13.292 -2.2133  0.1353  0.2242
16613TIP3    H271255   0.503   1.149  13.191 -0.8611  2.1942 -0.7336
16614TIP3   OH271256   3.134   3.129  15.803  0.0889 -0.1687 -0.4026
16614TIP3    H171257   3.218   3.110  15.760  0.7572 -1.2303  1.2482
16614TIP3    H271258   3.157   3.189  15.874 -0.8398  0.8327 -0.9189
16615TIP3   OH271259   5.465   0.267  15.523  0.2697 -0.8086 -0.1263
16615TIP3    H171260   5.487   0.283  15.615  2.5530  0.3736 -0.7925
16615TIP3    H271261   5.384   0.315  15.509 -0.0269 -0.8778  1.2348
16616TIP3   OH271262   2.231   2.535   1.494 -0.1171 -0.4900  0.8935
16616TIP3    H171263   2.327   2.529   1.491 -0.0816 -0.3861  1.6213
16616TIP3    H271264   2.208   2.588   1.418  0.4823  0.3650  1.2849
16617TIP3   OH271265   1.442   3.663  14.106 -0.1468 -0.3281 -0.2182
16617TIP3    H171266   1.441   3.705  14.191 -2.1023 -0.1919 -0.2665
16617TIP3    H271267   1.522   3.609  14.106  1.1823  1.5540  0.7050
16618TIP3   OH271268   0.483   1.524   2.773 -0.6441 -1.1198 -0.2006
16618TIP3    H171269   0.457   1.452   2.716 -0.6695 -0.5219 -0.9590
16618TIP3    H271270   0.579   1.525   2.769 -0.6605 -0.8110 -0.5782
16619TIP3   OH271271   0.972   1.391   4.101  0.0726 -0.0857 -0.3848
16619TIP3    H171272   0.919   1.390   4.022 -1.4610 -4.0822  0.4529
16619TIP3    H271273   0.912   1.361   4.170  1.8622  1.3292  1.9324
16620TIP3   OH271274   1.906   5.650  14.509 -0.1233 -0.7563  0.1416
16620TIP3    H171275   1.868   5.735  14.488  0.2325 -0.6743 -0.1853
16620TIP3    H271276   1.869   5.627  14.594 -0.6697 -0.5417 -0.0353
16621TIP3   OH271277   1.233   5.068   5.480  0.1321 -0.0688  0.1295
16621TIP3    H171278   1.241   5.111   5.394  0.2888  0.6603  0.5000
16621TIP3    H271279   1.295   5.115   5.536 -0.1964 -0.3316  0.7229
16622TIP3   OH271280   6.389   6.698  10.966  0.0307  0.0681 -0.0777
16622TIP3    H171281   6.327   6.629  10.992  1.1166 -0.8277  0.2257
16622TIP3    H271282   6.355   6.777  11.007 -1.5413 -0.1657 -0.8597
16623TIP3   OH271283   2.208   3.188  14.374  0.3230 -0.1550  0.7178
16623TIP3    H171284   2.194   3.203  14.280 -0.5183 -0.8042  0.7357
16623TIP3    H271285   2.189   3.273  14.414  1.0449  0.2316  0.2812
16624TIP3   OH271286   2.217   2.709   2.017 -0.0973  0.0897 -0.0581
16624TIP3    H171287   2.287   2.702   1.953 -0.0941 -0.4794  0.0082
16624TIP3    H271288   2.230   2.635   2.076 -2.2964 -1.6281 -1.5800
16625TIP3   OH271289   0.015   2.478   1.579  0.1391 -0.3650  0.2506
16625TIP3    H171290   0.062   2.395   1.583  0.1931 -0.3437  0.0663
16625TIP3    H271291   0.076   2.542   1.618 -0.2243 -0.5514  1.1547
16626TIP3   OH271292   4.830   5.322  13.763 -0.0297 -0.6937 -0.4545
16626TIP3    H171293   4.830   5.328  13.668 -0.6038 -0.7020 -0.4636
16626TIP3    H271294   4.755   5.376  13.790  0.4227 -0.2916  0.0209
16627TIP3   OH271295   2.662   0.383   1.706  0.2709  0.0707  1.0048
16627TIP3    H171296   2.723   0.450   1.739  0.1727 -0.1658  1.6901
16627TIP3    H271297   2.700   0.300   1.736  1.9751 -0.4978 -2.2759
16628TIP3   OH271298   3.192   1.328   4.094 -0.2154  0.5492  0.1937
16628TIP3    H171299   3.221   1.385   4.166  0.8768  0.8852 -0.4824
16628TIP3    H271300   3.231   1.243   4.114  2.0483  1.1923 -1.1243
16629TIP3   OH271301   2.721   4.412  12.771  0.2002  0.2161 -0.2047
16629TIP3    H171302   2.684   4.337  12.817 -0.7852  0.0269 -1.2666
16629TIP3    H271303   2.647   4.450  12.724  0.1548  3.2239  2.0377
16630TIP3   OH271304   6.015   0.017   2.542 -0.1744  0.2175 -0.0560
16630TIP3    H171305   6.025   0.072   2.465  1.4863 -0.5235 -0.4058
16630TIP3    H271306   5.931   0.044   2.580  0.3519  2.6262 -0.4763
16631TIP3   OH271307   0.146   4.046   3.002 -0.4887  0.4304  0.1332
16631TIP3    H171308   0.217   4.030   2.940 -0.5081  0.4214  0.1131
16631TIP3    H271309   0.107   3.960   3.016 -1.3055  0.6165 -0.8342
16632TIP3   OH271310   4.047   3.189  11.633  0.2931  0.4369  0.4401
16632TIP3    H171311   4.078   3.202  11.543  0.4983  1.1920  0.6100
16632TIP3    H271312   3.989   3.114  11.628  0.6934  0.1637 -0.2356
16633TIP3   OH271313   2.259   5.516   4.941  0.0628  0.3584 -0.2079
16633TIP3    H171314   2.187   5.458   4.916 -0.6825  0.2339  1.9923
16633TIP3    H271315   2.269   5.503   5.036  2.2634  1.2039 -0.2613
16634TIP3   OH271316   6.573   6.208  13.526 -0.9559  0.0720 -0.4659
16634TIP3    H171317   6.589   6.117  13.501 -2.6129  0.2680 -2.5029
16634TIP3    H271318   6.513   6.202  13.599 -1.7194 -0.4874 -1.1219
16635TIP3   OH271319   4.607   1.070   4.404  0.1172 -0.0014  0.1860
16635TIP3    H171320   4.566   1.003   4.350  0.4550 -1.0384  1.1667
16635TIP3    H271321   4.694   1.080   4.368  0.4042 -0.8219  0.6163
16636TIP3   OH271322   4.404   3.370  11.224 -0.2862 -0.7565  0.0328
16636TIP3    H171323   4.345   3.349  11.152 -1.9827  0.1739  1.0799
16636TIP3    H271324   4.432   3.285  11.258  0.3556 -1.2056 -1.5414
16637TIP3   OH271325   6.545   6.079   0.016 -0.7551  0.6491  0.2908
16637TIP3    H171326   6.515   6.057  -0.072  0.0914  0.4827  0.0365
16637TIP3    H271327   6.589   6.163   0.006  1.1308 -0.3024  0.1409
16638TIP3   OH271328   6.578   1.618  15.687  0.1068 -0.0749  0.2716
16638TIP3    H171329   6.579   1.701  15.640 -1.9081  0.0815  0.4420
16638TIP3    H271330   6.606   1.553  15.622 -1.9380  0.2417 -0.9988
16639TIP3   OH271331   4.178   0.769  11.401 -0.2381  0.6136  0.3941
16639TIP3    H171332   4.130   0.775  11.318  1.8461  0.3602 -0.9148
16639TIP3    H271333   4.112   0.786  11.468 -1.8679  1.5522 -1.3392
16640TIP3   OH271334   1.588   5.832  13.368 -0.2966  0.4987 -0.6933
16640TIP3    H171335   1.553   5.869  13.286 -1.2189  1.3938  0.0616
16640TIP3    H271336   1.681   5.822  13.352 -0.2897  1.6292 -1.5279
16641TIP3   OH271337   0.994   3.562  16.038  0.1361  0.5187 -0.1690
16641TIP3    H171338   0.920   3.514  16.002  1.1563 -0.4060 -1.1329
16641TIP3    H271339   0.994   3.541  16.131  1.3614 -2.6454 -0.7462
16642TIP3   OH271340   2.256   3.958  16.650  0.4899  0.0862 -0.5314
16642TIP3    H171341   2.162   3.972  16.661  0.5707 -0.3499  0.9344
16642TIP3    H271342   2.297   4.032  16.696  0.8501 -1.3577  1.6371
16643TIP3   OH271343   1.248   3.356  14.616 -0.6446 -0.2427  0.0656
16643TIP3    H171344   1.234   3.412  14.540  2.3115  0.7887  0.1453
16643TIP3    H271345   1.176   3.293  14.613 -1.9058  1.1647 -2.2469
16644TIP3   OH271346   4.362   6.345  16.989  0.5657  0.0091  0.3455
16644TIP3    H171347   4.370   6.268  17.046 -0.0057  0.5090  1.1130
16644TIP3    H271348   4.292   6.397  17.029  1.3908  1.2505  0.2054
16645TIP3   OH271349   1.238   1.425   5.925 -0.9996  0.0822  0.2886
16645TIP3    H171350   1.323   1.467   5.929 -0.9964  0.5307 -2.4621
16645TIP3    H271351   1.187   1.466   5.995  0.7865  0.2696  1.5483
16646TIP3   OH271352   5.187   0.641   2.568 -0.3491  0.6641  0.5196
16646TIP3    H171353   5.138   0.618   2.489  0.3135  0.8737  0.0422
16646TIP3    H271354   5.212   0.733   2.554  1.6738  0.0636 -0.0329
16647TIP3   OH271355   4.322   5.457   3.011 -0.4917  0.0475 -0.4697
16647TIP3    H171356   4.253   5.514   3.046  0.6447  0.5773  1.0208
16647TIP3    H271357   4.395   5.467   3.073  1.3772  0.4107 -2.6260
16648TIP3   OH271358   4.531   1.164   1.758  0.0053  0.0932  0.2300
16648TIP3    H171359   4.590   1.175   1.832  0.5454 -1.7649  0.1302
16648TIP3    H271360   4.443   1.162   1.797  0.2666 -0.5557  0.8121
16649TIP3   OH271361   6.467   2.805  13.308  0.0278  0.0540 -0.0668
16649TIP3    H171362   6.448   2.886  13.261 -0.6520  0.4105  0.7911
16649TIP3    H271363   6.448   2.736  13.246 -2.0218  0.4751  0.0399
16650TIP3   OH271364   2.361   3.350   5.022  0.5323 -0.5679  0.3031
16650TIP3    H171365   2.361   3.281   5.088  1.6205 -1.1062 -0.2287
16650TIP3    H271366   2.359   3.431   5.073 -1.5353 -0.9616  0.9142
16651TIP3   OH271367   1.725   3.133  17.243 -0.0530 -0.1411  0.1692
16651TIP3    H171368   1.761   3.220  17.225  1.4620 -0.7986 -0.1146
16651TIP3    H271369   1.713   3.093  17.157 -0.6712 -0.2461  0.2995
16652TIP3   OH271370   4.561   4.243   1.102  0.2903 -0.5842  0.1533
16652TIP3    H171371   4.613   4.182   1.156 -1.7452 -2.4076  0.2163
16652TIP3    H271372   4.530   4.189   1.030 -0.2514  0.8435 -0.7075
16653TIP3   OH271373   2.623   4.482   4.016 -0.4566 -0.3926  0.3083
16653TIP3    H171374   2.679   4.493   3.940  1.0970  0.5872  1.5401
16653TIP3    H271375   2.585   4.569   4.032 -2.3196 -1.0054 -0.4356
16654TIP3   OH271376   4.888   3.675   5.553  0.5757 -0.2419 -0.4362
16654TIP3    H171377   4.883   3.579   5.548  0.6728 -0.2399 -0.5523
16654TIP3    H271378   4.905   3.693   5.646  1.5609 -0.3771 -0.5801
16655TIP3   OH271379   6.648   3.522  16.746  0.1979  0.3773 -0.2020
16655TIP3    H171380   6.619   3.545  16.658 -1.5957 -1.3742 -0.1425
16655TIP3    H271381   6.732   3.479  16.734 -0.2133 -0.1846 -1.1233
16656TIP3   OH271382   1.939   5.702   2.892  0.6121  0.1268 -0.1045
16656TIP3    H171383   1.873   5.646   2.933  0.1052  1.5127  1.0226
16656TIP3    H271384   1.937   5.676   2.800 -0.2499 -1.0742  0.2200
16657TIP3   OH271385   3.579   1.063   1.807  0.4738 -0.4617  0.3970
16657TIP3    H171386   3.557   1.110   1.726  0.1066 -0.4154  0.5228
16657TIP3    H271387   3.674   1.070   1.813  0.4924 -0.3516  0.0364
16658TIP3   OH271388   1.482   1.590   5.853  0.9272  0.2883  0.4711
16658TIP3    H171389   1.530   1.508   5.870  1.1922  0.1498 -0.8521
16658TIP3    H271390   1.545   1.659   5.875  1.6861  0.1079 -1.0525
16659TIP3   OH271391   1.229   1.341  14.663  0.2917 -0.4155 -0.0837
16659TIP3    H171392   1.141   1.378  14.654  0.9847  1.7585  1.3578
16659TIP3    H271393   1.287   1.413  14.640  1.7178 -1.3454  0.4967
16660TIP3   OH271394   2.691   2.645   3.123 -0.7239 -0.2476  0.2191
16660TIP3    H171395   2.747   2.722   3.132 -1.2996  0.2301 -0.2443
16660TIP3    H271396   2.715   2.589   3.198  0.6859 -0.2610 -0.2122
16661TIP3   OH271397   3.238   4.155  15.841 -0.2092 -0.1458  0.1425
16661TIP3    H171398   3.329   4.164  15.868 -0.4646  2.5968  0.3643
16661TIP3    H271399   3.236   4.189  15.751 -0.7130 -2.0387 -0.6079
16662TIP3   OH271400   5.942   6.477   1.683 -0.1736 -0.2454  0.2884
16662TIP3    H171401   5.883   6.421   1.733  0.3678  0.7430  2.1014
16662TIP3    H271402   6.012   6.499   1.744  0.2821  1.3817 -0.7633
16663TIP3   OH271403   6.354   4.152  14.365 -0.0578 -0.1559  0.5626
16663TIP3    H171404   6.270   4.190  14.338 -0.6019 -1.9200 -0.4167
16663TIP3    H271405   6.330   4.092  14.436  0.6648  0.6679  1.5327
16664TIP3   OH271406   4.138   5.860  14.262  0.1945 -0.5890 -0.7777
16664TIP3    H171407   4.113   5.927  14.326 -1.1943  0.2418 -2.1301
16664TIP3    H271408   4.193   5.799  14.312 -1.5997 -0.5131  1.4569
16665TIP3   OH271409   6.134   2.252  15.230  0.2429  0.0605 -0.3107
16665TIP3    H171410   6.062   2.200  15.264  0.4761  0.1792  0.3695
16665TIP3    H271411   6.094   2.304  15.160 -0.1221 -0.5698 -0.5782
16666TIP3   OH271412   6.696   0.584   4.431 -0.4354 -0.2807  0.8038
16666TIP3    H171413   6.741   0.569   4.514  1.2640 -2.1916 -0.3735
16666TIP3    H271414   6.673   0.497   4.400  1.8945  0.0410 -2.2257
16667TIP3   OH271415   0.501   6.726  14.512 -0.0812 -0.5618  0.0060
16667TIP3    H171416   0.473   6.652  14.565 -0.6280 -0.2061  0.2239
16667TIP3    H271417   0.586   6.700  14.477 -1.0813 -2.0528 -1.4506
16668TIP3   OH271418   4.859   6.014   0.763  0.0210  0.7367 -0.0340
16668TIP3    H171419   4.794   5.944   0.763 -0.9282  1.5324  1.9234
16668TIP3    H271420   4.943   5.969   0.771 -0.4940 -0.2134  0.1191
16669TIP3   OH271421   6.114   5.769  12.472 -0.4682  0.1335 -0.2089
16669TIP3    H171422   6.182   5.793  12.534  0.6183 -0.2664 -1.2015
16669TIP3    H271423   6.051   5.840  12.477 -0.0401  0.4689  0.8052
16670TIP3   OH271424   4.761   4.665   6.322  0.3064  0.0514  0.6001
16670TIP3    H171425   4.831   4.730   6.314 -3.1092  4.0820 -0.6057
16670TIP3    H271426   4.765   4.636   6.413  1.2745  3.1469  1.6886
16671TIP3   OH271427   3.249   1.799  13.572 -0.3704  0.4522 -0.1014
16671TIP3    H171428   3.309   1.844  13.632 -1.3130  0.5177  0.8306
16671TIP3    H271429   3.224   1.720  13.619 -0.8722  0.3381 -0.5571
16672TIP3   OH271430   1.057   4.776  14.634  0.7609  0.6472  0.4473
16672TIP3    H171431   1.057   4.871  14.624  0.8129  0.8663  2.1420
16672TIP3    H271432   1.125   4.745  14.575  0.9564  1.6932  0.0995
16673TIP3   OH271433   3.857   0.196   4.160  0.2433  0.3989  0.2716
16673TIP3    H171434   3.919   0.156   4.221  0.5512 -0.5047 -0.6105
16673TIP3    H271435   3.907   0.206   4.079 -0.5818  0.2175 -0.2681
16674TIP3   OH271436   0.228   0.658  12.108 -0.1335  0.2882 -0.0185
16674TIP3    H171437   0.192   0.745  12.128 -2.4307 -0.2055 -1.5885
16674TIP3    H271438   0.170   0.597  12.153  0.4838 -0.4873 -0.2551
16675TIP3   OH271439   4.275   3.018   0.036  0.3826 -0.1786 -0.0430
16675TIP3    H171440   4.244   2.933   0.068 -2.5252  0.8604  0.0970
16675TIP3    H271441   4.295   3.001  -0.057  2.3068 -1.5538  0.5518
16676TIP3   OH271442   6.140   5.263   5.693  0.7408  0.0212 -0.1816
16676TIP3    H171443   6.110   5.278   5.603 -1.0560  0.1653  0.3925
16676TIP3    H271444   6.235   5.268   5.687  0.6755  0.0391 -2.0699
16677TIP3   OH271445   2.380   4.047   3.819  0.0262 -0.1011 -0.2880
16677TIP3    H171446   2.461   4.081   3.781 -0.2135 -1.3566 -2.0218
16677TIP3    H271447   2.374   3.957   3.788 -1.0309 -0.6972  1.4756
16678TIP3   OH271448   0.822   2.603   6.919  0.4202 -0.9783  0.0013
16678TIP3    H171449   0.766   2.600   6.840 -0.5409 -1.2605  0.6706
16678TIP3    H271450   0.827   2.511   6.947 -0.3927 -0.7243  1.0386
16679TIP3   OH271451   6.474   4.632   5.537 -0.0335 -0.1064 -0.0669
16679TIP3    H171452   6.507   4.626   5.626  1.6125 -1.6397 -0.7229
16679TIP3    H271453   6.553   4.634   5.482 -1.0043  0.4757 -1.5252
16680TIP3   OH271454   5.491   3.316  11.650 -0.6422 -0.4640 -0.2791
16680TIP3    H171455   5.506   3.241  11.592 -1.1938 -0.5055 -0.3664
16680TIP3    H271456   5.501   3.392  11.593 -1.3876 -0.5107 -0.4770
16681TIP3   OH271457   0.934   3.301   4.121  0.2028 -0.0581  0.4627
16681TIP3    H171458   0.998   3.372   4.126  0.6677 -0.4457  0.1199
16681TIP3    H271459   0.855   3.338   4.161 -0.2722  1.4153 -1.6683
16682TIP3   OH271460   5.442   6.524  13.334  0.4924  0.1020  0.2408
16682TIP3    H171461   5.373   6.533  13.268  0.0566  2.4623  0.9211
16682TIP3    H271462   5.436   6.434  13.364 -1.4015 -0.1181 -0.7048
16683TIP3   OH271463   2.386   0.663  14.478 -0.5332 -0.1375  0.0026
16683TIP3    H171464   2.329   0.601  14.524 -0.8270  0.3592  0.3088
16683TIP3    H271465   2.413   0.725  14.545  0.5914 -0.5127 -0.0807
16684TIP3   OH271466   0.728   4.193   3.223  0.1944 -0.6833 -0.4888
16684TIP3    H171467   0.648   4.227   3.184 -1.0820 -1.9370  0.8979
16684TIP3    H271468   0.698   4.139   3.297  2.2787 -1.7153 -0.3122
16685TIP3   OH271469   1.818   2.814   2.137 -0.1485 -0.0037  0.4732
16685TIP3    H171470   1.774   2.873   2.075 -1.3515 -1.3763 -0.0403
16685TIP3    H271471   1.758   2.808   2.211 -0.8730 -1.8540 -0.2061
16686TIP3   OH271472   5.980   5.025   4.783 -0.4685 -0.5932 -0.0301
16686TIP3    H171473   6.008   4.963   4.716  0.5874  0.6176 -0.7589
16686TIP3    H271474   5.901   5.066   4.746 -0.0838 -0.1717 -0.3949
16687TIP3   OH271475   3.936   4.604   1.099  0.3800 -0.1425 -0.2407
16687TIP3    H171476   3.934   4.533   1.163 -1.1242 -0.8378 -1.0055
16687TIP3    H271477   3.844   4.627   1.086  0.7646  1.1151 -0.9318
16688TIP3   OH271478   6.153   0.941  13.857 -0.1233 -0.0585  0.1019
16688TIP3    H171479   6.076   0.890  13.882 -1.4691  2.7586  2.2372
16688TIP3    H271480   6.224   0.905  13.910 -0.7118 -0.6070  0.5345
16689TIP3   OH271481   6.258   3.757  17.195 -0.6613 -0.1595  0.6016
16689TIP3    H171482   6.272   3.766  17.289  1.2972  0.2544  0.3190
16689TIP3    H271483   6.193   3.825  17.174  0.0476  0.8138  1.4329
16690TIP3   OH271484   1.713   0.939  14.167  0.1983 -0.2598 -0.5050
16690TIP3    H171485   1.803   0.945  14.201  0.0753 -2.3240  0.3122
16690TIP3    H271486   1.669   1.015  14.204  0.0393 -2.3242  4.3574
16691TIP3   OH271487   0.233   6.196  11.218 -0.0902 -0.4008  0.2267
16691TIP3    H171488   0.259   6.115  11.262  1.0473 -0.8450 -1.1917
16691TIP3    H271489   0.151   6.173  11.173  1.2969 -1.4544 -1.9010
16692TIP3   OH271490   3.457   2.718   0.053  0.0489 -0.2260 -0.0518
16692TIP3    H171491   3.384   2.779   0.040  0.7040  0.4585 -0.6271
16692TIP3    H271492   3.517   2.765   0.111  0.1954 -0.6399  0.1301
16693TIP3   OH271493   4.813   5.757   0.338 -0.4229 -0.0731  0.3464
16693TIP3    H171494   4.818   5.662   0.342  1.4135 -0.0029  3.5949
16693TIP3    H271495   4.750   5.781   0.405 -0.8422  1.0163 -0.4138
16694TIP3   OH271496   1.668   4.618  15.742  0.0385  0.8277 -0.0233
16694TIP3    H171497   1.714   4.680  15.686 -0.6499  1.4851  0.1092
16694TIP3    H271498   1.579   4.615  15.706 -0.1152  0.4420  0.3811
16695TIP3   OH271499   3.341   5.988   5.718 -0.3641  0.0139  0.0490
16695TIP3    H171500   3.272   6.050   5.694  0.0043  1.2063  1.8803
16695TIP3    H271501   3.313   5.952   5.802 -1.2458 -3.4435 -1.5200
16696TIP3   OH271502   6.593   5.130  11.545 -0.0212  0.0747  0.2491
16696TIP3    H171503   6.592   5.066  11.474  0.2139 -0.5673  0.8141
16696TIP3    H271504   6.672   5.182  11.530 -0.8570  1.0602 -0.9179
16697TIP3   OH271505   3.902   5.821   2.475  0.4245 -0.5697  0.6584
16697TIP3    H171506   3.846   5.750   2.443  0.7738 -0.1163 -1.0713
16697TIP3    H271507   3.989   5.799   2.442  0.9119 -0.2952  1.7258
16698TIP3   OH271508   0.156   0.651  10.999 -0.0876  0.2116  0.6708
16698TIP3    H171509   0.109   0.570  10.981  0.0810  0.1465  0.5285
16698TIP3    H271510   0.111   0.717  10.946 -0.5079  0.2999  1.1271
16699TIP3   OH271511   5.004   5.113  14.258  0.4754  0.2132 -0.1225
16699TIP3    H171512   4.983   5.114  14.164 -0.7616 -1.8695  0.0818
16699TIP3    H271513   4.920   5.124  14.302  0.5575 -2.0284  0.7052
16700TIP3   OH271514   3.316   5.327  16.180 -0.0397 -0.1760 -0.2536
16700TIP3    H171515   3.264   5.289  16.251 -1.4169 -0.0027 -1.1355
16700TIP3    H271516   3.269   5.406  16.155 -1.0697 -1.5421 -3.0680
16701TIP3   OH271517   3.879   1.997   5.981  0.0488  0.1118 -0.4725
16701TIP3    H171518   3.939   2.033   5.916 -1.2622  1.2103 -1.1202
16701TIP3    H271519   3.935   1.974   6.056  1.8232 -2.4355 -2.3893
16702TIP3   OH271520   3.443   5.254   2.732  0.3048 -0.4590  0.1649
16702TIP3    H171521   3.436   5.161   2.709 -3.3511 -0.7568  1.7444
16702TIP3    H271522   3.424   5.300   2.650  1.5976 -1.0729 -0.5014
16703TIP3   OH271523   2.422   1.157   0.142  0.0174  0.2669 -0.4132
16703TIP3    H171524   2.366   1.227   0.110  1.9240  2.3600  0.5013
16703TIP3    H271525   2.471   1.128   0.065  0.1407  0.8802 -0.5735
16704TIP3   OH271526   1.904   2.614  13.005  0.1282 -0.0404 -0.0072
16704TIP3    H171527   1.890   2.571  12.921 -0.6920  0.5900 -0.2129
16704TIP3    H271528   1.885   2.547  13.071  1.3311 -0.7015 -0.3102
16705TIP3   OH271529   1.710   1.966  14.246  0.2263  0.1073 -0.2815
16705TIP3    H171530   1.743   1.887  14.202  2.3977  0.4453  0.6277
16705TIP3    H271531   1.675   1.934  14.329 -1.9009 -0.2497 -1.2423
16706TIP3   OH271532   0.335   1.545  16.442 -0.5695  0.4967  0.1354
16706TIP3    H171533   0.387   1.506  16.372 -0.6312  0.7363 -0.0445
16706TIP3    H271534   0.398   1.597  16.493 -0.0983 -1.2831  1.4845
16707TIP3   OH271535   5.442   3.954   1.102  0.4040 -0.2743 -0.4834
16707TIP3    H171536   5.490   4.036   1.110  2.3115 -1.0451 -2.8953
16707TIP3    H271537   5.508   3.886   1.117 -1.0785 -1.4449  1.2026
16708TIP3   OH271538   6.391   1.398  14.070 -0.7151  0.5086 -0.3390
16708TIP3    H171539   6.374   1.352  13.988 -0.6611 -0.7675  0.3449
16708TIP3    H271540   6.451   1.470  14.046  0.2855 -0.5900 -1.2257
16709TIP3   OH271541   5.285   2.506  14.175 -0.1064  0.1398  0.4217
16709TIP3    H171542   5.269   2.512  14.080 -2.0294  0.3037  0.7138
16709TIP3    H271543   5.354   2.569  14.192  0.3522  0.0187 -0.8904
16710TIP3   OH271544   3.414   5.954   4.703 -0.1215  0.0336 -0.0690
16710TIP3    H171545   3.337   5.968   4.758 -1.5928  1.0665 -2.2438
16710TIP3    H271546   3.441   6.042   4.677  1.2004 -0.3691 -0.1402
16711TIP3   OH271547   2.989   5.981   1.079 -0.1435 -0.5219  0.1033
16711TIP3    H171548   3.026   5.893   1.076 -0.8929 -0.8230 -1.4397
16711TIP3    H271549   2.894   5.968   1.070 -0.5186  0.3302  2.1869
16712TIP3   OH271550   4.582   0.670  12.637  0.0824  0.4969 -0.0281
16712TIP3    H171551   4.617   0.663  12.548  0.4501 -0.7422  0.2067
16712TIP3    H271552   4.601   0.761  12.663  0.4463  0.7122 -1.0034
16713TIP3   OH271553   4.849   6.375   4.450  0.6304  0.4747  0.1713
16713TIP3    H171554   4.754   6.388   4.444  0.4327 -1.0251 -0.2792
16713TIP3    H271555   4.876   6.429   4.524 -0.2458  2.5325 -0.9359
16714TIP3   OH271556   0.631   6.454  11.119  0.0538 -0.2500 -0.2259
16714TIP3    H171557   0.545   6.496  11.120  0.5526  0.8612  1.5603
16714TIP3    H271558   0.654   6.447  11.027 -1.8593 -0.4063 -0.7297
16715TIP3   OH271559   1.626   0.213  14.882  0.0872  0.5532 -0.7245
16715TIP3    H171560   1.659   0.295  14.845  1.2459  1.5159  2.1894
16715TIP3    H271561   1.560   0.240  14.945 -2.9826 -1.1134 -2.9319
16716TIP3   OH271562   1.646   3.051   0.910  0.0075 -0.1156 -0.1842
16716TIP3    H171563   1.737   3.028   0.888 -0.2751 -1.6185  0.1512
16716TIP3    H271564   1.621   3.113   0.841  1.6411  1.2332  0.3634
16717TIP3   OH271565   5.938   4.730  16.469 -0.0580 -0.1656 -0.5686
16717TIP3    H171566   5.928   4.811  16.520 -2.5852 -0.1724 -0.9156
16717TIP3    H271567   5.981   4.669  16.529 -0.7486  0.5653  0.7297
16718TIP3   OH271568   5.910   2.418   0.919  0.0739 -0.1932 -0.1554
16718TIP3    H171569   5.905   2.384   1.008 -2.2552  0.1118 -0.1127
16718TIP3    H271570   5.829   2.389   0.877 -0.6301  2.6625 -1.0246
16719TIP3   OH271571   6.136   3.044   2.571  0.5075 -0.2416  0.0360
16719TIP3    H171572   6.047   3.010   2.566  0.0253  0.8998  0.6240
16719TIP3    H271573   6.131   3.132   2.535  1.3529 -0.0856  0.2735
16720TIP3   OH271574   5.459   4.143   1.499 -0.4045  0.0480  0.5056
16720TIP3    H171575   5.387   4.119   1.440  0.4393 -0.3960 -0.3598
16720TIP3    H271576   5.520   4.069   1.494  0.0478  0.3459  1.3556
16721TIP3   OH271577   3.770   4.698   4.742  0.4997 -0.5914  0.5629
16721TIP3    H171578   3.825   4.623   4.720  2.6823  1.2524 -0.7169
16721TIP3    H271579   3.742   4.733   4.657  1.8859  1.6186  0.9118
16722TIP3   OH271580   0.013   1.347   3.806  0.5923 -0.7519  0.2941
16722TIP3    H171581   0.019   1.440   3.827  0.0971 -0.3647 -1.1705
16722TIP3    H271582  -0.055   1.314   3.863  2.8561 -0.9569  3.1068
16723TIP3   OH271583   3.715   4.529  16.221  0.1260  0.0109  0.3266
16723TIP3    H171584   3.694   4.541  16.314 -1.1972 -1.3900  0.2388
16723TIP3    H271585   3.807   4.505  16.220  0.5778  1.5533  1.1271
16724TIP3   OH271586   2.305   0.799  11.395 -0.0963  0.7674 -0.2153
16724TIP3    H171587   2.376   0.852  11.358  0.4061  1.5317  1.7065
16724TIP3    H271588   2.226   0.832  11.352  0.5962  0.4677 -1.7886
16725TIP3   OH271589   3.488   3.504  13.225  0.7345 -0.1462  0.1865
16725TIP3    H171590   3.579   3.520  13.249  0.3789  1.4417  0.5522
16725TIP3    H271591   3.455   3.448  13.295  0.9540  0.7513  1.0297
16726TIP3   OH271592   4.565   0.964   6.083 -0.3381  0.3728 -0.0971
16726TIP3    H171593   4.557   0.902   6.156 -0.2352  0.3134 -0.1353
16726TIP3    H271594   4.639   0.931   6.032  0.9633  1.6095  0.9351
16727TIP3   OH271595   0.574   4.644   0.543  0.0350 -0.0048 -0.0570
16727TIP3    H171596   0.581   4.552   0.568 -1.0642  0.1888  1.0776
16727TIP3    H271597   0.602   4.692   0.621  0.4879  0.6401 -0.5988
16728TIP3   OH271598   6.029   3.581  15.570 -0.1510 -0.5390  0.1020
16728TIP3    H171599   5.951   3.632  15.594  0.5245  0.1464  0.8977
16728TIP3    H271600   6.022   3.501  15.623 -1.1832 -1.2946 -1.1082
16729TIP3   OH271601   5.644   2.119   5.020  0.2277  0.3063 -0.2023
16729TIP3    H171602   5.635   2.153   5.109 -2.2572 -0.3679 -0.1255
16729TIP3    H271603   5.724   2.068   5.022 -0.1920 -0.3750  1.8984
16730TIP3   OH271604   0.878   2.261   1.798 -0.6295 -0.3289 -0.1772
16730TIP3    H171605   0.831   2.187   1.759 -0.8160 -0.7828  0.8888
16730TIP3    H271606   0.831   2.280   1.879  1.8830 -1.8200  1.7662
16731TIP3   OH271607   6.527   6.685  11.703 -0.0991 -0.0451 -0.5135
16731TIP3    H171608   6.479   6.602  11.707  0.2575 -0.2124  1.1583
16731TIP3    H271609   6.618   6.661  11.723 -0.3408  0.9683  2.1447
16732TIP3   OH271610   5.051   3.416  14.248  0.3731  0.5694 -0.2747
16732TIP3    H171611   5.000   3.466  14.311 -0.3782 -0.6783  0.1587
16732TIP3    H271612   5.142   3.423  14.280 -0.2224 -2.0305  2.5269
16733TIP3   OH271613   5.728   1.702  11.802 -0.0671  0.4961 -0.0529
16733TIP3    H171614   5.808   1.672  11.846 -0.7933  0.1781  1.0905
16733TIP3    H271615   5.702   1.780  11.852 -1.6079 -0.6013  0.9320
16734TIP3   OH271616   3.243   5.597   0.508  0.7904  0.0571  0.0515
16734TIP3    H171617   3.274   5.681   0.541  2.0400 -0.4928  0.3423
16734TIP3    H271618   3.163   5.579   0.557  1.1376  0.5426  0.8088
16735TIP3   OH271619   5.389   6.371   2.169  0.4661 -0.1497 -0.3955
16735TIP3    H171620   5.359   6.296   2.220  0.8205  0.7517  1.1966
16735TIP3    H271621   5.484   6.370   2.177  0.4673  0.5230 -0.2816
16736TIP3   OH271622   6.203   2.354   0.865 -0.4163  0.8601 -0.6147
16736TIP3    H171623   6.125   2.392   0.905 -0.9241  1.6707 -2.2754
16736TIP3    H271624   6.204   2.389   0.776  2.7435  2.2000 -0.1980
16737TIP3   OH271625   0.412   4.029  15.792  0.3050 -0.6872  0.0755
16737TIP3    H171626   0.365   3.957  15.835 -0.1482 -0.5710 -0.2137
16737TIP3    H271627   0.402   4.012  15.698  1.7980 -1.2645 -0.0118
16738TIP3   OH271628   4.652   4.498  10.768 -0.1760  0.2904 -0.2098
16738TIP3    H171629   4.734   4.448  10.760  1.3203  2.7780 -1.6165
16738TIP3    H271630   4.586   4.442  10.728  1.5326 -0.3471 -2.3159
16739TIP3   OH271631   4.647   6.090   0.955 -0.1160  0.9152 -0.4947
16739TIP3    H171632   4.733   6.056   0.931  0.3341  1.3255  0.4906
16739TIP3    H271633   4.664   6.150   1.028 -1.2995  0.5567  0.1020
16740TIP3   OH271634   5.501   5.846   3.952 -0.3621 -0.5275  0.4347
16740TIP3    H171635   5.440   5.908   3.992  0.7713  1.2565 -0.5155
16740TIP3    H271636   5.490   5.859   3.858 -0.8459 -2.5609  0.1465
16741TIP3   OH271637   1.547   0.118   2.170  0.1177 -0.2889 -0.3005
16741TIP3    H171638   1.639   0.135   2.151  1.1877 -3.0270  1.6456
16741TIP3    H271639   1.511   0.202   2.197  2.7488  0.4186  1.2746
16742TIP3   OH271640   6.010   6.444   4.601 -0.3542 -0.1505  0.6784
16742TIP3    H171641   5.984   6.398   4.521  0.6257  0.9799 -0.3297
16742TIP3    H271642   5.937   6.503   4.620 -0.5718 -0.3965  0.6078
16743TIP3   OH271643   3.653   4.615  15.908  0.0136  0.7463 -0.1085
16743TIP3    H171644   3.703   4.689  15.942  0.5536  1.4939 -2.3615
16743TIP3    H271645   3.705   4.538  15.935  0.4880  1.2866  0.5765
16744TIP3   OH271646   4.765   2.341   2.723  0.2875  0.0070  0.5242
16744TIP3    H171647   4.745   2.357   2.815  0.1097  1.2445  0.2847
16744TIP3    H271648   4.686   2.300   2.689  0.2610 -0.2318  0.8657
16745TIP3   OH271649   5.153   5.358   2.026  0.3245  0.3514 -0.0283
16745TIP3    H171650   5.220   5.391   1.966 -1.5965 -0.7238 -2.9718
16745TIP3    H271651   5.082   5.423   2.022  0.4565  0.6877  1.8274
16746TIP3   OH271652   0.786   5.078  15.811 -0.1371  0.5365  0.4057
16746TIP3    H171653   0.755   5.044  15.727 -0.7520 -0.1023  0.8817
16746TIP3    H271654   0.709   5.121  15.849  0.1408  0.8306  0.6399
16747TIP3   OH271655   0.989   2.175  14.624  0.0294  0.2234  0.5872
16747TIP3    H171656   0.938   2.101  14.593 -0.1530  0.6260 -0.0709
16747TIP3    H271657   1.021   2.219  14.545 -0.7118  1.4461  0.9332
16748TIP3   OH271658   2.939   1.771  12.950  0.6345  0.7435 -0.4415
16748TIP3    H171659   2.891   1.751  12.870 -1.8775  1.2357  0.8693
16748TIP3    H271660   2.986   1.852  12.930  0.3811  0.6398 -1.5226
16749TIP3   OH271661   4.566   0.443  15.658  0.2984 -0.0447  0.1510
16749TIP3    H171662   4.532   0.439  15.568  2.0489  0.4877 -0.5603
16749TIP3    H271663   4.500   0.494  15.706 -1.4440 -1.6444 -0.4154
16750TIP3   OH271664   4.353   5.707  15.135  1.0005  0.0318 -0.9086
16750TIP3    H171665   4.268   5.690  15.096  1.3600 -0.0508 -1.6636
16750TIP3    H271666   4.343   5.680  15.226  0.5217 -0.9371 -1.2370
16751TIP3   OH271667   0.325   2.055   2.691  0.0577  0.0894 -0.0572
16751TIP3    H171668   0.232   2.033   2.685 -0.1288  0.5157  1.1031
16751TIP3    H271669   0.366   1.978   2.730  0.1619  0.0051 -0.3256
16752TIP3   OH271670   3.868   6.055  12.715 -0.1928 -0.0489 -0.4057
16752TIP3    H171671   3.955   6.044  12.678  0.2668 -2.2555  1.1398
16752TIP3    H271672   3.866   6.146  12.746  0.3922  0.9724 -3.1237
16753TIP3   OH271673   0.696   2.155  13.482 -0.1297 -0.0405  0.0572
16753TIP3    H171674   0.622   2.215  13.488  0.7100  0.9468  0.8902
16753TIP3    H271675   0.725   2.162  13.390 -2.2240 -1.9439 -0.8566
16754TIP3   OH271676   5.697   3.560  13.036  0.0279  0.1303  0.1381
16754TIP3    H171677   5.621   3.548  13.094 -0.4326 -0.4222 -0.5712
16754TIP3    H271678   5.672   3.517  12.954  1.3025 -0.4696  0.0506
16755TIP3   OH271679   6.271   2.863   4.558 -0.0875 -0.2056 -0.1958
16755TIP3    H171680   6.265   2.769   4.542  0.3516 -0.4466  0.9653
16755TIP3    H271681   6.197   2.900   4.510 -2.0790 -1.4820  1.6962
16756TIP3   OH271682   2.083   4.838   1.753 -0.1149  0.1919  0.3928
16756TIP3    H171683   2.176   4.861   1.744  0.3281 -1.6746 -0.1742
16756TIP3    H271684   2.057   4.809   1.666 -0.6738 -1.1679  0.9812
16757TIP3   OH271685   3.831   6.407   2.055  0.4340 -0.0002 -0.3228
16757TIP3    H171686   3.771   6.467   2.100  0.6245  0.2265 -0.3663
16757TIP3    H271687   3.862   6.457   1.979 -0.0619 -0.4600 -0.8396
16758TIP3   OH271688   1.091   0.348  12.673 -0.6343  0.4830 -0.5078
16758TIP3    H171689   1.060   0.333  12.762 -2.3478 -0.5940 -1.2179
16758TIP3    H271690   1.068   0.439  12.654  0.8232  1.0853  0.5293
16759TIP3   OH271691   0.454   3.373  14.412 -0.4376  0.5457 -0.2134
16759TIP3    H171692   0.456   3.455  14.461 -1.4011 -0.0690  0.8883
16759TIP3    H271693   0.375   3.379  14.359  0.1798  0.8649 -1.1225
16760TIP3   OH271694   2.552   4.187  17.177  0.3728  0.0905 -0.2285
16760TIP3    H171695   2.612   4.138  17.121  0.0690 -0.8303  0.2303
16760TIP3    H271696   2.536   4.129  17.251 -0.7355  0.5136 -0.1241
16761TIP3   OH271697   4.851   2.103  14.575 -0.3272 -0.4556  0.2172
16761TIP3    H171698   4.906   2.133  14.503  0.7556 -2.4852  0.1202
16761TIP3    H271699   4.874   2.160  14.648  1.5366 -0.8936  0.0200
16762TIP3   OH271700   3.746   0.487   3.143  0.3244  0.3276 -0.4553
16762TIP3    H171701   3.725   0.517   3.055 -0.3562  2.4586  0.3613
16762TIP3    H271702   3.663   0.457   3.179  0.5525 -0.2997 -0.4300
16763TIP3   OH271703   3.459   6.644  12.064  0.4230  0.1939 -0.1847
16763TIP3    H171704   3.472   6.586  11.990  1.5534 -0.5384  0.5545
16763TIP3    H271705   3.364   6.655  12.070  0.3237  0.8268 -2.1265
16764TIP3   OH271706   0.642   2.468   2.628 -0.0366 -0.3665  0.1526
16764TIP3    H171707   0.570   2.410   2.653 -0.5835 -1.4324 -3.2857
16764TIP3    H271708   0.713   2.408   2.605  0.7237  0.5164  0.1662
16765TIP3   OH271709   3.663   4.700   1.458 -0.6802 -0.2954 -0.7632
16765TIP3    H171710   3.726   4.752   1.408 -0.9956  0.0550 -0.7967
16765TIP3    H271711   3.579   4.716   1.415 -0.7035 -1.2408 -1.0957
16766TIP3   OH271712   4.076   4.018  12.664 -0.1169  0.7919  0.0708
16766TIP3    H171713   4.080   3.943  12.722  1.0354 -0.6372 -1.7530
16766TIP3    H271714   4.162   4.060  12.673 -0.2472  1.0695  0.0383
16767TIP3   OH271715   2.315   3.959   1.544 -0.3488  0.3426 -0.2029
16767TIP3    H171716   2.375   3.930   1.613 -0.2979 -0.1585 -0.4521
16767TIP3    H271717   2.286   4.045   1.572 -0.4383  0.0845  0.5170
16768TIP3   OH271718   1.219   4.457  11.182 -0.0050 -0.1255  0.1951
16768TIP3    H171719   1.144   4.412  11.144 -1.0546  2.3026 -0.8198
16768TIP3    H271720   1.294   4.402  11.160 -1.4410 -2.7762  1.4883
16769TIP3   OH271721   0.339   5.998  14.766  0.9962  0.1644 -0.6676
16769TIP3    H171722   0.281   5.956  14.829  0.3983  0.5895 -0.9261
16769TIP3    H271723   0.326   6.092  14.779  3.8373  0.4055  1.3283
16770TIP3   OH271724   3.642   3.724   4.427  0.1336  0.3273 -0.3299
16770TIP3    H171725   3.711   3.665   4.397  0.0655  0.2160 -0.2648
16770TIP3    H271726   3.674   3.812   4.404  0.7592  0.3542  0.5827
16771TIP3   OH271727   0.335   6.404  10.848  0.0757 -0.1089 -0.0077
16771TIP3    H171728   0.277   6.385  10.775  1.2291 -0.2841 -0.9061
16771TIP3    H271729   0.323   6.498  10.864 -1.7662 -0.4723  1.0231
16772TIP3   OH271730   4.546   2.934  10.761  0.7435 -0.9532  0.3834
16772TIP3    H171731   4.606   2.976  10.700 -1.8539  0.4798 -1.3420
16772TIP3    H271732   4.542   2.843  10.731  1.5356 -0.9173  0.1354
16773TIP3   OH271733   0.909   6.171   0.181  0.2025  0.0832 -0.0396
16773TIP3    H171734   0.864   6.087   0.195 -0.2900  0.3190 -0.2039
16773TIP3    H271735   0.901   6.216   0.264  0.2077  0.0881 -0.0419
16774TIP3   OH271736   1.264   1.051  13.443  0.2957 -0.3001 -0.3721
16774TIP3    H171737   1.171   1.030  13.443  0.5914 -1.8702  1.9446
16774TIP3    H271738   1.306   0.977  13.400  0.6937 -1.1632  1.3966
16775TIP3   OH271739   1.673   1.724  15.023  0.2036 -0.3320  0.1151
16775TIP3    H171740   1.635   1.719  14.935  0.5864 -0.7764 -0.0294
16775TIP3    H271741   1.750   1.781  15.012  0.3319 -0.5021  0.1308
16776TIP3   OH271742   5.145   5.737  15.435 -0.4176 -0.8835  0.0612
16776TIP3    H171743   5.059   5.711  15.401 -0.1646 -0.2274 -1.1216
16776TIP3    H271744   5.191   5.654  15.447 -0.9547 -1.2014 -0.0080
16777TIP3   OH271745   4.417   4.832   5.296 -0.1990  0.1901 -0.4029
16777TIP3    H171746   4.402   4.900   5.230  0.3373  0.0330 -0.6846
16777TIP3    H271747   4.498   4.790   5.270 -0.6206 -0.6882 -0.3362
16778TIP3   OH271748   4.247   0.335  12.307 -0.2053  0.0805 -0.2934
16778TIP3    H171749   4.243   0.241  12.288  1.0361 -0.2749  0.9839
16778TIP3    H271750   4.303   0.341  12.385  0.0791  1.9213 -0.5945
16779TIP3   OH271751   2.741   6.314  14.807 -0.1130 -0.0968 -0.2272
16779TIP3    H171752   2.647   6.319  14.823  0.0859  2.2661  0.7053
16779TIP3    H271753   2.774   6.255  14.874 -0.9598 -1.2868 -0.8321
16780TIP3   OH271754   2.801   1.944   3.547  0.1628  0.3968  0.3171
16780TIP3    H171755   2.810   2.036   3.524  0.1815  0.1219 -0.8694
16780TIP3    H271756   2.792   1.943   3.642  0.4939  1.5899  0.3731
16781TIP3   OH271757   4.233   0.407   6.360 -0.0610  0.1428  0.0468
16781TIP3    H171758   4.293   0.470   6.399 -0.2840  0.2986  0.1357
16781TIP3    H271759   4.251   0.325   6.406  0.7932 -0.0545 -0.6185
16782TIP3   OH271760   4.568   3.476  13.539  0.4115 -0.1415 -0.2580
16782TIP3    H171761   4.512   3.554  13.540  1.2495  0.5222 -1.6605
16782TIP3    H271762   4.611   3.477  13.624 -0.8833 -0.0774  0.4299
16783TIP3   OH271763   6.355   0.006  10.488 -0.2473 -0.0740 -0.3560
16783TIP3    H171764   6.396  -0.055  10.549 -0.8373  0.6850  0.8425
16783TIP3    H271765   6.299  -0.048  10.434  0.6399 -0.8295 -0.5437
16784TIP3   OH271766   3.346   0.065  11.458  0.0713  0.2819 -0.5224
16784TIP3    H171767   3.429   0.054  11.412  0.2098  1.1188 -0.4784
16784TIP3    H271768   3.303   0.137  11.413 -0.0392  0.7387  0.3065
16785TIP3   OH271769   3.553   6.346  15.179  0.5422  0.0445  0.3041
16785TIP3    H171770   3.632   6.387  15.144  0.3682  0.1651  0.0450
16785TIP3    H271771   3.548   6.261  15.135 -0.1126  0.5248 -0.5984
16786TIP3   OH271772   6.055   1.686   5.776  0.3778 -0.3856  0.2236
16786TIP3    H171773   6.022   1.608   5.730  2.8524 -0.8725 -0.9257
16786TIP3    H271774   6.127   1.652   5.830 -0.5264  0.6763  2.1608
16787TIP3   OH271775   5.715   2.292  14.980  0.5046 -0.3351 -0.1350
16787TIP3    H171776   5.651   2.237  14.934  1.0272  0.4125 -1.8123
16787TIP3    H271777   5.663   2.339  15.045 -0.7099  0.3593 -1.5592
16788TIP3   OH271778   0.248   3.670  14.022 -0.1982  0.7112  0.3997
16788TIP3    H171779   0.281   3.739  14.079  0.8658  1.8623 -1.4970
16788TIP3    H271780   0.156   3.692  14.008  0.2597  2.1173 -0.6107
16789TIP3   OH271781   2.795   0.271  14.780 -0.6799  0.1299  0.0465
16789TIP3    H171782   2.841   0.283  14.697  2.1963 -0.0799  1.4933
16789TIP3    H271783   2.803   0.177  14.799  1.3619  0.5773  1.8697
16790TIP3   OH271784   3.864   2.872  14.179 -0.3330 -0.5830  0.3503
16790TIP3    H171785   3.913   2.954  14.173 -0.0701 -0.7290  0.5219
16790TIP3    H271786   3.920   2.807  14.136 -0.6262 -0.6371  0.0405
16791TIP3   OH271787   0.741   2.346   0.510 -0.7601  0.0529 -0.1474
16791TIP3    H171788   0.676   2.412   0.487 -1.1165 -0.8302 -1.8519
16791TIP3    H271789   0.690   2.267   0.528 -0.3449  0.1945  1.9418
16792TIP3   OH271790   4.814   4.208   5.222 -0.0574  0.6739 -0.1982
16792TIP3    H171791   4.899   4.165   5.216  0.4302  1.3935  1.2362
16792TIP3    H271792   4.756   4.155   5.167  1.0041 -0.5937 -0.1264
16793TIP3   OH271793   6.278   2.189   2.848  0.2933 -0.5562 -0.0698
16793TIP3    H171794   6.244   2.176   2.937 -0.1481  1.4273  0.0998
16793TIP3    H271795   6.346   2.256   2.858  0.1522 -0.2195 -1.2457
16794TIP3   OH271796   2.582   2.391   3.899  0.0461 -0.1524 -0.1091
16794TIP3    H171797   2.516   2.328   3.868  0.2661 -0.3998 -0.0798
16794TIP3    H271798   2.618   2.351   3.978 -1.4007  1.0490  1.2339
16795TIP3   OH271799   4.697   3.262   5.410 -0.4927 -0.2847 -0.2632
16795TIP3    H171800   4.759   3.222   5.470  1.5729  0.4562 -1.7898
16795TIP3    H271801   4.633   3.306   5.466 -0.2300 -1.8725  1.3643
16796TIP3   OH271802   5.861   6.722   6.566 -0.1098  0.3958  0.5828
16796TIP3    H171803   5.931   6.775   6.606 -1.1579  0.8766  1.8821
16796TIP3    H271804   5.806   6.697   6.640 -1.5014  0.3199 -0.4386
16797TIP3   OH271805   1.546   6.250   0.884  0.1265  0.3027  0.3619
16797TIP3    H171806   1.589   6.233   0.968 -0.5837 -0.1704  0.6379
16797TIP3    H271807   1.575   6.179   0.827 -0.2127  0.0342  0.5214
16798TIP3   OH271808   3.896   5.351  11.131  0.0762  0.7706  0.0356
16798TIP3    H171809   3.801   5.352  11.145 -0.3164 -0.5361 -2.0731
16798TIP3    H271810   3.912   5.270  11.083  2.7308 -0.5568  2.8442
16799TIP3   OH271811   2.425   3.912  10.802 -0.1014  0.3339  0.4872
16799TIP3    H171812   2.479   3.851  10.751 -0.1049  1.3754 -0.7855
16799TIP3    H271813   2.476   3.926  10.882  1.1713  0.6746 -0.3444
16800TIP3   OH271814   5.916   2.703   1.856  0.0917 -0.5846 -0.3234
16800TIP3    H171815   5.953   2.710   1.768  2.0680  0.8970  0.5424
16800TIP3    H271816   5.918   2.793   1.889  1.3597 -1.3826  1.9626
16801TIP3   OH271817   5.539   0.496   3.540 -0.4910  0.6125  0.1097
16801TIP3    H171818   5.464   0.506   3.481 -0.8243 -0.5612  0.3150
16801TIP3    H271819   5.546   0.581   3.583 -1.9926  0.6130  0.4194
16802TIP3   OH271820   1.034   0.384   5.245  0.0577  0.0338 -0.5497
16802TIP3    H171821   1.116   0.358   5.288  1.0929  0.2980 -2.2665
16802TIP3    H271822   1.032   0.333   5.164 -1.6839 -0.2216 -0.3844
16803TIP3   OH271823   5.768   3.359   1.691 -0.1005 -0.4900 -0.4260
16803TIP3    H171824   5.744   3.395   1.606  1.2879  0.3498 -0.4984
16803TIP3    H271825   5.772   3.435   1.749  1.7976 -0.6209 -0.3138
16804TIP3   OH271826   3.137   1.332  11.188 -0.4960  0.5171 -0.5790
16804TIP3    H171827   3.133   1.304  11.280 -1.0624 -1.0396 -1.0514
16804TIP3    H271828   3.181   1.260  11.143  2.6561  2.5737 -1.0997
16805TIP3   OH271829   2.504   5.080  12.213 -0.1838 -0.6580 -0.0050
16805TIP3    H171830   2.595   5.059  12.192  0.1592  0.4133  0.3116
16805TIP3    H271831   2.469   5.118  12.132  0.6380  1.9044  0.7393
16806TIP3   OH271832   4.568   1.748  12.837  0.0937 -0.5113  0.2200
16806TIP3    H171833   4.563   1.680  12.771 -3.2157 -1.3193  1.1227
16806TIP3    H271834   4.596   1.703  12.917  0.3808 -0.2733  0.2598
16807TIP3   OH271835   1.257   5.699  12.069 -0.0109 -0.6611  0.5187
16807TIP3    H171836   1.283   5.788  12.093  0.8292 -0.4761 -0.9744
16807TIP3    H271837   1.161   5.704  12.060  0.1972  0.8857 -2.3067
16808TIP3   OH271838   1.550   1.988   2.043 -0.5506 -0.2174 -0.5376
16808TIP3    H171839   1.631   2.034   2.021  0.4992 -1.8556 -0.3560
16808TIP3    H271840   1.485   2.023   1.983  1.0833 -1.1381 -2.9907
16809TIP3   OH271841   5.899   1.653   5.079  0.2097  0.2910  0.2533
16809TIP3    H171842   5.982   1.689   5.049  0.3634  0.4472  0.8448
16809TIP3    H271843   5.875   1.707   5.154 -1.5394  1.6965 -1.2153
16810TIP3   OH271844   6.745   4.830  12.378 -0.7205 -0.3041  0.5358
16810TIP3    H171845   6.739   4.761  12.444  0.3990 -0.5931  0.3663
16810TIP3    H271846   6.654   4.852  12.358 -1.2237 -3.0022 -0.7218
16811TIP3   OH271847   6.568   2.919  10.497 -0.0116 -0.4554 -0.1347
16811TIP3    H171848   6.498   2.906  10.433 -0.2276  1.7291 -0.4075
16811TIP3    H271849   6.551   3.004  10.536  0.6158 -1.3371  2.2763
16812TIP3   OH271850   6.106   5.823  11.258  0.1084 -0.3039  0.4217
16812TIP3    H171851   6.154   5.746  11.228 -0.6330 -0.9343  0.7965
16812TIP3    H271852   6.069   5.796  11.342 -3.1216 -0.8597 -1.0165
16813TIP3   OH271853   0.149   3.330   1.966 -0.7330  0.0877 -0.2345
16813TIP3    H171854   0.200   3.363   1.892  0.9180  0.4167  1.0020
16813TIP3    H271855   0.149   3.235   1.955 -1.7341  0.1965 -1.4039
16814TIP3   OH271856   5.977   5.135  16.410 -0.0464 -0.5593  0.2125
16814TIP3    H171857   5.944   5.149  16.321  0.5281  0.3176  0.1316
16814TIP3    H271858   5.899   5.116  16.462 -0.7249  1.6326  0.0601
16815TIP3   OH271859   4.554   4.687   4.405  0.0862 -0.4358 -0.0065
16815TIP3    H171860   4.622   4.750   4.379  1.2421 -1.3018  0.8408
16815TIP3    H271861   4.560   4.683   4.500  0.1817 -1.9788 -0.0608
16816TIP3   OH271862   0.898   3.760   5.082  0.0208  0.3866  0.0333
16816TIP3    H171863   0.929   3.736   5.169  1.3410  3.0908  0.4075
16816TIP3    H271864   0.965   3.819   5.048 -1.1341  0.4869 -2.2794
16817TIP3   OH271865   1.389   3.288   5.472 -1.1631 -0.0717 -0.5703
16817TIP3    H171866   1.405   3.242   5.389 -0.3454 -0.5684 -0.1507
16817TIP3    H271867   1.461   3.260   5.529 -0.4749  1.9401 -0.3786
16818TIP3   OH271868   4.626   3.366  16.523 -0.1865 -0.3823 -0.0094
16818TIP3    H171869   4.561   3.335  16.586 -0.5153  0.5547  0.1245
16818TIP3    H271870   4.588   3.343  16.438 -1.8257  2.1507 -0.0525
16819TIP3   OH271871   3.200   2.004  17.182 -0.1353 -0.0532 -0.0376
16819TIP3    H171872   3.170   1.996  17.092  0.6234 -0.8363 -0.2295
16819TIP3    H271873   3.161   2.086  17.213 -0.4506  0.1892 -1.0460
16820TIP3   OH271874   0.666   1.324  14.906 -0.0635 -0.3281 -0.0268
16820TIP3    H171875   0.679   1.234  14.935  0.6698 -0.0664  0.4964
16820TIP3    H271876   0.646   1.316  14.812  0.2872 -1.0223 -0.0524
16821TIP3   OH271877   5.767   2.274   2.224 -0.0189  0.0480 -0.2415
16821TIP3    H171878   5.815   2.191   2.223 -0.6796 -0.3356 -0.6825
16821TIP3    H271879   5.777   2.307   2.313 -1.8529 -1.7665  0.7088
16822TIP3   OH271880   6.106   4.878  16.285 -0.4617 -0.0975  0.1649
16822TIP3    H171881   6.073   4.832  16.208  0.4606 -1.4405  0.5336
16822TIP3    H271882   6.028   4.897  16.338 -0.8364 -1.5419  0.1566
16823TIP3   OH271883   1.835   3.469   1.149 -0.2403 -0.2040 -0.6455
16823TIP3    H171884   1.754   3.493   1.104  0.9506  0.8096 -2.3869
16823TIP3    H271885   1.894   3.542   1.132 -0.3608  1.5672  4.7565
16824TIP3   OH271886   6.126   3.495  11.489 -0.6707 -0.4094  0.3036
16824TIP3    H171887   6.055   3.511  11.428 -1.3964 -1.2057  0.9075
16824TIP3    H271888   6.133   3.400  11.493 -1.2696 -0.4144  2.1391
16825TIP3   OH271889   0.875   4.321  13.662  0.1187 -0.5968  0.2903
16825TIP3    H171890   0.889   4.228  13.642  0.5963 -0.4322 -0.1427
16825TIP3    H271891   0.929   4.338  13.739 -0.6813 -0.8988  0.9312
16826TIP3   OH271892   2.259   3.318  15.324 -0.0112  0.2423 -0.7766
16826TIP3    H171893   2.302   3.388  15.274  0.1396 -0.0018 -0.9952
16826TIP3    H271894   2.166   3.330  15.305 -0.0454  0.7778 -0.2953
16827TIP3   OH271895   5.053   3.885  15.485  0.4274 -0.3093  0.1211
16827TIP3    H171896   4.982   3.826  15.459 -0.3415  0.2442  0.9205
16827TIP3    H271897   5.122   3.869  15.420 -0.0675 -1.5030 -0.1487
16828TIP3   OH271898   1.782   2.732   5.010 -0.1260  0.0149  0.0611
16828TIP3    H171899   1.827   2.758   4.929  0.2991  2.3571  0.9806
16828TIP3    H271900   1.787   2.636   5.010  1.0984  0.0176 -1.9877
16829TIP3   OH271901   5.205   1.267   0.049  0.3357  0.4960  0.6489
16829TIP3    H171902   5.182   1.177   0.072  0.9150  0.2921  0.4274
16829TIP3    H271903   5.189   1.316   0.130 -1.3367  0.4604  0.3844
16830TIP3   OH271904   3.094   1.187  14.137 -0.4232  0.2085  0.3674
16830TIP3    H171905   3.145   1.107  14.125 -1.2214 -0.3382  0.5770
16830TIP3    H271906   3.012   1.158  14.176 -0.9535  1.0614 -0.0827
16831TIP3   OH271907   4.251   1.421   4.959 -0.1733 -0.1776 -0.0340
16831TIP3    H171908   4.218   1.351   4.903 -0.3382  0.0365 -0.2088
16831TIP3    H271909   4.316   1.379   5.015 -1.4519 -0.8149  1.0099
16832TIP3   OH271910   6.255   6.744   5.521 -0.2408 -0.3472  0.2464
16832TIP3    H171911   6.224   6.830   5.493 -0.5749 -0.1245  1.2343
16832TIP3    H271912   6.337   6.763   5.568 -0.4307 -0.5310  0.6629
16833TIP3   OH271913   4.817   1.882  14.224 -0.3210 -0.1715 -0.2134
16833TIP3    H171914   4.852   1.795  14.241 -0.9472 -0.3698  0.1047
16833TIP3    H271915   4.784   1.877  14.134 -0.7563 -0.4033 -0.0438
16834TIP3   OH271916   3.382   3.662  16.885  0.3272 -0.3280  0.7725
16834TIP3    H171917   3.393   3.747  16.843  1.0806 -0.3328  0.9299
16834TIP3    H271918   3.403   3.598  16.816  1.2498 -0.3422  1.0447
16835TIP3   OH271919   4.053   5.092   1.841 -0.1876  0.3097 -0.4498
16835TIP3    H171920   4.073   5.185   1.854 -1.1163  0.3651  0.7062
16835TIP3    H271921   3.972   5.093   1.790 -1.3972  0.1906  1.3878
16836TIP3   OH271922   5.268   4.827   4.225 -0.1573  0.3976 -0.4209
16836TIP3    H171923   5.243   4.768   4.153 -0.7137  1.3804 -1.0533
16836TIP3    H271924   5.344   4.874   4.191  0.6280 -0.3081  0.2924
16837TIP3   OH271925   3.696   3.777  15.747  0.4698 -0.0330 -0.6518
16837TIP3    H171926   3.609   3.789  15.786  1.1383  0.2748  0.8328
16837TIP3    H271927   3.696   3.687  15.714  0.4428 -0.9843  1.7498
16838TIP3   OH271928   0.697   3.286  13.235  0.1130 -0.0139 -0.4771
16838TIP3    H171929   0.636   3.356  13.210 -0.0434  0.9863  2.3521
16838TIP3    H271930   0.764   3.330  13.288  0.8832 -1.7638  0.0647
16839TIP3   OH271931   0.943   2.013  14.963 -0.4117  0.1481 -0.4193
16839TIP3    H171932   0.940   2.108  14.977 -2.3996 -0.0895  1.2164
16839TIP3    H271933   0.851   1.987  14.958  0.0641 -1.8591  0.3782
16840TIP3   OH271934   3.111   2.334   3.679  0.1374 -0.4086  0.0694
16840TIP3    H171935   3.046   2.400   3.704 -1.7118 -1.9066 -0.5146
16840TIP3    H271936   3.104   2.328   3.584  2.0318  0.2482 -0.1415
16841TIP3   OH271937   0.166   5.180   2.206 -0.1370 -1.0340  0.7526
16841TIP3    H171938   0.239   5.119   2.193  0.4505 -0.6001  1.9012
16841TIP3    H271939   0.208   5.264   2.224 -0.9232 -0.0149 -1.7330
16842TIP3   OH271940   2.924   2.494   2.057  1.0763  0.0700 -0.1035
16842TIP3    H171941   2.873   2.492   1.976 -0.8647  3.0476  0.9099
16842TIP3    H271942   3.004   2.541   2.033  0.8555  0.2809 -0.4292
16843TIP3   OH271943   6.371   3.291   1.917  0.2221  0.1321  0.1508
16843TIP3    H171944   6.460   3.292   1.953  0.8325 -1.0078 -1.2188
16843TIP3    H271945   6.370   3.215   1.858 -1.2878  0.8206 -0.7697
16844TIP3   OH271946   0.202   5.071   3.585  0.7726  0.6379  0.2040
16844TIP3    H171947   0.276   5.131   3.589 -0.0421  1.6074  1.6896
16844TIP3    H271948   0.197   5.033   3.673 -1.4738  1.8779  0.6980
16845TIP3   OH271949   2.083   3.906   2.956  0.1971 -0.2699 -0.0083
16845TIP3    H171950   1.995   3.894   2.920 -0.0373  2.3427 -0.5483
16845TIP3    H271951   2.071   3.906   3.050 -0.4385  0.2999 -0.0839
16846TIP3   OH271952   6.056   2.182  11.083 -0.3772  0.4951 -0.3330
16846TIP3    H171953   6.146   2.197  11.052 -0.0993 -3.0743 -1.7851
16846TIP3    H271954   6.017   2.128  11.015 -2.9966  0.2846  1.2379
16847TIP3   OH271955   5.105   6.255  12.673 -0.1339 -0.3767  0.2079
16847TIP3    H171956   5.044   6.326  12.693 -0.1730 -0.2025 -0.5239
16847TIP3    H271957   5.049   6.178  12.660 -0.2388 -0.1185 -0.9136
16848TIP3   OH271958   2.465   4.576  15.650 -0.0558 -0.0673  0.5275
16848TIP3    H171959   2.538   4.559  15.589  1.2961 -0.9282  2.3034
16848TIP3    H271960   2.387   4.573  15.594  1.1166 -0.7855 -1.1771
16849TIP3   OH271961   3.756   1.226  13.961 -0.4375 -0.0146 -0.2702
16849TIP3    H171962   3.670   1.253  13.991  0.3040  2.4009 -0.0260
16849TIP3    H271963   3.741   1.145  13.913 -2.6797 -0.1574  0.5596
16850TIP3   OH271964   3.183   6.610  12.071  0.0494  0.3325  0.6084
16850TIP3    H171965   3.145   6.686  12.116  1.4584  1.3860  0.0949
16850TIP3    H271966   3.140   6.609  11.985 -0.1386  0.4014  0.7008
16851TIP3   OH271967   3.126   6.510  12.465  0.1682  0.1988  0.2175
16851TIP3    H171968   3.139   6.458  12.385 -0.5269  1.1495 -0.5372
16851TIP3    H271969   3.044   6.477  12.501  0.7529 -0.6034  0.8576
16852TIP3   OH271970   6.593   1.117   1.780 -0.2789 -0.2313 -0.0419
16852TIP3    H171971   6.686   1.118   1.801  0.0754 -2.6495 -1.1193
16852TIP3    H271972   6.584   1.176   1.705  0.1216  1.0089  0.8605
16853TIP3   OH271973   5.110   3.029   3.837 -0.1576 -0.3194  0.0271
16853TIP3    H171974   5.137   3.071   3.919  0.6262 -1.8047  0.5650
16853TIP3    H271975   5.190   3.024   3.786  0.2673 -2.9080  0.7962
16854TIP3   OH271976   5.109   0.540  16.982  0.4963  0.0892  0.3821
16854TIP3    H171977   5.104   0.510  16.892 -0.9548  0.2610  0.3863
16854TIP3    H271978   5.049   0.614  16.987 -1.6107 -1.5845  2.0949
16855TIP3   OH271979   1.873   3.182   2.053 -0.2888  0.3524 -0.0628
16855TIP3    H171980   1.947   3.144   2.006 -1.5919 -1.8346 -0.5292
16855TIP3    H271981   1.801   3.122   2.035 -1.7892  1.5412  1.6459
16856TIP3   OH271982   0.837   1.455   5.544 -0.6276 -0.1972  0.3348
16856TIP3    H171983   0.849   1.376   5.490  0.6366  1.2550 -1.6643
16856TIP3    H271984   0.910   1.453   5.606 -0.2126 -0.2708 -0.1511
16857TIP3   OH271985   2.657   0.858  15.458 -0.0830 -0.0698 -0.1503
16857TIP3    H171986   2.658   0.869  15.363 -0.0137 -0.4297 -0.1918
16857TIP3    H271987   2.707   0.778  15.474 -2.0507 -1.3548 -0.0031
16858TIP3   OH271988   0.342   0.071   4.410  0.1688  0.4980 -0.8583
16858TIP3    H171989   0.392  -0.010   4.420  0.7453  0.9367 -0.0908
16858TIP3    H271990   0.362   0.100   4.321 -1.3532 -1.0452 -1.7720
16859TIP3   OH271991   5.481   3.101  11.826  0.1382  0.0707  0.0878
16859TIP3    H171992   5.516   3.141  11.747 -1.9049  0.3503 -0.7226
16859TIP3    H271993   5.388   3.123  11.826 -0.5474 -2.4316  0.9947
16860TIP3   OH271994   1.397   5.055  16.175  0.1179  0.3866  0.0246
16860TIP3    H171995   1.462   5.126  16.179 -0.7842  1.3008 -0.8866
16860TIP3    H271996   1.387   5.037  16.081 -0.6820  0.0152  0.1754
16861TIP3   OH271997   2.368   2.708   0.205  0.0717 -0.4219 -0.3410
16861TIP3    H171998   2.330   2.680   0.288  1.6214 -0.8194  0.2748
16861TIP3    H271999   2.423   2.635   0.178 -0.1060 -0.1387 -1.5355
16862TIP3   OH272000   5.612   2.376  15.980 -0.1831  0.5074 -0.5272
16862TIP3    H172001   5.531   2.364  15.931 -0.4368 -2.4390  0.4128
16862TIP3    H272002   5.668   2.427  15.922 -1.1689 -1.0734 -3.0404
16863TIP3   OH272003   3.266   1.641   5.791  0.3977  0.2738 -0.4724
16863TIP3    H172004   3.337   1.704   5.801  0.9726 -0.4058 -0.1863
16863TIP3    H272005   3.229   1.661   5.705 -0.8872  2.4414  0.4860
16864TIP3   OH272006   1.217   6.437   1.255  0.5322  0.8796 -0.0790
16864TIP3    H172007   1.170   6.510   1.214  0.0769  0.3732 -0.4710
16864TIP3    H272008   1.218   6.460   1.348 -3.6680 -0.7032  0.5694
16865TIP3   OH272009   0.169   4.229  15.810 -0.9371 -0.2953  0.1236
16865TIP3    H172010   0.141   4.284  15.883  1.1060  0.1078  0.6656
16865TIP3    H272011   0.264   4.225  15.817 -0.7725 -1.3219 -1.7727
16866TIP3   OH272012   5.497   4.517  15.753  0.1267  0.6172  0.0323
16866TIP3    H172013   5.479   4.494  15.844  0.6648  0.8407  0.1987
16866TIP3    H272014   5.571   4.462  15.728 -1.0485 -0.6473 -0.7975
16867TIP3   OH272015   2.802   6.258  13.098  0.6432 -0.1546 -0.2858
16867TIP3    H172016   2.776   6.342  13.061  1.5073 -0.5751 -1.9592
16867TIP3    H272017   2.893   6.270  13.125  0.4992 -0.3130  0.2994
16868TIP3   OH272018   4.798   2.369  16.950 -0.0243 -0.0174 -0.6009
16868TIP3    H172019   4.760   2.432  16.890 -0.1469  0.4122 -0.0865
16868TIP3    H272020   4.891   2.390  16.952 -0.0268 -0.0060 -0.6101
16869TIP3   OH272021   5.423   0.802  14.040 -0.2431 -0.1005  0.0947
16869TIP3    H172022   5.505   0.776  14.083  0.5556  0.2372 -1.1634
16869TIP3    H272023   5.429   0.762  13.953 -0.2338  1.9760 -0.9210
16870TIP3   OH272024   3.171   5.088  13.231 -0.1132 -0.0276  0.4917
16870TIP3    H172025   3.238   5.110  13.295  1.0896  2.2026 -1.3640
16870TIP3    H272026   3.189   5.146  13.157 -3.1947 -0.4008 -0.7059
16871TIP3   OH272027   3.360   1.967   5.498 -0.2580  0.5336  0.0340
16871TIP3    H172028   3.388   2.046   5.544 -1.4639  0.2760  1.2865
16871TIP3    H272029   3.271   1.951   5.530 -1.0170  0.0997 -2.1163
16872TIP3   OH272030   4.487   1.871   3.572 -0.1433  0.3481 -0.8345
16872TIP3    H172031   4.509   1.957   3.537 -0.7000  0.5000 -0.8250
16872TIP3    H272032   4.560   1.849   3.629  0.0870  0.7367 -0.9763
16873TIP3   OH272033   3.336   2.129   2.419  0.1358  0.1159  0.5264
16873TIP3    H172034   3.334   2.223   2.437 -2.0329  0.5464 -1.4096
16873TIP3    H272035   3.428   2.109   2.402  0.4844  2.2017 -0.3488
16874TIP3   OH272036   2.613   1.700  13.192  0.3865 -0.1949  0.2090
16874TIP3    H172037   2.584   1.614  13.223 -2.5503  0.0909 -1.4045
16874TIP3    H272038   2.558   1.762  13.239  1.3483  0.7121  0.1547
16875TIP3   OH272039   1.782   5.992  16.771 -0.0950  0.1126 -0.3999
16875TIP3    H172040   1.820   6.020  16.688 -0.7424  0.9175 -0.4379
16875TIP3    H272041   1.829   5.911  16.793 -0.5404 -0.6062 -1.9751
16876TIP3   OH272042   1.267   5.166  16.796 -0.7376  0.0800 -0.1645
16876TIP3    H172043   1.187   5.218  16.799 -0.0177  1.3638 -1.7975
16876TIP3    H272044   1.263   5.119  16.713  0.0055 -0.1288 -0.0968
16877TIP3   OH272045   2.143   4.960   6.167  0.0928 -0.1762 -0.6497
16877TIP3    H172046   2.153   4.993   6.256 -2.3279  1.4746 -0.8729
16877TIP3    H272047   2.168   4.868   6.171  0.1218 -0.1034  1.7146
16878TIP3   OH272048   2.270   1.386  17.333 -0.6475 -0.1252 -0.2955
16878TIP3    H172049   2.181   1.420  17.339 -0.4052  0.9404 -1.9477
16878TIP3    H272050   2.314   1.446  17.272  1.8382  0.7157  2.1376
16879TIP3   OH272051   6.366   2.325   3.378 -0.0626 -0.0111  0.3159
16879TIP3    H172052   6.456   2.331   3.411  0.4663 -2.0098 -0.6612
16879TIP3    H272053   6.328   2.251   3.425  0.3767 -2.2552 -2.6392
16880TIP3   OH272054   0.125   4.735  11.713 -0.6617  0.0270 -0.7690
16880TIP3    H172055   0.042   4.739  11.665 -0.8064  0.1157 -0.5161
16880TIP3    H272056   0.146   4.827  11.730 -1.2425 -0.0308  0.3996
16881TIP3   OH272057   4.692   2.526   3.720 -0.0511  0.0565 -0.5823
16881TIP3    H172058   4.636   2.451   3.739  0.1743  0.3911  1.7063
16881TIP3    H272059   4.637   2.586   3.670 -1.4604 -0.0422  0.7822
16882TIP3   OH272060   4.537   5.812   4.748 -0.1046 -0.2280 -0.0233
16882TIP3    H172061   4.578   5.893   4.778  0.8634 -0.2429 -1.2308
16882TIP3    H272062   4.596   5.743   4.778 -1.5841 -0.6591  2.1611
16883TIP3   OH272063   1.408   5.196  15.694 -0.4239 -0.1177 -0.5674
16883TIP3    H172064   1.365   5.212  15.611 -2.4490  0.0958  0.4598
16883TIP3    H272065   1.410   5.101  15.702 -1.4578 -0.1215 -0.2714
16884TIP3   OH272066   1.243   6.512  17.219 -0.0567 -0.2079 -0.3043
16884TIP3    H172067   1.149   6.519  17.237 -0.0611  0.2481 -0.4846
16884TIP3    H272068   1.253   6.548  17.131  0.5123  1.3074  0.3477
16885TIP3   OH272069   0.231   0.105  14.734 -0.9911  0.6261 -0.2451
16885TIP3    H172070   0.322   0.105  14.763 -0.9390  4.1632  0.0279
16885TIP3    H272071   0.187   0.040  14.790  1.4324 -1.8742 -1.0372
16886TIP3   OH272072   1.273   4.787  12.160  0.2697 -0.0193 -0.0296
16886TIP3    H172073   1.308   4.839  12.233  1.1158 -1.1862  0.4156
16886TIP3    H272074   1.322   4.705  12.163 -0.3804 -0.4758 -1.3143
16887TIP3   OH272075   0.647   2.682   1.698 -0.3318  0.6282 -0.4808
16887TIP3    H172076   0.685   2.769   1.686 -1.5900  0.9993 -2.0963
16887TIP3    H272077   0.621   2.654   1.611  0.0357 -1.4006  0.0005
16888TIP3   OH272078   6.483   5.373  11.391  0.8879  0.1497 -0.2578
16888TIP3    H172079   6.531   5.326  11.459 -0.9710 -1.7294 -0.1252
16888TIP3    H272080   6.456   5.304  11.330  1.0630  1.5737 -2.0036
16889TIP3   OH272081   5.378   6.704  11.535  0.6678  0.3966 -0.7768
16889TIP3    H172082   5.342   6.690  11.447  0.5242  0.7581 -0.7757
16889TIP3    H272083   5.408   6.795  11.534 -2.1065  1.4277  0.5272
16890TIP3   OH272084   5.468   3.932  13.981  0.1282  0.9594  0.2177
16890TIP3    H172085   5.522   3.872  13.929  1.7245  0.9259  1.8231
16890TIP3    H272086   5.399   3.960  13.921  1.7857  0.8203 -1.8698
16891TIP3   OH272087   1.333   6.074   1.934  0.1147 -0.4739  0.5210
16891TIP3    H172088   1.405   6.019   1.903 -0.5059 -0.9478 -0.0962
16891TIP3    H272089   1.309   6.036   2.019  0.2138 -0.6684  0.4631
16892TIP3   OH272090   0.041   1.861   4.087 -0.3596  0.3769 -0.4669
16892TIP3    H172091   0.067   1.947   4.055  1.0771  0.5983  1.1631
16892TIP3    H272092  -0.011   1.880   4.165  1.5658 -0.2198  1.0204
16893TIP3   OH272093   1.681   5.514   6.031 -0.4717  0.7413  0.2741
16893TIP3    H172094   1.685   5.541   6.122  0.9447  0.2286  0.3858
16893TIP3    H272095   1.592   5.481   6.020 -0.6503  0.7786  1.4724
16894TIP3   OH272096   5.223   3.468   1.757 -0.1382  0.0841  0.1004
16894TIP3    H172097   5.255   3.393   1.707  0.3382  0.7430 -0.6118
16894TIP3    H272098   5.242   3.447   1.848  1.4793  0.0385 -0.2257
16895TIP3   OH272099   5.701   6.226   5.495 -0.5071 -0.4357 -0.4014
16895TIP3    H172100   5.784   6.274   5.492 -0.2337 -0.9410 -1.3694
16895TIP3    H272101   5.690   6.203   5.587 -0.2295  0.7600 -0.0558
16896TIP3   OH272102   4.577   1.907   2.270  0.1198  0.2759 -0.7050
16896TIP3    H172103   4.520   1.891   2.194  2.3225 -1.3711 -2.1496
16896TIP3    H272104   4.580   1.823   2.316  1.9018  0.0582 -1.1246
16897TIP3   OH272105   1.738   0.456   5.340 -0.1875 -0.4898  0.3950
16897TIP3    H172106   1.820   0.415   5.310 -0.4590 -0.3048 -0.6562
16897TIP3    H272107   1.688   0.384   5.378  0.7750 -0.4560  1.7619
16898TIP3   OH272108   1.680   3.691   6.043 -0.5374  0.3430  0.5601
16898TIP3    H172109   1.740   3.631   6.087  2.0135  1.8404 -0.7151
16898TIP3    H272110   1.653   3.644   5.964  2.9619  1.3955 -1.4472
16899TIP3   OH272111   6.312   4.946   2.556 -0.6437  0.2508 -0.0280
16899TIP3    H172112   6.221   4.970   2.541 -0.0674  2.2664 -0.6393
16899TIP3    H272113   6.359   5.029   2.554  1.1910 -0.7225  0.4797
16900TIP3   OH272114   1.365   2.032  13.874  0.4446 -0.2408 -0.4495
16900TIP3    H172115   1.374   2.124  13.899 -0.2079 -0.2677 -0.0945
16900TIP3    H272116   1.450   1.993  13.894  1.0623  0.4924 -1.5447
16901TIP3   OH272117   0.965   2.718  12.774  0.8426  0.6605 -0.2494
16901TIP3    H172118   0.999   2.633  12.745 -2.3668 -0.1104 -2.1627
16901TIP3    H272119   0.935   2.702  12.864 -1.7079 -0.9938 -1.2815
16902TIP3   OH272120   0.015   0.281  14.711 -0.3369  0.1500  0.5570
16902TIP3    H172121  -0.012   0.248  14.796 -0.2297 -2.3587 -0.2975
16902TIP3    H272122   0.091   0.228  14.688 -0.3603  0.7773 -1.0990
16903TIP3   OH272123   1.362   4.204   1.679  0.3280  0.8402  0.0350
16903TIP3    H172124   1.356   4.109   1.688  4.2615  0.3781 -0.5862
16903TIP3    H272125   1.333   4.221   1.589 -0.0098  0.1916  0.0118
16904TIP3   OH272126   4.602   1.043   2.283  0.0973  0.3732  0.5575
16904TIP3    H172127   4.639   0.957   2.262  0.2923  1.1310 -2.9188
16904TIP3    H272128   4.608   1.049   2.378  0.2149 -3.3494  0.9537
16905TIP3   OH272129   5.388   0.363  15.121  0.1067  0.0063  0.2439
16905TIP3    H172130   5.461   0.337  15.065  1.0603  0.8021  1.0598
16905TIP3    H272131   5.329   0.288  15.121  0.5585 -0.3700 -1.0296
16906TIP3   OH272132   0.372   2.940   1.007 -0.0021 -0.1151  0.2046
16906TIP3    H172133   0.283   2.905   1.014  0.4867 -1.2793  0.8483
16906TIP3    H272134   0.391   2.938   0.914 -1.0577  1.2542 -0.0834
16907TIP3   OH272135   0.920   0.082  11.217  0.4102  0.7180  0.0058
16907TIP3    H172136   0.865   0.095  11.294  0.3940 -0.1247  0.1498
16907TIP3    H272137   0.867   0.112  11.144  0.4823  1.6672  0.3365
16908TIP3   OH272138   3.839   0.294   0.594  0.3032 -0.1589 -0.2088
16908TIP3    H172139   3.793   0.248   0.524  0.0428  1.4678 -1.1587
16908TIP3    H272140   3.909   0.235   0.620  0.8560 -0.5230 -2.3739
16909TIP3   OH272141   2.331   0.375  16.018 -0.1644  0.6672  0.0076
16909TIP3    H172142   2.239   0.351  16.022  0.1401 -0.5578 -0.0124
16909TIP3    H272143   2.342   0.415  15.932 -0.4538 -0.1635 -0.4242
16910TIP3   OH272144   3.942   1.417  15.231 -0.2157  0.0220  0.3739
16910TIP3    H172145   3.923   1.349  15.296  0.2378  0.0357  0.5238
16910TIP3    H272146   3.989   1.484  15.280  1.3687 -0.5928 -0.2395
16911TIP3   OH272147   6.714   2.380  13.657 -0.3339  0.0642 -0.3075
16911TIP3    H172148   6.752   2.352  13.740 -0.1266 -0.0329 -0.4333
16911TIP3    H272149   6.638   2.323  13.645 -1.2884  1.1204  0.5750
16912TIP3   OH272150   3.448   2.298  14.002 -0.2060  0.2039 -0.0864
16912TIP3    H172151   3.413   2.384  14.028  1.4088  1.6395 -2.2558
16912TIP3    H272152   3.533   2.292  14.047  0.3832  0.4942 -1.1180
16913TIP3   OH272153   6.271   3.078  15.696  0.6549 -0.0993  0.3154
16913TIP3    H172154   6.288   3.154  15.751  0.2439  0.6259 -0.5323
16913TIP3    H272155   6.269   3.004  15.757 -1.5366  0.8839  1.5467
16914TIP3   OH272156   6.154   5.328  15.337 -0.8149 -0.0420  0.4146
16914TIP3    H172157   6.234   5.279  15.319 -1.3407 -0.5741 -0.5248
16914TIP3    H272158   6.088   5.290  15.279 -1.5063  1.0493  0.4496
16915TIP3   OH272159   1.369   0.130   2.797  0.4034  0.5233 -0.3336
16915TIP3    H172160   1.295   0.151   2.740 -1.7017 -0.8868  1.6686
16915TIP3    H272161   1.425   0.074   2.744 -0.6006  0.6184 -1.5391
16916TIP3   OH272162   2.982   2.113  15.143  0.1371 -0.2904  0.4215
16916TIP3    H172163   2.894   2.137  15.112  0.1216  1.7185  1.8773
16916TIP3    H272164   3.041   2.171  15.095  0.5489 -0.6003  0.5460
16917TIP3   OH272165   2.208   2.928   1.142 -0.6994 -0.0906  0.2985
16917TIP3    H172166   2.244   2.883   1.066 -0.5103  0.2370  0.1925
16917TIP3    H272167   2.274   2.993   1.165 -0.5772 -0.4470  0.9810
16918TIP3   OH272168   5.490   3.847  13.596  0.3844 -0.1926  0.1277
16918TIP3    H172169   5.541   3.923  13.624 -0.3449  0.8124 -1.1561
16918TIP3    H272170   5.458   3.870  13.509  0.4941 -2.1600 -0.4968
16919TIP3   OH272171   5.089   0.880   2.117  0.0335 -0.0236  0.3848
16919TIP3    H172172   5.069   0.972   2.136  0.3476 -0.0639  0.9213
16919TIP3    H272173   5.005   0.842   2.091 -0.0657  0.4537 -0.0031
16920TIP3   OH272174   0.688   0.599  11.135 -0.4306 -0.5194 -0.3070
16920TIP3    H172175   0.691   0.680  11.083 -0.0417  1.2150  2.1887
16920TIP3    H272176   0.612   0.552  11.102 -1.5855  1.6167 -0.8932
16921TIP3   OH272177   5.678   0.095   5.281 -0.3874 -0.2049  0.1702
16921TIP3    H172178   5.626   0.144   5.217 -1.1727 -1.1281  0.0876
16921TIP3    H272179   5.630   0.014   5.295  0.6047 -0.7185  0.7373
16922TIP3   OH272180   1.354   3.574  12.559 -0.3033  0.1243  0.1540
16922TIP3    H172181   1.344   3.528  12.476 -0.0134 -1.8731  1.1461
16922TIP3    H272182   1.420   3.523  12.606 -0.1324  1.4654  1.4424
16923TIP3   OH272183   5.873   1.116   1.953 -0.1585 -0.4233  0.1133
16923TIP3    H172184   5.890   1.136   2.045  0.3433 -2.4176  0.5088
16923TIP3    H272185   5.949   1.150   1.906 -1.1888  2.1299  0.1436
16924TIP3   OH272186   2.866   4.438   5.734 -0.2305  1.0436  0.1256
16924TIP3    H172187   2.893   4.513   5.680  1.1873 -0.4973 -1.4248
16924TIP3    H272188   2.911   4.363   5.695 -0.3108 -0.3954  2.6198
16925TIP3   OH272189   5.399   1.421   4.419 -0.5478  0.3149 -0.3786
16925TIP3    H172190   5.369   1.341   4.462 -0.4255  0.2879 -0.3444
16925TIP3    H272191   5.340   1.431   4.344 -1.3014  0.8234  0.2639
16926TIP3   OH272192   5.302   1.104   3.800 -0.5875  0.0924 -0.5139
16926TIP3    H172193   5.298   1.196   3.774  3.2130  0.2852 -0.9778
16926TIP3    H272194   5.339   1.060   3.723 -1.9720 -1.8154 -0.1465
16927TIP3   OH272195   3.281   1.263  16.099  0.4751  0.5606 -0.6263
16927TIP3    H172196   3.191   1.283  16.125  0.0990 -1.9719  0.3777
16927TIP3    H272197   3.331   1.341  16.123 -1.0586  1.0616  1.1980
16928TIP3   OH272198   4.859   6.637  12.280  0.3492 -0.1276  0.2908
16928TIP3    H172199   4.905   6.557  12.306  0.8444  0.1451  0.2582
16928TIP3    H272200   4.771   6.607  12.259  0.8479 -0.8678 -0.8655
16929TIP3   OH272201   1.708   0.780   4.619 -0.9799 -0.4319 -0.5531
16929TIP3    H172202   1.677   0.864   4.652  2.2343 -0.0430  1.9759
16929TIP3    H272203   1.685   0.717   4.687 -0.9699 -1.1205 -1.1653
16930TIP3   OH272204   1.271   1.395   2.073 -0.1315  0.3985  0.0624
16930TIP3    H172205   1.188   1.421   2.113 -0.3281 -0.2414  0.0731
16930TIP3    H272206   1.298   1.317   2.122  0.7590  0.9176  0.4374
16931TIP3   OH272207   5.094   5.532   2.554  0.2302 -0.5235 -0.3163
16931TIP3    H172208   5.003   5.513   2.575 -0.3068  1.4949 -0.5938
16931TIP3    H272209   5.105   5.503   2.463 -0.2673 -0.4001 -0.4171
16932TIP3   OH272210   5.187   6.127   5.824  0.0484  0.0473  0.2683
16932TIP3    H172211   5.177   6.034   5.844  2.2935  0.1783  2.3624
16932TIP3    H272212   5.123   6.170   5.881 -0.6067 -0.1600 -0.2992
16933TIP3   OH272213   0.167   3.701   0.471  0.7958 -0.5817 -0.1439
16933TIP3    H172214   0.128   3.680   0.556  0.4436  1.6968  0.3202
16933TIP3    H272215   0.233   3.768   0.490  0.6817  0.0055 -1.6413
16934TIP3   OH272216   4.610   1.064  14.257  0.4071 -0.4163 -0.2537
16934TIP3    H172217   4.690   1.095  14.300 -0.1032  1.1113 -0.3617
16934TIP3    H272218   4.613   1.104  14.170 -1.7469  1.8696  0.6270
16935TIP3   OH272219   1.294   1.123  14.449 -0.4285 -0.0830 -0.0302
16935TIP3    H172220   1.213   1.169  14.425 -0.1427  0.6518  0.3892
16935TIP3    H272221   1.268   1.068  14.523 -0.5821  0.0276 -0.0000
16936TIP3   OH272222   6.562   1.993  12.688  0.1726  1.0862 -0.1311
16936TIP3    H172223   6.523   1.909  12.664  2.5937  0.6021 -2.9156
16936TIP3    H272224   6.495   2.058  12.665  0.2584  0.2184 -3.2857
16937TIP3   OH272225   1.951   3.213  12.000  0.4635  0.0775  0.5104
16937TIP3    H172226   2.039   3.238  11.972 -0.3456  0.1210 -2.2124
16937TIP3    H272227   1.946   3.119  11.983 -0.3624  0.2742 -0.4110
16938TIP3   OH272228   3.004   3.656   1.409 -0.0569  0.2998 -0.6138
16938TIP3    H172229   2.911   3.648   1.385  0.3066  0.4536 -2.1500
16938TIP3    H272230   3.002   3.678   1.502 -1.5210 -1.2982 -0.1955
16939TIP3   OH272231   2.792   6.281   2.362 -0.4980  0.0771  0.1524
16939TIP3    H172232   2.847   6.260   2.287  0.1997 -0.8778  0.9191
16939TIP3    H272233   2.729   6.209   2.367 -0.2464 -0.1005  0.7664
16940TIP3   OH272234   3.889   5.629  14.427 -0.7055 -0.9247 -0.5775
16940TIP3    H172235   3.900   5.641  14.333  0.2921  2.1357 -0.2153
16940TIP3    H272236   3.794   5.631  14.441 -1.0334  4.4588 -1.2250
16941TIP3   OH272237   0.402   1.786   2.736 -0.2355  0.6255 -0.4054
16941TIP3    H172238   0.334   1.773   2.669 -0.9643  0.9181  0.2601
16941TIP3    H272239   0.436   1.698   2.752 -0.5550  0.4531 -0.6459
16942TIP3   OH272240   2.807   2.538  12.688 -0.6547 -0.5880  0.3755
16942TIP3    H172241   2.878   2.481  12.718  1.3037  0.2325 -2.2699
16942TIP3    H272242   2.849   2.623  12.673 -2.5685  0.3803  0.2009
16943TIP3   OH272243   1.934   1.744   0.944 -0.0752 -0.0919 -0.1130
16943TIP3    H172244   1.869   1.732   1.013  0.6925  0.3634  0.7201
16943TIP3    H272245   1.962   1.656   0.920 -2.8326 -0.4988 -2.3591
16944TIP3   OH272246   2.284   2.208  15.714 -0.4402 -0.0556  0.0315
16944TIP3    H172247   2.363   2.221  15.662 -1.2512  1.2814 -0.9055
16944TIP3    H272248   2.250   2.296  15.730 -1.4078 -0.5667  0.9655
16945TIP3   OH272249   2.256   1.149   0.943 -0.0610 -0.8325  0.2346
16945TIP3    H172250   2.175   1.143   0.994 -0.7776 -0.3965 -0.8218
16945TIP3    H272251   2.230   1.124   0.854  0.7746  0.1051 -0.2949
16946TIP3   OH272252   3.918   5.872   4.352 -0.6396 -0.4069  0.2491
16946TIP3    H172253   3.916   5.948   4.293  0.5373  0.4652  1.2656
16946TIP3    H272254   3.867   5.899   4.427 -1.6985 -1.3186 -0.1256
16947TIP3   OH272255   3.960   5.980   3.571  0.3746  0.4887 -0.4719
16947TIP3    H172256   3.865   5.973   3.563  0.5377 -0.8063 -1.6355
16947TIP3    H272257   3.979   6.073   3.558 -0.8342  1.0542  1.4068
16948TIP3   OH272258   3.693   4.945  13.234  0.2332  0.3171  0.2979
16948TIP3    H172259   3.603   4.913  13.244 -0.2607  1.1154 -1.3209
16948TIP3    H272260   3.718   4.974  13.322 -1.3477  0.7449  0.6274
16949TIP3   OH272261   1.606   6.288   4.271 -0.1589  0.1898  0.0882
16949TIP3    H172262   1.637   6.376   4.291  1.2698 -0.0084 -1.1221
16949TIP3    H272263   1.678   6.230   4.297  0.0525 -0.3811 -1.6637
16950TIP3   OH272264   1.269   1.583   0.600 -0.4114 -0.1337  0.0671
16950TIP3    H172265   1.303   1.535   0.525 -1.1812 -1.0123  0.2457
16950TIP3    H272266   1.347   1.614   0.647  0.0724  1.2380 -1.5582
16951TIP3   OH272267   5.696   5.922   2.880 -0.6912  0.9332  0.2865
16951TIP3    H172268   5.640   5.931   2.957 -2.8199 -0.4570 -1.0032
16951TIP3    H272269   5.705   6.012   2.847 -1.1117  1.3414  1.2414
16952TIP3   OH272270   2.304   0.964   1.982 -0.3944  0.0472  0.5403
16952TIP3    H172271   2.369   0.982   1.914 -1.1959 -0.9855 -0.5309
16952TIP3    H272272   2.239   1.033   1.972 -1.0955 -0.7375 -0.5264
16953TIP3   OH272273   2.689   0.242  12.649 -0.6165 -0.4555 -0.1787
16953TIP3    H172274   2.609   0.189  12.652 -1.9360  1.4819  0.9303
16953TIP3    H272275   2.724   0.228  12.561 -3.2296  0.0815 -1.4001
16954TIP3   OH272276   4.836   3.053   4.461 -0.4493  0.0620  0.3454
16954TIP3    H172277   4.795   2.973   4.427 -0.5333  0.6638 -1.0121
16954TIP3    H272278   4.785   3.074   4.539 -1.3053 -0.4508 -0.0626
16955TIP3   OH272279   3.093   0.558  11.239  0.4411  0.0044 -0.2480
16955TIP3    H172280   3.184   0.585  11.225  0.6524 -0.6694 -0.2038
16955TIP3    H272281   3.079   0.570  11.333 -0.1085  1.8736 -0.5294
16956TIP3   OH272282   0.434   6.169  15.079 -0.3975  0.1623  0.0130
16956TIP3    H172283   0.457   6.238  15.141  2.0102  0.6934 -1.3522
16956TIP3    H272284   0.375   6.212  15.016 -0.0280  0.5986 -0.0427
16957TIP3   OH272285   0.980   3.126   5.629  0.1267  0.8087 -0.0772
16957TIP3    H172286   1.014   3.128   5.718  0.4430  1.9273 -0.2129
16957TIP3    H272287   0.922   3.050   5.627 -0.1278  0.9592  1.1654
16958TIP3   OH272288   5.603   0.291  13.978  0.1026  0.5261  0.1199
16958TIP3    H172289   5.591   0.214  13.922 -1.1111 -0.5186  1.7240
16958TIP3    H272290   5.537   0.354  13.948  1.3352  1.1274 -1.4307
16959TIP3   OH272291   3.494   2.447   4.770  0.5613  0.3290  0.1979
16959TIP3    H172292   3.518   2.364   4.729  1.6913  0.5864  0.2993
16959TIP3    H272293   3.563   2.462   4.835 -1.1474 -0.0473  2.1904
16960TIP3   OH272294   2.847   0.395  10.424  0.1853  0.2481  0.4204
16960TIP3    H172295   2.831   0.394  10.519  0.1193  2.2629  0.4834
16960TIP3    H272296   2.760   0.387  10.385 -0.3250  3.2391  0.6566
16961TIP3   OH272297   0.977   4.032   1.104 -0.2120 -0.1483  0.2146
16961TIP3    H172298   0.882   4.040   1.109 -0.1134  1.0884  0.5230
16961TIP3    H272299   1.005   4.022   1.195 -0.0765 -1.0334  0.0817
16962TIP3   OH272300   5.459   0.568   6.801 -0.1406 -0.0153 -0.0514
16962TIP3    H172301   5.450   0.587   6.708  0.3119 -0.2681 -0.1528
16962TIP3    H272302   5.370   0.549   6.831 -0.1991 -0.6259 -0.5900
16963TIP3   OH272303   3.654   3.691   2.571  0.0933  0.4360  0.1360
16963TIP3    H172304   3.705   3.684   2.490 -1.8982 -0.7443 -1.1042
16963TIP3    H272305   3.669   3.607   2.615 -1.1592 -0.1692 -0.5301
16964TIP3   OH272306   3.862   4.558   0.279  0.1513  0.3391  0.7421
16964TIP3    H172307   3.774   4.534   0.250  0.4217 -0.0321  0.2141
16964TIP3    H272308   3.861   4.654   0.279 -0.2219  0.3391  0.6345
16965TIP3   OH272309   1.899   4.844   4.528  0.1481 -0.2584 -0.3039
16965TIP3    H172310   1.934   4.901   4.460 -0.2700 -1.4658 -1.5758
16965TIP3    H272311   1.949   4.762   4.518  0.7206 -0.1598  1.4559
16966TIP3   OH272312   6.513   4.181   4.548  0.3776  0.7306  0.6534
16966TIP3    H172313   6.525   4.106   4.490 -1.3700 -1.2359  2.6545
16966TIP3    H272314   6.475   4.144   4.628  1.0296  3.5352  2.4113
16967TIP3   OH272315   1.338   2.237  15.944  0.5213 -0.7177 -0.1604
16967TIP3    H172316   1.314   2.329  15.956 -0.0939 -0.9364  0.2970
16967TIP3    H272317   1.428   2.231  15.977  1.4468  0.2061 -2.3224
16968TIP3   OH272318   2.738   1.882  14.061 -0.8252  0.5686  0.3664
16968TIP3    H172319   2.764   1.935  14.137 -1.8873  1.2733  0.2597
16968TIP3    H272320   2.652   1.917  14.036 -1.9470 -1.7041  0.7733
16969TIP3   OH272321   4.733   5.767   4.432 -0.5860  0.2119 -0.2161
16969TIP3    H172322   4.689   5.682   4.426  0.3345 -0.2015 -1.4885
16969TIP3    H272323   4.674   5.820   4.485 -1.0638 -1.2888  0.8406
16970TIP3   OH272324   5.598   0.604   2.769  0.6500  0.2244  0.1383
16970TIP3    H172325   5.638   0.690   2.752  0.0402  0.1646 -1.9927
16970TIP3    H272326   5.504   0.622   2.770  0.5476 -0.3249  0.4111
16971TIP3   OH272327   4.351   4.696  15.577 -0.0018  0.3859  0.1835
16971TIP3    H172328   4.376   4.693  15.669 -1.1621  1.4956  0.5613
16971TIP3    H272329   4.269   4.647  15.572 -0.0179  0.4454 -0.2309
16972TIP3   OH272330   1.896   5.284   3.425 -0.1384 -0.3311  0.4856
16972TIP3    H172331   1.860   5.305   3.511  0.1762 -0.7151  0.7166
16972TIP3    H272332   1.973   5.230   3.444  0.8372  0.8533  0.0183
16973TIP3   OH272333   6.448   2.317  15.925  0.2868 -0.0729  0.2628
16973TIP3    H172334   6.535   2.358  15.921 -0.2902  1.2499  0.9288
16973TIP3    H272335   6.467   2.226  15.948  1.6113 -0.3215 -1.5176
16974TIP3   OH272336   5.356   6.638  14.597  0.1371  0.6996  0.1402
16974TIP3    H172337   5.317   6.701  14.658 -0.1755  2.4461 -1.7419
16974TIP3    H272338   5.450   6.645  14.613  0.1452  2.0891 -0.4081
16975TIP3   OH272339   5.073   0.875  11.554  0.2541  0.1513 -0.3164
16975TIP3    H172340   5.105   0.933  11.485 -1.4936  1.6096  0.0112
16975TIP3    H272341   4.979   0.867  11.538 -0.2602  0.7004  1.9595
16976TIP3   OH272342   5.285   2.361  16.619 -0.1430 -0.0431  0.2674
16976TIP3    H172343   5.289   2.457  16.619 -1.2253  0.0187  0.7432
16976TIP3    H272344   5.230   2.340  16.544  1.1963 -0.3699 -0.6490
16977TIP3   OH272345   3.982   4.720  16.415  0.1598 -0.2178 -0.0870
16977TIP3    H172346   3.937   4.781  16.356  0.8272  0.2826 -0.0894
16977TIP3    H272347   3.948   4.741  16.502 -0.2438 -0.4263 -0.1915
16978TIP3   OH272348   6.074   3.555  12.200  0.0263 -0.0365  0.1324
16978TIP3    H172349   6.161   3.578  12.168  0.2156 -0.3931  0.3828
16978TIP3    H272350   6.070   3.460  12.191 -0.3196 -0.0261  0.1710
16979TIP3   OH272351   5.185   3.753   0.161  0.5371  0.1660 -0.1691
16979TIP3    H172352   5.142   3.781   0.242  0.8632  1.9952 -0.5822
16979TIP3    H272353   5.119   3.701   0.116 -0.5378  1.2189  0.1480
16980TIP3   OH272354   4.742   5.136  15.081 -0.6248 -0.3677  0.6651
16980TIP3    H172355   4.829   5.106  15.107 -1.3735 -2.8334  0.5818
16980TIP3    H272356   4.737   5.117  14.987 -1.4709 -0.8968  0.8060
16981TIP3   OH272357   1.707   0.437  14.352 -0.1511  0.7509  0.2586
16981TIP3    H172358   1.643   0.507  14.339  0.0514  1.3634  2.2632
16981TIP3    H272359   1.751   0.428  14.268 -2.3649  0.7952 -0.9833
16982TIP3   OH272360   5.029   0.660  14.804  0.1834 -0.0982  0.4794
16982TIP3    H172361   5.119   0.692  14.814  0.8577 -1.7656  0.1298
16982TIP3    H272362   5.039   0.567  14.786 -1.6228 -0.2592  0.1326
16983TIP3   OH272363   2.874   6.065  12.119 -0.0286 -0.7102  0.4078
16983TIP3    H172364   2.922   6.040  12.198 -0.3303  0.6179  1.0477
16983TIP3    H272365   2.871   5.985  12.066  0.9956 -1.3774  1.3127
16984TIP3   OH272366   3.273   4.796   2.842  0.1961 -0.5975  0.3917
16984TIP3    H172367   3.283   4.857   2.915 -0.5131 -0.4442  0.3675
16984TIP3    H272368   3.294   4.711   2.879  1.7983 -0.2805  0.2794
16985TIP3   OH272369   2.158   6.135   4.701  0.5366 -0.3790 -0.0919
16985TIP3    H172370   2.078   6.172   4.737 -0.2476 -1.8959 -0.1809
16985TIP3    H272371   2.216   6.125   4.777  0.6179  0.6329 -0.0099
16986TIP3   OH272372   6.551   2.010   0.184 -0.6484 -0.2505  0.0168
16986TIP3    H172373   6.490   2.052   0.124  0.3424  0.7452 -0.3260
16986TIP3    H272374   6.512   1.924   0.202 -0.8088 -0.7322 -2.3079
16987TIP3   OH272375   0.788   6.229  14.979  0.1335 -0.5331  0.4662
16987TIP3    H172376   0.835   6.312  14.974  1.2737 -1.0639  1.7378
16987TIP3    H272377   0.823   6.178  14.906 -0.2226 -0.0818 -0.0293
16988TIP3   OH272378   5.023   4.917  15.627  0.2574  0.0025  0.3682
16988TIP3    H172379   4.929   4.920  15.646 -0.1117 -1.0491 -1.0786
16988TIP3    H272380   5.060   4.989  15.677 -1.7258  2.1395 -1.0094
16989TIP3   OH272381   5.511   4.097  12.054 -0.2716  0.2874  0.7061
16989TIP3    H172382   5.588   4.101  11.998 -1.0293  2.8596 -0.3108
16989TIP3    H272383   5.483   4.006  12.051  2.8801 -0.8259  1.4222
16990TIP3   OH272384   3.407   6.017   2.831  0.4888 -0.3968  0.5801
16990TIP3    H172385   3.412   5.922   2.820 -1.5916 -0.6430  1.3429
16990TIP3    H272386   3.436   6.052   2.746 -1.3574 -1.8052 -0.7226
16991TIP3   OH272387   4.600   5.013  14.147 -0.4548 -0.5766 -0.1174
16991TIP3    H172388   4.624   5.053  14.063 -0.6700  0.6444  0.3794
16991TIP3    H272389   4.514   4.975  14.131 -0.4290 -0.4878 -0.4924
16992TIP3   OH272390   4.649   0.503   3.999  0.0588  0.9082  0.2118
16992TIP3    H172391   4.569   0.507   3.948  0.3298  1.5641 -0.1740
16992TIP3    H272392   4.702   0.575   3.966 -0.4335  2.4581  2.5675
16993TIP3   OH272393   1.353   4.312   4.425 -0.5449  0.2909  0.0949
16993TIP3    H172394   1.363   4.218   4.441  1.8348  0.7411  1.9306
16993TIP3    H272395   1.326   4.348   4.510  0.4245  1.4573 -0.0585
16994TIP3   OH272396   2.667   0.092  15.571 -0.0596 -0.9341 -0.3728
16994TIP3    H172397   2.681   0.002  15.543  1.5822 -1.4815  1.8881
16994TIP3    H272398   2.743   0.140  15.537 -0.3760 -0.6391 -0.6676
16995TIP3   OH272399   3.722   2.485  16.209  0.1392  0.2568 -0.5809
16995TIP3    H172400   3.796   2.425  16.195  0.6103  0.3607  1.1663
16995TIP3    H272401   3.694   2.467  16.299  0.3230  2.6538  0.0236
16996TIP3   OH272402   6.385   5.617  16.157 -0.5290  0.0164  0.1079
16996TIP3    H172403   6.451   5.642  16.092 -1.2152  0.6577 -0.3764
16996TIP3    H272404   6.408   5.528  16.182  0.3209  0.1090 -0.2957
16997TIP3   OH272405   0.615   3.637   1.877 -0.6731  0.0617  0.3962
16997TIP3    H172406   0.591   3.596   1.794 -0.8449 -0.4557  0.6944
16997TIP3    H272407   0.610   3.566   1.941 -0.1862  0.3711  0.7891
16998TIP3   OH272408   6.710   6.312   1.715 -0.3903 -0.0829  0.4761
16998TIP3    H172409   6.651   6.350   1.781 -1.9066 -1.0541 -0.2487
16998TIP3    H272410   6.695   6.218   1.722  1.9039 -0.4591  0.9696
16999TIP3   OH272411   0.433   0.604  14.843 -0.4642 -0.0597 -1.3009
16999TIP3    H172412   0.408   0.516  14.871 -1.8234  0.4302 -0.9050
16999TIP3    H272413   0.515   0.591  14.795 -0.0837 -1.3965 -0.3521
17000TIP3   OH272414   6.274   3.723  14.933 -0.5749 -0.0354 -0.0400
17000TIP3    H172415   6.295   3.709  14.841 -1.3900  0.1767 -0.2613
17000TIP3    H272416   6.286   3.817  14.946  0.0198 -0.1401  0.1979
17001TIP3   OH272417   6.108   1.840  11.620 -0.4863 -0.5253 -0.1378
17001TIP3    H172418   6.137   1.809  11.706  2.4354 -0.6862 -1.0818
17001TIP3    H272419   6.056   1.768  11.585  1.2450 -1.9870  0.1254
17002TIP3   OH272420   0.353   0.774   1.841 -0.2570 -0.2352  0.0540
17002TIP3    H172421   0.430   0.798   1.893 -0.2239 -0.5874  0.1708
17002TIP3    H272422   0.303   0.716   1.898  0.2529 -1.4067 -0.6448
17003TIP3   OH272423   2.157   1.724   5.708 -0.1276 -0.0946 -0.7894
17003TIP3    H172424   2.224   1.673   5.664  0.4191  2.6067 -3.4459
17003TIP3    H272425   2.205   1.781   5.768 -0.2823  0.1555 -0.8995
17004TIP3   OH272426   5.183   3.927   4.947  0.3858 -0.2038  0.2235
17004TIP3    H172427   5.231   4.009   4.948  2.2489 -1.2453  0.7842
17004TIP3    H272428   5.103   3.946   4.897  2.0610  1.2335 -2.0535
17005TIP3   OH272429   5.504   0.958   0.195 -0.1125 -0.5473  0.5412
17005TIP3    H172430   5.413   0.971   0.169 -0.4662 -0.3041  1.8565
17005TIP3    H272431   5.506   0.980   0.288  1.6216  0.9886  0.1790
17006TIP3   OH272432   1.698   6.736  15.420  0.1753  0.3415  0.1362
17006TIP3    H172433   1.684   6.642  15.410 -1.4758  0.8330 -3.2684
17006TIP3    H272434   1.719   6.768  15.332  1.0967  3.1468  1.2427
17007TIP3   OH272435   5.856   2.265  15.447  0.6443  0.0589 -0.2875
17007TIP3    H172436   5.922   2.251  15.515  1.6272 -1.1936 -1.4315
17007TIP3    H272437   5.833   2.177  15.419 -0.1366  0.5436 -1.2027
17008TIP3   OH272438   3.462   3.080   2.647  0.1912 -0.2228 -0.0193
17008TIP3    H172439   3.554   3.102   2.665 -0.2270  0.2594  1.7688
17008TIP3    H272440   3.460   3.057   2.554  1.9172  0.8429 -0.3630
17009TIP3   OH272441   5.884   0.916   0.503 -0.0202 -0.2533  0.0722
17009TIP3    H172442   5.813   0.862   0.538  0.4184 -0.6822  0.3171
17009TIP3    H272443   5.845   1.003   0.493 -0.3327 -0.2595  1.0747
17010TIP3   OH272444   6.205   6.042   4.514 -0.0509 -0.2248 -0.6042
17010TIP3    H172445   6.193   6.056   4.420 -3.0681  0.8229 -0.1840
17010TIP3    H272446   6.219   5.948   4.522  2.1838 -0.1178 -2.1654
17011TIP3   OH272447   4.046   6.690  16.832 -0.9762 -0.0590 -0.3951
17011TIP3    H172448   3.951   6.703  16.836 -0.8276  1.1972 -0.4588
17011TIP3    H272449   4.081   6.750  16.898 -0.2599 -1.1486  0.2544
17012TIP3   OH272450   6.103   2.788  16.044  0.0358 -0.2580  0.2128
17012TIP3    H172451   6.047   2.722  16.003 -0.6910  0.0013  0.7724
17012TIP3    H272452   6.093   2.773  16.138 -3.1757  2.9998  0.5919
17013TIP3   OH272453   6.037   5.236  12.280  0.4936 -0.4285 -0.1779
17013TIP3    H172454   6.042   5.331  12.284  0.2825 -0.3846 -0.8062
17013TIP3    H272455   6.060   5.214  12.190  0.9393 -1.0001  0.0687
17014TIP3   OH272456   2.582   6.461  13.041 -0.8624 -0.1734 -1.0181
17014TIP3    H172457   2.526   6.539  13.033  0.3616  1.1572  2.0051
17014TIP3    H272458   2.522   6.387  13.028 -1.8144  1.0880 -5.4178
17015TIP3   OH272459   5.639   1.128  16.499  0.4044  0.1859 -0.7004
17015TIP3    H172460   5.655   1.065  16.568 -2.4209 -0.2346 -0.2904
17015TIP3    H272461   5.611   1.075  16.424  2.4403  0.7021 -1.8902
17016TIP3   OH272462   1.569   3.420   6.132 -0.1033 -0.0182 -0.2268
17016TIP3    H172463   1.662   3.443   6.129  0.3974 -1.8411 -0.1137
17016TIP3    H272464   1.530   3.486   6.190  0.9620  1.1951 -0.8382
17017TIP3   OH272465   2.731   0.419   6.217 -0.2237  0.1700  0.3959
17017TIP3    H172466   2.824   0.400   6.230 -0.2121  0.3294  0.5532
17017TIP3    H272467   2.713   0.388   6.129  0.1533  0.7751  0.0935
17018TIP3   OH272468   0.680   5.056   6.106  0.5951 -0.1084 -0.2482
17018TIP3    H172469   0.633   4.975   6.122 -0.1634  0.4053  0.1840
17018TIP3    H272470   0.629   5.101   6.038 -0.0767  0.8676  0.8715
17019TIP3   OH272471   4.723   4.718   5.474 -0.2509 -1.0029 -0.1187
17019TIP3    H172472   4.754   4.631   5.500  1.0472 -1.1785 -2.0143
17019TIP3    H272473   4.658   4.741   5.540  0.3145 -2.8456  1.1702
17020TIP3   OH272474   1.299   0.486  13.218  0.1457 -0.0564  0.5117
17020TIP3    H172475   1.248   0.563  13.193 -0.4707 -0.3075  0.9674
17020TIP3    H272476   1.354   0.468  13.141 -0.9581 -0.2006 -0.2792
17021TIP3   OH272477   4.304   3.715   1.818  0.1805  0.4819  0.5815
17021TIP3    H172478   4.241   3.724   1.747 -0.3001 -0.3076  0.8999
17021TIP3    H272479   4.251   3.696   1.895  0.8429 -0.7833  0.7383
17022TIP3   OH272480   3.864   5.242   1.661 -0.1790  0.2537 -1.4110
17022TIP3    H172481   3.919   5.257   1.585  0.7970  1.3788 -0.5210
17022TIP3    H272482   3.868   5.324   1.711  0.9493 -1.1236  0.9357
17023TIP3   OH272483   2.586   0.581  14.210  0.5922  1.0094  0.1688
17023TIP3    H172484   2.523   0.525  14.255  1.4754 -0.3138 -0.1765
17023TIP3    H272485   2.532   0.641  14.158 -0.4073  1.6325  1.8579
17024TIP3   OH272486   1.383   1.247   6.169 -0.3346  0.1259 -0.6419
17024TIP3    H172487   1.385   1.247   6.265 -0.5880 -2.7208 -0.5617
17024TIP3    H272488   1.309   1.304   6.146 -0.5006  0.5494  0.8424
17025TIP3   OH272489   1.899   5.871  14.949 -0.3613  0.3352 -0.0724
17025TIP3    H172490   1.832   5.847  15.012 -0.7533 -0.6711 -0.8482
17025TIP3    H272491   1.858   5.858  14.864  0.2345  1.4514 -0.5553
17026TIP3   OH272492   4.400   3.613  15.504 -0.6675 -0.2187  0.0017
17026TIP3    H172493   4.343   3.553  15.455  2.3317 -2.3048 -1.1873
17026TIP3    H272494   4.441   3.667  15.436 -1.5867  1.7174  0.8971
17027TIP3   OH272495   5.977   4.748  15.654 -0.2645  0.1046 -0.2328
17027TIP3    H172496   5.924   4.827  15.642  0.8770  1.0768  0.8438
17027TIP3    H272497   5.915   4.682  15.684 -0.9661  1.0970  0.5952
17028TIP3   OH272498   0.700   1.377  13.817  0.0741 -0.1675  0.5357
17028TIP3    H172499   0.646   1.329  13.880 -0.0443  0.4803  0.9368
17028TIP3    H272500   0.699   1.467  13.848 -1.2886  0.5029 -1.2534
17029TIP3   OH272501   2.599   3.329  12.439 -0.1662  0.2464 -0.0935
17029TIP3    H172502   2.603   3.255  12.378  0.1289 -0.0231  0.2491
17029TIP3    H272503   2.505   3.339  12.458 -0.2604  0.3374 -0.5903
17030TIP3   OH272504   4.323   4.373  10.982 -0.3169 -0.7224 -0.1527
17030TIP3    H172505   4.331   4.466  10.961  0.7804 -0.6480  0.5324
17030TIP3    H272506   4.284   4.334  10.904  0.0307  0.1733 -0.7858
17031TIP3   OH272507   5.560   3.222  13.417 -0.0770 -0.8944 -0.1216
17031TIP3    H172508   5.498   3.232  13.345 -0.7436 -1.2537  0.3928
17031TIP3    H272509   5.641   3.262  13.385 -1.4465  2.6062  0.4141
17032TIP3   OH272510   2.104   6.016   0.460  0.2296  0.0008 -0.9622
17032TIP3    H172511   2.180   6.044   0.409 -0.2864  1.7215 -0.8572
17032TIP3    H272512   2.030   6.034   0.402 -0.1224 -1.8662 -1.1560
17033TIP3   OH272513   4.676   4.057   1.284 -0.0515 -0.0697  0.0344
17033TIP3    H172514   4.662   4.015   1.369 -1.2621 -0.2671 -0.2408
17033TIP3    H272515   4.700   3.984   1.226  1.5283  0.1634  0.3347
17034TIP3   OH272516   1.417   5.419   4.072 -0.2568  0.3189  0.0729
17034TIP3    H172517   1.417   5.398   4.166  3.1340  1.5578  0.4993
17034TIP3    H272518   1.382   5.508   4.068 -0.6439  0.1732  0.0815
17035TIP3   OH272519   2.816   3.652  15.247  0.1342 -0.6247 -0.2999
17035TIP3    H172520   2.803   3.740  15.282  1.0919 -0.7835  0.5067
17035TIP3    H272521   2.847   3.666  15.157 -1.0140 -0.1904 -0.6525
17036TIP3   OH272522   5.607   2.643  13.898  0.5844 -0.1153 -0.0608
17036TIP3    H172523   5.623   2.725  13.853  0.1436 -0.6019 -1.1194
17036TIP3    H272524   5.633   2.575  13.836 -0.3433 -0.8051  0.2766
17037TIP3   OH272525   0.872   6.068  15.787 -0.5505  0.1035  0.6466
17037TIP3    H172526   0.820   6.000  15.744  0.4070 -0.6261  0.6014
17037TIP3    H272527   0.918   6.022  15.856 -0.7975  0.9545  1.3955
17038TIP3   OH272528   2.635   0.460  15.344  0.1716  0.2413  0.1298
17038TIP3    H172529   2.596   0.438  15.259  1.0864 -0.7078 -0.0828
17038TIP3    H272530   2.572   0.429  15.408  0.7332 -1.7753 -0.1962
17039TIP3   OH272531   0.401   3.187   5.991 -0.1783  0.2156 -0.3130
17039TIP3    H172532   0.374   3.222   6.076  1.4901  0.4362  0.1587
17039TIP3    H272533   0.344   3.231   5.928 -0.3051  1.3401  0.5468
17040TIP3   OH272534   3.583   1.808  16.989 -0.0649 -0.4870  0.0049
17040TIP3    H172535   3.564   1.873  16.921  0.3365 -0.5639 -0.1849
17040TIP3    H272536   3.534   1.730  16.963  1.9661 -1.3344 -1.5329
17041TIP3   OH272537   1.762   2.375  14.574  0.3020  0.4045  0.3917
17041TIP3    H172538   1.745   2.361  14.480 -0.7782  1.8572  0.3288
17041TIP3    H272539   1.855   2.396  14.578  0.7853 -1.4951 -0.1045
17042TIP3   OH272540   6.528   5.271  13.410 -0.3799 -0.0785 -0.3570
17042TIP3    H172541   6.516   5.219  13.489 -1.2832  1.2118  0.3881
17042TIP3    H272542   6.619   5.255  13.384  0.2532  0.2919  1.5385
17043TIP3   OH272543   2.178   2.366  14.082  0.7357  0.2041 -0.2046
17043TIP3    H172544   2.095   2.383  14.127  1.1089  2.0358 -0.1401
17043TIP3    H272545   2.243   2.412  14.135  1.4840  0.6141 -1.4600
17044TIP3   OH272546   0.398   2.902   0.078  0.2647  0.1896  0.1469
17044TIP3    H172547   0.466   2.960   0.045 -0.5444  1.5094  0.6916
17044TIP3    H272548   0.355   2.953   0.147  1.5859 -2.2391  3.0049
17045TIP3   OH272549   5.148   5.072   1.982  0.9216 -0.1280  0.2167
17045TIP3    H172550   5.154   4.998   2.042 -0.9841  0.0844  0.7599
17045TIP3    H272551   5.237   5.086   1.951  1.3405 -2.5749  0.1685
17046TIP3   OH272552   1.804   0.119  13.295  0.4510 -0.1639  0.2050
17046TIP3    H172553   1.820   0.031  13.261 -0.5353 -1.0709  1.9099
17046TIP3    H272554   1.713   0.117  13.325  0.1656  1.6896 -0.4036
17047TIP3   OH272555   6.694   4.458  11.502  0.2482 -0.2685  0.4914
17047TIP3    H172556   6.673   4.440  11.593 -2.3789  2.4384  0.5647
17047TIP3    H272557   6.743   4.541  11.504 -0.7533  0.3853 -0.5618
17048TIP3   OH272558   5.413   3.514  11.286 -0.3256 -0.0279 -0.6770
17048TIP3    H172559   5.337   3.494  11.340 -1.0061  1.9039 -0.8532
17048TIP3    H272560   5.381   3.507  11.196 -0.3473  0.8877 -0.7509
17049TIP3   OH272561   2.921   5.162  10.877 -0.3734 -0.3943  0.1768
17049TIP3    H172562   2.854   5.095  10.865  0.8459 -1.8656  1.1727
17049TIP3    H272563   2.990   5.139  10.815  0.2401 -0.3000  0.8161
17050TIP3   OH272564   1.299   3.294  16.218  0.0616 -0.3523  0.4484
17050TIP3    H172565   1.269   3.357  16.152 -0.0572 -1.2383 -0.3647
17050TIP3    H272566   1.393   3.310  16.226  0.5822 -1.8033 -1.7490
17051TIP3   OH272567   6.749   5.141   1.763  0.4264 -0.3972  0.1319
17051TIP3    H172568   6.809   5.198   1.812  0.4288 -1.5504  1.5181
17051TIP3    H272569   6.798   5.117   1.684  0.5099  1.3082 -0.3769
17052TIP3   OH272570   1.257   4.313  17.213 -0.1565  0.2617 -0.3058
17052TIP3    H172571   1.217   4.227  17.225 -0.6614  0.5166 -0.1299
17052TIP3    H272572   1.222   4.344  17.129  0.8025 -0.1225 -0.8586
17053TIP3   OH272573   5.069   2.395   2.855  0.3843 -0.1443  0.1479
17053TIP3    H172574   5.039   2.387   2.765  2.5322 -0.7076 -0.5727
17053TIP3    H272575   5.054   2.309   2.894 -0.6044  0.1186  0.3743
17054TIP3   OH272576   5.216   0.975  14.109 -0.5407  0.0212  0.4932
17054TIP3    H172577   5.137   0.953  14.060 -0.3000 -0.8426  0.4737
17054TIP3    H272578   5.287   0.943  14.055 -0.2624 -0.7552  1.2978
17055TIP3   OH272579   2.800   3.197   0.557 -0.8906 -0.5050 -0.0354
17055TIP3    H172580   2.736   3.150   0.504 -0.0143 -2.1599  0.3299
17055TIP3    H272581   2.791   3.160   0.645 -0.1280 -0.0450  0.2478
17056TIP3   OH272582   6.653   6.446   1.954 -0.2026 -0.3072  0.3772
17056TIP3    H172583   6.746   6.472   1.950 -0.3830  0.3085  0.0938
17056TIP3    H272584   6.612   6.513   2.009 -0.8644  0.5977 -1.1639
17057TIP3   OH272585   3.865   4.311  11.014  0.3436  0.2436 -0.0645
17057TIP3    H172586   3.812   4.343  10.941 -0.8221  0.1106  0.7028
17057TIP3    H272587   3.864   4.216  11.005 -1.5305  0.0913  1.2530
17058TIP3   OH272588   4.834   3.930   5.007  0.2728 -0.0046 -0.5746
17058TIP3    H172589   4.869   3.896   4.924 -0.1465  0.4981 -0.9648
17058TIP3    H272590   4.887   3.887   5.074 -0.3811 -1.6227 -1.0287
17059TIP3   OH272591   6.585   0.946  13.169  0.1683  0.3313 -0.1673
17059TIP3    H172592   6.676   0.921  13.185 -0.5437 -0.7381  3.0616
17059TIP3    H272593   6.538   0.863  13.159 -0.8878  0.6357  1.6460
17060TIP3   OH272594   2.981   0.328  16.887  0.0276 -0.3109 -0.8573
17060TIP3    H172595   3.006   0.418  16.866 -0.6719 -0.1265 -0.9090
17060TIP3    H272596   2.912   0.336  16.953  2.3473 -0.8844  1.8292
17061TIP3   OH272597   6.401   0.162  13.034  0.0066  0.1387  0.1045
17061TIP3    H172598   6.368   0.092  12.978  3.2625 -0.3524 -1.4205
17061TIP3    H272599   6.384   0.131  13.123 -2.2989 -0.5957 -0.5104
17062TIP3   OH272600   5.032   4.723   4.772 -0.5962 -0.0054 -0.1860
17062TIP3    H172601   5.068   4.785   4.835 -0.7371  1.3462 -1.3811
17062TIP3    H272602   4.977   4.665   4.825  0.3067  0.2641  1.1051
17063TIP3   OH272603   1.816   6.532  16.845  0.3679  0.3457  0.0849
17063TIP3    H172604   1.734   6.486  16.861  0.0074  1.1555  0.6378
17063TIP3    H272605   1.792   6.600  16.781  1.1529 -0.9806 -1.6850
17064TIP3   OH272606   6.005   1.932  15.210  0.1061  0.5814 -0.1207
17064TIP3    H172607   5.947   1.947  15.284  0.5548 -0.0493  0.3716
17064TIP3    H272608   5.978   1.996  15.144 -0.5096  0.9266  0.4625
17065TIP3   OH272609   1.887   6.754   1.980 -0.7479 -0.3647  0.4267
17065TIP3    H172610   1.918   6.842   2.003  0.0991 -0.7820  0.9559
17065TIP3    H272611   1.863   6.714   2.064 -0.5855 -0.8300  0.2587
17066TIP3   OH272612   2.202   1.257  16.247 -0.1948  0.4121 -0.1065
17066TIP3    H172613   2.196   1.267  16.152 -1.1020  1.4318  0.0390
17066TIP3    H272614   2.292   1.229  16.263 -0.3023 -0.7316 -1.3328
17067TIP3   OH272615   5.642   4.511  11.942 -0.3729  0.0814 -0.6113
17067TIP3    H172616   5.669   4.556  12.022 -0.4421  0.0964 -0.5973
17067TIP3    H272617   5.719   4.517  11.885  0.3238 -1.4659  0.1025
17068TIP3   OH272618   0.819   5.456   3.582 -0.5611 -0.3372  0.3200
17068TIP3    H172619   0.860   5.541   3.600 -0.8632 -0.2051  0.3821
17068TIP3    H272620   0.796   5.460   3.489  0.3633 -0.7517  0.0604
17069TIP3   OH272621   4.361   4.415   5.318 -0.5921 -0.8677 -0.1435
17069TIP3    H172622   4.306   4.458   5.253  0.4944 -1.2044 -1.3120
17069TIP3    H272623   4.376   4.482   5.385  1.3649  0.7976 -2.0837
17070TIP3   OH272624   5.863   5.577   3.118  0.0086  0.4188 -0.4509
17070TIP3    H172625   5.768   5.580   3.103  0.0607 -1.7300 -1.6575
17070TIP3    H272626   5.872   5.584   3.213 -1.5964 -2.0056 -0.0253
17071TIP3   OH272627   0.123   0.632  12.902 -0.0014  0.1231 -0.1759
17071TIP3    H172628   0.186   0.609  12.833  1.6002  0.1293  1.1999
17071TIP3    H272629   0.078   0.550  12.921 -0.0756 -0.0006 -0.8449
17072TIP3   OH272630   0.532   0.185   0.074  0.0799  0.7215  0.0188
17072TIP3    H172631   0.498   0.270   0.101  0.1873  1.5873 -2.2680
17072TIP3    H272632   0.510   0.180  -0.019  1.2251 -1.1853 -0.1972
17073TIP3   OH272633   2.042   3.384   2.252 -0.0145  0.3973 -0.3125
17073TIP3    H172634   1.980   3.316   2.278  0.7025 -0.6122 -1.1874
17073TIP3    H272635   2.075   3.356   2.167  3.2543 -0.2374  1.0179
17074TIP3   OH272636   0.487   3.632  14.542  0.5436  0.4958  0.2843
17074TIP3    H172637   0.518   3.619  14.631  0.4175  0.6171  0.3450
17074TIP3    H272638   0.425   3.705  14.548  0.3135  0.3134  0.1467
17075TIP3   OH272639   0.206   0.341   0.532 -0.3681 -0.0255  0.3645
17075TIP3    H172640   0.135   0.356   0.594  0.1299  0.4035  0.8487
17075TIP3    H272641   0.278   0.309   0.586  0.2031  0.7357  0.0824
17076TIP3   OH272642   3.939   2.111   1.588 -0.0095  0.0837  0.1199
17076TIP3    H172643   3.936   2.127   1.494 -1.7991  1.6546  0.3762
17076TIP3    H272644   3.969   2.194   1.626 -1.7236  0.3389  1.0345
17077TIP3   OH272645   3.564   0.104  15.713  0.2708  0.8686  0.4331
17077TIP3    H172646   3.636   0.144  15.665  1.0919 -0.4297  0.5330
17077TIP3    H272647   3.560   0.153  15.795  0.5640  1.4111  0.1298
17078TIP3   OH272648   4.781   2.873   5.786 -0.4945  0.8570 -0.1206
17078TIP3    H172649   4.721   2.944   5.808 -1.4596  0.3124 -0.9383
17078TIP3    H272650   4.727   2.795   5.786  0.7264 -0.0617  1.6840
17079TIP3   OH272651   0.851   0.015  14.208 -0.3171  0.8150 -0.8059
17079TIP3    H172652   0.807  -0.006  14.126  1.4538  0.2648 -1.6581
17079TIP3    H272653   0.813   0.098  14.236 -2.6140 -0.1318 -0.9242
17080TIP3   OH272654   4.904   4.947   0.832 -0.2825  0.4799 -0.2304
17080TIP3    H172655   4.882   5.040   0.831  1.5703  0.9983  1.2740
17080TIP3    H272656   4.857   4.912   0.908 -1.8471 -0.0991 -1.4177
17081TIP3   OH272657   5.336   2.063   4.239  0.5268  0.2386 -0.9890
17081TIP3    H172658   5.296   2.070   4.325  0.2063 -1.7939 -0.9250
17081TIP3    H272659   5.429   2.048   4.257  0.8851  2.0862 -1.0860
17082TIP3   OH272660   0.386   5.938  15.188 -0.1247  0.1347  0.0475
17082TIP3    H172661   0.442   5.875  15.141 -0.7492  0.9176 -1.8426
17082TIP3    H272662   0.411   6.023  15.153  0.0955  0.8808  1.9456
17083TIP3   OH272663   6.658   3.609  14.667 -0.0105 -0.1563 -0.1007
17083TIP3    H172664   6.657   3.588  14.760 -0.7771 -0.9825 -0.2873
17083TIP3    H272665   6.748   3.591  14.639 -0.0311 -0.8617  0.2728
17084TIP3   OH272666   2.811   6.542  11.367 -0.1588 -0.0914  0.0545
17084TIP3    H172667   2.756   6.613  11.400  1.7055  1.5364 -0.1301
17084TIP3    H272668   2.846   6.500  11.445  1.0613  1.1544  0.2169
17085TIP3   OH272669   4.662   3.233  11.530 -0.1446  0.5548  0.1226
17085TIP3    H172670   4.623   3.206  11.614 -0.1011 -0.4239 -0.1630
17085TIP3    H272671   4.756   3.219  11.542 -0.1859 -0.1222 -0.2650
17086TIP3   OH272672   2.701   1.622  10.440 -0.0971 -0.6171 -0.1010
17086TIP3    H172673   2.663   1.535  10.449  0.5801 -0.7385  2.2546
17086TIP3    H272674   2.795   1.610  10.455  0.1654  0.3619 -0.8360
17087TIP3   OH272675   0.259   6.744   5.770  0.2237 -0.4688 -0.1356
17087TIP3    H172676   0.314   6.747   5.848  0.9580 -0.1356 -0.6543
17087TIP3    H272677   0.250   6.651   5.751 -0.3969 -0.5770  0.6423
17088TIP3   OH272678   2.440   0.235   2.038  0.4998  0.0226  0.0027
17088TIP3    H172679   2.349   0.217   2.014 -0.1375  1.7022  0.9755
17088TIP3    H272680   2.459   0.174   2.109 -0.0284 -0.0361  0.1011
17089TIP3   OH272681   5.830   1.109  13.424 -0.3221 -0.0715  0.1979
17089TIP3    H172682   5.896   1.064  13.477  0.1318  0.5898  0.2067
17089TIP3    H272683   5.865   1.198  13.412 -1.9466  0.8491  1.6275
17090TIP3   OH272684   1.411   4.077   5.410  0.2666  1.0491 -0.4479
17090TIP3    H172685   1.414   4.134   5.487 -0.0520 -0.4932  0.7686
17090TIP3    H272686   1.327   4.032   5.417  0.1020  1.0959 -1.8881
17091TIP3   OH272687   4.985   5.468  14.424  0.0088  0.1113 -0.5807
17091TIP3    H172688   4.952   5.456  14.513 -1.9234 -1.2817 -1.4148
17091TIP3    H272689   5.079   5.477  14.434 -0.3243  1.9469  1.7623
17092TIP3   OH272690   1.009   4.489   5.206  0.2694 -0.2541  0.5416
17092TIP3    H172691   1.091   4.472   5.161 -0.3304  1.0967 -1.1732
17092TIP3    H272692   1.010   4.583   5.223 -0.3961 -0.4278  1.6067
17093TIP3   OH272693   6.156   2.144  13.213  0.3634  0.4151 -0.3639
17093TIP3    H172694   6.085   2.208  13.214 -1.3260 -1.3664  0.1686
17093TIP3    H272695   6.126   2.075  13.272  2.4084 -0.5564 -0.3980
17094TIP3   OH272696   1.792   5.900  14.414 -0.1717  0.2809  0.1932
17094TIP3    H172697   1.723   5.965  14.409 -0.8813 -0.4435  0.2912
17094TIP3    H272698   1.832   5.900  14.327  0.0180  1.0233  0.2735
17095TIP3   OH272699   2.397   0.683   2.936 -0.0545  0.1554 -0.2831
17095TIP3    H172700   2.481   0.643   2.910 -1.2024 -1.9278 -1.0597
17095TIP3    H272701   2.363   0.624   3.004 -0.4553  1.5361  0.7521
17096TIP3   OH272702   5.123   0.488  13.679  0.2397 -0.1039  0.0558
17096TIP3    H172703   5.173   0.470  13.759 -1.1500 -2.5796  0.4740
17096TIP3    H272704   5.076   0.569  13.698  1.6172  0.5543  0.8378
17097TIP3   OH272705   4.921   5.601  15.364  0.1812 -0.3605 -0.5243
17097TIP3    H172706   4.838   5.645  15.349 -0.2862 -1.0588 -0.0179
17097TIP3    H272707   4.910   5.514  15.326  0.1091 -1.0185  0.9306
17098TIP3   OH272708   4.184   2.815   5.509  0.2222  0.2667  0.8841
17098TIP3    H172709   4.228   2.753   5.568  0.7250 -0.2888 -0.0506
17098TIP3    H272710   4.100   2.773   5.489 -0.4353  0.9589  2.0303
17099TIP3   OH272711   5.397   1.510   1.942 -0.5343 -0.2599 -0.1485
17099TIP3    H172712   5.462   1.533   2.008 -0.2748  0.3077 -0.5854
17099TIP3    H272713   5.450   1.485   1.865 -0.8235  0.0150 -0.4415
17100TIP3   OH272714   4.328   6.752  14.851 -0.1349 -0.2285 -0.3274
17100TIP3    H172715   4.310   6.658  14.845 -1.0103 -0.0319 -0.9737
17100TIP3    H272716   4.424   6.759  14.843 -0.0698 -1.0611 -0.3129
17101TIP3   OH272717   5.306   4.956   0.051  0.3034 -0.3595  0.2328
17101TIP3    H172718   5.393   4.989   0.028 -0.1306  0.5204 -0.2314
17101TIP3    H272719   5.300   4.966   0.146  0.6346 -0.2257  0.2391
17102TIP3   OH272720   5.592   1.102   0.431  0.1070  0.0247 -0.8165
17102TIP3    H172721   5.518   1.151   0.469 -0.2586 -0.3210 -1.0742
17102TIP3    H272722   5.669   1.135   0.478 -0.3951 -0.8018  0.6738
17103TIP3   OH272723   4.696   6.680  14.103  0.1446  0.2161 -0.1818
17103TIP3    H172724   4.777   6.693  14.152 -0.5100  1.2511  0.6518
17103TIP3    H272725   4.629   6.664  14.169 -0.0286 -2.8528 -0.9130
17104TIP3   OH272726   3.492   5.606   1.554 -0.3017  0.0350  0.3107
17104TIP3    H172727   3.429   5.576   1.619 -0.3587 -1.4853 -0.4146
17104TIP3    H272728   3.533   5.682   1.595  0.0927 -1.2127  2.4053
17105TIP3   OH272729   3.362   0.896   4.893  0.1576 -0.0015  0.0156
17105TIP3    H172730   3.391   0.955   4.824  2.1615 -0.2984  0.5422
17105TIP3    H272731   3.352   0.811   4.849 -1.4463  0.4052 -0.4691
17106TIP3   OH272732   1.209   5.361   5.421 -0.7575 -0.5819  0.1795
17106TIP3    H172733   1.213   5.414   5.501  1.9544  0.3960 -0.5132
17106TIP3    H272734   1.127   5.389   5.379 -2.4258 -1.3448  2.6669
17107TIP3   OH272735   1.790   6.047   7.259  0.2425  0.2362  0.2861
17107TIP3    H172736   1.848   6.030   7.185  0.6070  0.6410  0.4731
17107TIP3    H272737   1.798   5.968   7.314  1.1170  0.5424  0.6264
17108TIP3   OH272738   6.554   4.904  16.722  0.1781 -0.0140 -0.0340
17108TIP3    H172739   6.471   4.856  16.720  0.2134 -0.1119  0.7100
17108TIP3    H272740   6.565   4.931  16.813  0.0856  1.5589 -0.4499
17109TIP3   OH272741   0.091   0.317   1.704 -0.2077 -0.2675  0.0458
17109TIP3    H172742   0.118   0.252   1.639  0.5807  0.7807 -0.7136
17109TIP3    H272743   0.126   0.284   1.787  3.1474  0.7782 -0.8059
17110TIP3   OH272744   4.246   0.287  14.310 -0.2468  0.0993  0.3293
17110TIP3    H172745   4.258   0.359  14.248 -1.7951 -2.2146 -2.9960
17110TIP3    H272746   4.328   0.238  14.305  0.3135  0.8750  1.5853
17111TIP3   OH272747   0.821   4.718  10.700 -0.5228 -0.2121 -0.2675
17111TIP3    H172748   0.810   4.746  10.791  1.4719 -0.8048  0.2120
17111TIP3    H272749   0.822   4.799  10.650 -3.8114  0.0392 -0.1145
17112TIP3   OH272750   1.528   0.029   3.887 -0.0018  0.0172 -0.4946
17112TIP3    H172751   1.492  -0.007   3.968  1.5861 -0.5308  0.0170
17112TIP3    H272752   1.565   0.113   3.913 -0.0894  0.1477 -0.7950
17113TIP3   OH272753   1.228   4.398  13.739 -0.3860  0.5885  0.2940
17113TIP3    H172754   1.240   4.322  13.796  2.3517  1.5170  1.1070
17113TIP3    H272755   1.243   4.473  13.795 -1.0479  1.6763 -0.9292
17114TIP3   OH272756   6.338   5.036  15.081  0.4601  0.0160  0.0190
17114TIP3    H172757   6.349   5.037  14.986  3.7218  1.2174  0.2671
17114TIP3    H272758   6.371   4.951  15.109 -2.2419 -1.1129  0.0360
17115TIP3   OH272759   2.973   2.602  11.660 -0.2724  0.0787  0.2582
17115TIP3    H172760   2.921   2.577  11.736  0.0345 -0.8458  0.1719
17115TIP3    H272761   3.042   2.536  11.654  0.2224  0.6216 -0.3233
17116TIP3   OH272762   4.013   3.126  12.520 -0.5943 -0.2439 -0.0280
17116TIP3    H172763   3.968   3.062  12.465  0.5148  0.1510 -1.4730
17116TIP3    H272764   4.106   3.104  12.511 -0.0815  2.0792 -1.3559
17117TIP3   OH272765   6.158   0.868  17.024 -0.0686  0.6762 -0.1348
17117TIP3    H172766   6.201   0.881  16.940 -0.8437  2.6490 -0.2605
17117TIP3    H272767   6.200   0.931  17.083  0.9447 -1.1213  1.2056
17118TIP3   OH272768   2.719   4.017  17.046 -0.8164 -0.5216 -0.6275
17118TIP3    H172769   2.758   3.969  16.973  0.3974 -0.7074  0.1028
17118TIP3    H272770   2.645   3.962  17.074 -0.2437 -1.3239 -0.6420
17119TIP3   OH272771   1.598   0.701  14.114 -0.3037  0.3454 -0.1980
17119TIP3    H172772   1.513   0.712  14.158 -1.3945  0.0967 -2.1257
17119TIP3    H272773   1.641   0.786  14.124 -0.6024  0.3547  1.1379
17120TIP3   OH272774   4.900   6.664  13.322  0.2258  0.2122 -0.3299
17120TIP3    H172775   4.819   6.624  13.292  0.8368 -0.1493 -1.5846
17120TIP3    H272776   4.928   6.610  13.396 -0.8575  0.5727  0.3604
17121TIP3   OH272777   1.612   6.726   5.513 -0.3849 -0.3761 -1.2190
17121TIP3    H172778   1.557   6.737   5.591 -1.1067 -0.1261 -1.7602
17121TIP3    H272779   1.702   6.726   5.547 -0.6269  1.0651 -0.5242
17122TIP3   OH272780   3.135   0.542   5.839  0.0667  0.3189  0.1795
17122TIP3    H172781   3.152   0.449   5.858  0.3268  0.3715  0.2113
17122TIP3    H272782   3.196   0.589   5.895 -0.4627  0.5303  0.5907
17123TIP3   OH272783   5.187   6.530   1.404  0.3475 -0.5924 -0.3543
17123TIP3    H172784   5.235   6.606   1.438  1.8360 -2.3728  1.8052
17123TIP3    H272785   5.111   6.521   1.462 -0.4940 -0.0909 -1.3483
17124TIP3   OH272786   5.214   2.808  11.810 -0.4628 -0.5080 -0.0109
17124TIP3    H172787   5.198   2.720  11.775 -0.1450 -0.1586 -1.0651
17124TIP3    H272788   5.298   2.800  11.857  0.5267 -0.3581 -1.6796
17125TIP3   OH272789   3.389   4.343   0.642  0.5933 -0.0674 -0.1961
17125TIP3    H172790   3.402   4.431   0.607  1.3980 -0.2632 -0.4229
17125TIP3    H272791   3.478   4.310   0.658  0.2903 -0.6606  0.3348
17126TIP3   OH272792   4.543   6.615   6.874  0.1643  0.3248 -0.5194
17126TIP3    H172793   4.475   6.552   6.898  2.4916 -2.0507  0.3101
17126TIP3    H272794   4.593   6.571   6.806  1.7968  1.2966 -0.0002
17127TIP3   OH272795   4.206   3.453  13.703  0.4211  0.7355  0.4832
17127TIP3    H172796   4.152   3.389  13.749  1.1828 -2.7303 -2.9482
17127TIP3    H272797   4.287   3.457  13.754  1.0544 -2.5589 -0.0080
17128TIP3   OH272798   2.417   3.818  12.813  0.2052  0.3281  0.1914
17128TIP3    H172799   2.478   3.771  12.756  1.0163  1.3377  0.1994
17128TIP3    H272800   2.357   3.750  12.845 -1.2287 -0.0885 -3.0016
17129TIP3   OH272801   0.684   1.164  11.420  0.0126  0.2238  0.1723
17129TIP3    H172802   0.704   1.083  11.373  1.1623  1.4446 -1.5811
17129TIP3    H272803   0.766   1.213  11.419 -0.9428  1.8897  0.1745
17130TIP3   OH272804   5.792   0.640   1.816 -0.0297 -0.2623 -0.0163
17130TIP3    H172805   5.750   0.726   1.816 -1.3956 -0.9030  0.2658
17130TIP3    H272806   5.875   0.654   1.769 -0.8005  0.9328 -1.1081
17131TIP3   OH272807   1.473   1.373  15.621 -1.1318 -0.3166 -0.2512
17131TIP3    H172808   1.452   1.401  15.532 -0.4520  1.8265  0.1987
17131TIP3    H272809   1.550   1.317  15.611 -2.1669 -1.6495 -1.1392
17132TIP3   OH272810   6.368   6.480  12.015 -0.5606 -0.7001  0.1628
17132TIP3    H172811   6.390   6.443  12.101  1.7620 -0.2097 -0.1560
17132TIP3    H272812   6.392   6.573  12.023  0.6174 -0.8533 -1.2951
17133TIP3   OH272813   6.714   2.142   2.119 -0.3906  0.3169  0.1931
17133TIP3    H172814   6.722   2.221   2.065  0.0897 -0.0182 -0.2205
17133TIP3    H272815   6.703   2.071   2.057  1.7199 -0.2848  0.4335
17134TIP3   OH272816   6.203   3.678   3.187  0.3351 -0.0318  0.3728
17134TIP3    H172817   6.271   3.725   3.235  1.0454 -0.0079 -0.6256
17134TIP3    H272818   6.244   3.595   3.163 -0.2179 -0.3017  0.3480
17135TIP3   OH272819   4.360   0.148   6.186 -0.1322  0.0619  0.1095
17135TIP3    H172820   4.414   0.084   6.139 -0.8162  0.4896 -1.3116
17135TIP3    H272821   4.315   0.096   6.252 -0.9957 -1.0507 -1.2873
17136TIP3   OH272822   0.962   6.629  13.143 -0.6616  0.0415 -0.2631
17136TIP3    H172823   1.035   6.684  13.173 -1.8139  0.2457  2.4200
17136TIP3    H272824   0.992   6.540  13.158 -0.6975  0.1054  0.1958
17137TIP3   OH272825   6.234   2.683  11.752 -0.3755 -0.4472  0.3159
17137TIP3    H172826   6.260   2.625  11.824 -0.2417  0.4796  1.0323
17137TIP3    H272827   6.154   2.644  11.717 -1.4149  0.0098  2.0960
17138TIP3   OH272828   5.093   3.212  16.222 -0.1542  0.4812  0.0128
17138TIP3    H172829   5.123   3.288  16.173 -0.2181  0.6167  0.1842
17138TIP3    H272830   5.010   3.240  16.261  0.4906  0.8042  1.2247
17139TIP3   OH272831   4.415   4.461   0.725  0.0096 -0.1469 -0.4584
17139TIP3    H172832   4.423   4.370   0.696  0.8503 -0.3304  0.2956
17139TIP3    H272833   4.408   4.455   0.820 -2.1648  0.4755 -0.5430
17140TIP3   OH272834   3.457   5.993   1.764  0.2371  0.0719  0.9852
17140TIP3    H172835   3.529   5.943   1.803  0.3893 -0.2897  0.2626
17140TIP3    H272836   3.490   6.020   1.678 -0.4041  0.0970  0.7394
17141TIP3   OH272837   3.669   1.427  12.481  0.1033  0.0484 -0.3164
17141TIP3    H172838   3.685   1.472  12.398 -1.5542 -0.7894 -1.1441
17141TIP3    H272839   3.754   1.390  12.505  0.8679  1.2838 -1.0298
17142TIP3   OH272840   6.024   5.060   6.112 -0.1323  0.1955 -0.0577
17142TIP3    H172841   6.113   5.030   6.130 -1.0821 -2.6960  0.3369
17142TIP3    H272842   6.016   5.143   6.160  2.0288  0.0686  0.6199
17143TIP3   OH272843   5.813   2.754  15.544 -0.1700  0.0198  0.6542
17143TIP3    H172844   5.747   2.768  15.476  0.6298  0.4597 -0.0662
17143TIP3    H272845   5.876   2.694  15.503 -0.9335 -1.7013  1.9019
17144TIP3   OH272846   4.992   6.290  14.584 -0.4850 -0.0041  0.4111
17144TIP3    H172847   5.032   6.203  14.578  0.2813  0.2723  1.2130
17144TIP3    H272848   4.992   6.323  14.495  0.7166 -0.1816  0.3297
17145TIP3   OH272849   3.349   1.792  13.318  0.2685  0.5992  0.0201
17145TIP3    H172850   3.360   1.697  13.304  0.4904  0.9054 -2.3767
17145TIP3    H272851   3.320   1.800  13.409  1.7960 -1.6438  0.7898
17146TIP3   OH272852   4.767   0.782  15.497 -0.3452  0.0704 -0.1983
17146TIP3    H172853   4.793   0.866  15.535  0.5226  0.0218 -0.6687
17146TIP3    H272854   4.819   0.717  15.545  1.2292  0.0470 -1.7966
17147TIP3   OH272855   1.664   0.717   4.338 -0.7376  0.6170 -0.3936
17147TIP3    H172856   1.688   0.807   4.315 -1.4618  1.2604  1.1976
17147TIP3    H272857   1.670   0.714   4.433 -2.8243 -0.3724 -0.2214
17148TIP3   OH272858   0.127   2.270   2.312  0.1478 -0.4269 -0.3458
17148TIP3    H172859   0.147   2.350   2.263 -1.8607  0.7724  0.6618
17148TIP3    H272860   0.103   2.206   2.244  0.2096  0.3141 -1.0810
17149TIP3   OH272861   0.054   5.666   4.449  0.9206  0.3963  0.0214
17149TIP3    H172862   0.006   5.709   4.519 -0.6825  0.6302 -1.1558
17149TIP3    H272863   0.072   5.578   4.482 -2.8877 -0.7446 -0.4383
17150TIP3   OH272864   0.426   3.807   1.030 -0.2110 -0.3081 -0.0158
17150TIP3    H172865   0.494   3.742   1.050  1.4549  1.1741 -0.5512
17150TIP3    H272866   0.399   3.841   1.115 -1.4601 -1.9859  0.3069
17151TIP3   OH272867   4.391   1.631  14.983  0.3460  0.1226  0.5671
17151TIP3    H172868   4.356   1.576  14.912  0.0293  0.3610  0.5374
17151TIP3    H272869   4.345   1.600  15.062  0.1475  0.3623  0.5463
17152TIP3   OH272870   1.703   4.124  12.798  0.4909 -0.6090 -0.0509
17152TIP3    H172871   1.755   4.045  12.809  2.4446  0.5708 -0.3109
17152TIP3    H272872   1.694   4.160  12.887  0.2545 -0.7199 -0.0285
17153TIP3   OH272873   3.521   4.163  13.636 -0.2025  0.3543  0.1269
17153TIP3    H172874   3.614   4.144  13.621 -0.6120 -0.4870 -1.4507
17153TIP3    H272875   3.499   4.229  13.571 -0.8022  0.3196  0.2892
17154TIP3   OH272876   1.325   6.119   1.524  0.4104  0.9831 -0.0604
17154TIP3    H172877   1.271   6.197   1.537 -1.2772  0.0927 -1.3119
17154TIP3    H272878   1.296   6.058   1.592  0.1266  0.6336 -0.4976
17155TIP3   OH272879   4.878   5.235   0.903  0.3062 -0.2857 -0.2404
17155TIP3    H172880   4.803   5.255   0.847  0.1708  0.1421  0.0926
17155TIP3    H272881   4.841   5.194   0.980  0.4811 -0.7343 -0.3916
17156TIP3   OH272882   1.466   5.700  12.311 -0.8109  0.0035  0.4237
17156TIP3    H172883   1.393   5.640  12.294 -1.3817  0.8938 -0.4080
17156TIP3    H272884   1.424   5.785  12.326  0.0722  1.0277 -2.2887
17157TIP3   OH272885   6.195   0.213   5.719 -0.0193 -0.0484  0.4509
17157TIP3    H172886   6.208   0.228   5.813 -0.4262  0.8393  0.3795
17157TIP3    H272887   6.100   0.218   5.707  0.1384  2.1431 -0.3421
17158TIP3   OH272888   0.652   3.939  14.074 -0.5433  0.4748  0.0607
17158TIP3    H172889   0.640   3.848  14.103  0.3213  0.2755 -0.1794
17158TIP3    H272890   0.587   3.951  14.005  0.7874 -0.6987 -1.4871
17159TIP3   OH272891   0.802   6.600  17.167  0.0445  0.5449 -0.5672
17159TIP3    H172892   0.762   6.619  17.082 -0.3116 -1.9408 -1.0156
17159TIP3    H272893   0.863   6.528  17.149 -1.3581 -1.3032  1.5484
17160TIP3   OH272894   5.752   3.743   0.797  0.1348  0.7419  0.3501
17160TIP3    H172895   5.772   3.692   0.876 -2.3360 -0.1582  0.5071
17160TIP3    H272896   5.829   3.733   0.742  1.4547  0.4109  2.1553
17161TIP3   OH272897   3.643   2.940  15.151  0.3553 -0.1666 -0.1779
17161TIP3    H172898   3.549   2.947  15.167  0.3782 -0.1521 -0.0494
17161TIP3    H272899   3.660   3.002  15.080  0.1508 -0.6755 -0.6834
17162TIP3   OH272900   4.508   3.667   3.313 -0.2118 -0.4493  0.6878
17162TIP3    H172901   4.424   3.680   3.356 -0.9127  0.1880 -0.8042
17162TIP3    H272902   4.554   3.603   3.368 -1.5116 -0.5296  1.7180
17163TIP3   OH272903   2.227   6.151  17.065 -0.0080  0.1979  0.0806
17163TIP3    H172904   2.263   6.136  16.978  0.2696  1.6341 -0.0657
17163TIP3    H272905   2.300   6.130  17.124 -0.4141 -1.4917  0.0464
17164TIP3   OH272906   0.435   4.304  13.982 -0.5924  0.6095  0.1967
17164TIP3    H172907   0.519   4.306  13.936 -0.8396  0.7331 -0.2415
17164TIP3    H272908   0.394   4.222  13.953 -0.6211  0.5411  0.4237
17165TIP3   OH272909   1.544   0.797  11.375 -0.3381 -0.7321 -0.1107
17165TIP3    H172910   1.533   0.805  11.280  0.9935 -0.9225 -0.3094
17165TIP3    H272911   1.465   0.753  11.405 -0.5255 -1.1997 -1.2233
17166TIP3   OH272912   5.372   4.512  12.915 -0.2983 -0.2678 -0.2739
17166TIP3    H172913   5.412   4.487  12.998 -0.3666 -2.1761 -0.7581
17166TIP3    H272914   5.443   4.510  12.852 -0.1726  1.5342 -0.2427
17167TIP3   OH272915   0.321   6.401   6.622 -0.1605 -0.1865  0.5750
17167TIP3    H172916   0.341   6.494   6.623  1.8309 -0.5916  1.5102
17167TIP3    H272917   0.227   6.397   6.640 -0.1388  1.5991  1.2681
17168TIP3   OH272918   4.861   6.583   2.637 -0.6177  0.2330 -0.5811
17168TIP3    H172919   4.794   6.540   2.583 -0.9407  0.7396 -0.5915
17168TIP3    H272920   4.942   6.539   2.612 -0.6673  0.8234 -1.9086
17169TIP3   OH272921   2.149   0.506   1.029  0.6590 -0.6476 -0.1396
17169TIP3    H172922   2.185   0.593   1.045 -0.2469 -0.4007  0.6432
17169TIP3    H272923   2.186   0.452   1.099 -0.9331 -0.2523  1.0476
17170TIP3   OH272924   4.960   2.112  14.302 -0.6471 -0.2258  0.1940
17170TIP3    H172925   4.889   2.064  14.257 -0.3633 -1.0755  0.6329
17170TIP3    H272926   5.040   2.074  14.266 -0.4191  0.0218  0.4433
17171TIP3   OH272927   0.834   4.060   4.711 -0.3885  0.3529 -0.5686
17171TIP3    H172928   0.768   4.128   4.698  0.1573  1.0646  0.2708
17171TIP3    H272929   0.839   4.048   4.806 -3.0975 -3.5046 -0.6661
17172TIP3   OH272930   1.520   5.236  14.628 -0.3466 -0.2652 -0.1402
17172TIP3    H172931   1.573   5.264  14.553 -1.5306  1.0905 -0.5047
17172TIP3    H272932   1.502   5.143  14.610  0.1371 -0.1921 -1.0713
17173TIP3   OH272933   3.787   5.575   1.195 -0.1434 -0.3070  0.7215
17173TIP3    H172934   3.805   5.646   1.258 -1.6152  1.3672 -0.6337
17173TIP3    H272935   3.756   5.503   1.250  0.1751  0.5158  2.0513
17174TIP3   OH272936   0.437   4.709  13.217  0.0955 -0.2208 -0.0421
17174TIP3    H172937   0.442   4.626  13.264  3.7803  0.1925  0.5556
17174TIP3    H272938   0.485   4.694  13.136  4.1262  2.0612  1.6171
17175TIP3   OH272939   6.361   3.732   1.800 -0.2089 -0.1565 -0.2049
17175TIP3    H172940   6.350   3.641   1.773 -0.0148 -0.1500 -0.3014
17175TIP3    H272941   6.428   3.730   1.868 -1.3503 -0.3006  0.9778
17176TIP3   OH272942   0.969   0.237  13.208  0.1813  0.1514 -0.3168
17176TIP3    H172943   0.963   0.190  13.291  1.5894 -1.0109 -0.8275
17176TIP3    H272944   1.062   0.233  13.184  0.1050  1.9800 -1.1040
17177TIP3   OH272945   1.052   1.814  16.143 -0.1817  0.0639  0.0818
17177TIP3    H172946   1.105   1.751  16.094 -1.6405 -2.4558  1.5863
17177TIP3    H272947   1.001   1.761  16.204 -1.2717  2.7526  1.6729
17178TIP3   OH272948   2.847   1.085  12.194 -0.1665  0.3207 -0.5197
17178TIP3    H172949   2.907   1.157  12.214  1.4789 -0.9807 -0.5365
17178TIP3    H272950   2.791   1.078  12.271  0.3045  0.9976 -0.1083
17179TIP3   OH272951   3.391   0.067  11.141  0.8568 -0.0135 -0.0181
17179TIP3    H172952   3.417   0.157  11.161  2.1242 -0.5187  0.7248
17179TIP3    H272953   3.350   0.073  11.055  2.6189  1.0046 -0.8475
17180TIP3   OH272954   6.397   2.028   4.677  0.1323 -0.0478  0.7210
17180TIP3    H172955   6.430   2.093   4.615  0.0598 -0.7204 -0.0337
17180TIP3    H272956   6.385   2.077   4.759 -1.2900  1.2496 -0.2017
17181TIP3   OH272957   3.953   1.514   0.560 -0.8019  0.1541  0.2206
17181TIP3    H172958   3.909   1.508   0.644  0.4021  0.4827  0.8989
17181TIP3    H272959   4.046   1.519   0.582 -0.4342 -0.2408 -1.1507
17182TIP3   OH272960   0.581   2.844  12.338 -0.7828  0.0918  0.3928
17182TIP3    H172961   0.657   2.845  12.397 -0.6704  1.8504  0.2486
17182TIP3    H272962   0.507   2.822  12.395 -0.3191 -0.6881  0.7111
17183TIP3   OH272963   2.727   5.782  14.726  0.3952  0.0952  0.3767
17183TIP3    H172964   2.712   5.703  14.778  1.7999 -0.1676  0.4259
17183TIP3    H272965   2.742   5.851  14.791  1.8361 -0.1693  0.3629
17184TIP3   OH272966   5.975   1.455   5.655 -0.1210  0.0222  0.2769
17184TIP3    H172967   5.879   1.462   5.659 -0.2803 -1.0447 -1.1223
17184TIP3    H272968   5.992   1.362   5.643  0.8670  0.5610 -3.6054
17185TIP3   OH272969   2.690   3.936  16.734 -0.2288  0.2362 -0.1630
17185TIP3    H172970   2.610   3.988  16.741  0.8552  1.8891  0.5627
17185TIP3    H272971   2.751   3.992  16.686  0.5896 -0.8991 -0.4983
17186TIP3   OH272972   6.509   3.362   0.229  0.3285 -0.2444  0.0543
17186TIP3    H172973   6.555   3.307   0.293 -0.9659 -1.8631 -0.3543
17186TIP3    H272974   6.421   3.371   0.264  0.0809  0.2635 -0.6809
17187TIP3   OH272975   0.573   1.330  17.038 -0.5278 -0.4035 -0.4619
17187TIP3    H172976   0.481   1.347  17.056 -0.6020 -1.1146 -0.1409
17187TIP3    H272977   0.600   1.267  17.105  0.2430 -0.0505 -0.4319
17188TIP3   OH272978   1.340   5.609  13.070 -0.1591 -0.2256 -0.0998
17188TIP3    H172979   1.395   5.617  13.147 -2.6730 -0.7569  1.8840
17188TIP3    H272980   1.321   5.515  13.063  0.3077 -0.2469 -1.6367
17189TIP3   OH272981   1.124   5.956  16.341  0.5310  1.0285  0.0683
17189TIP3    H172982   1.118   5.907  16.424  0.3114 -1.4501 -1.3003
17189TIP3    H272983   1.035   5.954  16.306  0.9063  0.7410 -0.8954
17190TIP3   OH272984   6.388   2.224  10.405 -0.3645 -0.1807 -0.3261
17190TIP3    H172985   6.367   2.265  10.489 -0.3766 -2.2729  0.7643
17190TIP3    H272986   6.303   2.199  10.369 -0.2813 -0.6377 -0.2158
17191TIP3   OH272987   0.532   1.493  13.601  0.2447 -0.1814 -0.0857
17191TIP3    H172988   0.527   1.572  13.656 -1.5365 -3.0425  4.4160
17191TIP3    H272989   0.622   1.462  13.612 -0.3783 -1.3463  2.5181
17192TIP3   OH272990   1.617   1.983  13.904 -0.0496  0.3506  0.0108
17192TIP3    H172991   1.604   2.035  13.825 -0.5834  1.9336  1.0924
17192TIP3    H272992   1.712   1.982  13.917  0.0581 -0.1298 -0.7703
17193TIP3   OH272993   3.510   1.600  13.968  0.4579  0.0800 -0.7017
17193TIP3    H172994   3.491   1.509  13.992  0.2749  0.2344 -0.2493
17193TIP3    H272995   3.509   1.600  13.872 -1.3792 -0.0350 -0.7216
17194TIP3   OH272996   2.707   5.804  15.665  0.3962  0.4068 -0.6768
17194TIP3    H172997   2.772   5.769  15.604  1.4217 -0.2986  0.7742
17194TIP3    H272998   2.753   5.873  15.712  0.0182  0.1121  0.1440
17195TIP3   OH272999   1.940   1.670  15.800 -0.8147 -0.0050 -0.5390
17195TIP3    H173000   1.966   1.703  15.886  0.2082 -0.0173 -0.8361
17195TIP3    H273001   1.988   1.724  15.737 -0.5056 -0.8638 -1.0633
17196TIP3   OH273002   5.884   4.734   4.978 -0.1128 -0.3110  0.4825
17196TIP3    H173003   5.826   4.699   4.910 -1.1292  2.0346  0.0273
17196TIP3    H273004   5.835   4.722   5.059 -2.4708  3.5414 -0.1004
17197TIP3   OH273005   0.042   0.458  11.696 -0.6523 -0.0775 -0.4223
17197TIP3    H173006   0.114   0.507  11.734 -1.2078  0.0496  0.4974
17197TIP3    H273007   0.029   0.497  11.610  0.7028 -0.4483 -0.8219
17198TIP3   OH273008   4.455   4.617  16.760  0.0285 -0.4085  0.0554
17198TIP3    H173009   4.492   4.679  16.822  0.2307 -1.1540  0.6965
17198TIP3    H273010   4.375   4.585  16.802 -0.8446  0.4630 -0.8896
17199TIP3   OH273011   0.812   1.950   1.918 -0.1028 -1.2354  0.4056
17199TIP3    H173012   0.808   2.000   1.836 -0.6191 -2.7046 -0.4964
17199TIP3    H273013   0.720   1.932   1.940 -0.1377  0.8377  2.4513
17200TIP3   OH273014   1.469   2.336   2.195 -0.3068  0.1123 -0.6189
17200TIP3    H173015   1.465   2.396   2.120 -0.3583  0.3590 -0.4217
17200TIP3    H273016   1.526   2.265   2.166  0.1348  0.4899 -0.6958
17201TIP3   OH273017   5.244   5.196   1.691 -0.0768 -0.0163  0.9605
17201TIP3    H173018   5.189   5.259   1.645 -0.3348 -1.3461 -0.6302
17201TIP3    H273019   5.277   5.138   1.622  3.2388  0.6327  1.8590
17202TIP3   OH273020   0.915   1.235   5.385  0.4972 -0.5750 -1.1161
17202TIP3    H173021   0.968   1.170   5.339  0.0912 -1.0774 -0.8866
17202TIP3    H273022   0.827   1.200   5.383  0.5553 -0.9075  0.5454
17203TIP3   OH273023   6.486   0.615   5.525 -0.3937 -0.0211  0.1578
17203TIP3    H173024   6.472   0.599   5.618 -1.1956  1.9466  0.4308
17203TIP3    H273025   6.398   0.631   5.490  0.1094  2.3465 -0.2449
17204TIP3   OH273026   0.530   6.675  15.748 -0.5599  0.0685 -0.4169
17204TIP3    H173027   0.624   6.679  15.731 -0.6248  1.3119 -0.5863
17204TIP3    H273028   0.517   6.591  15.792  0.6213 -0.1311 -0.4105
17205TIP3   OH273029   0.257   4.375  12.976  0.3792 -0.0961 -0.3962
17205TIP3    H173030   0.204   4.449  13.008  0.8930  0.8302 -1.5950
17205TIP3    H273031   0.327   4.366  13.040 -0.5881 -0.6032  0.6119
17206TIP3   OH273032   3.983   5.021  12.993  0.0510  0.7242 -0.6505
17206TIP3    H173033   3.965   4.976  12.911  0.1555  1.3007 -0.9998
17206TIP3    H273034   3.903   5.072  13.010 -0.1671  0.2195 -0.1279
17207TIP3   OH273035   6.189   3.923   5.322 -0.2160  0.3256 -0.1402
17207TIP3    H173036   6.100   3.911   5.356  0.1714  0.7738  1.0928
17207TIP3    H273037   6.246   3.901   5.396  0.6561  1.9936 -0.2603
17208TIP3   OH273038   5.908   1.942  14.170  0.1405  0.1613 -0.0031
17208TIP3    H173039   5.863   1.879  14.227 -0.2852 -1.8001 -2.3833
17208TIP3    H273040   5.839   2.004  14.143 -0.2388 -0.4375 -0.4251
17209TIP3   OH273041   5.016   0.382   6.677  0.4904  0.9171 -0.4672
17209TIP3    H173042   4.984   0.468   6.649 -1.2413 -0.0101 -1.4973
17209TIP3    H273043   4.962   0.359   6.752  1.6656  1.1587  0.4726
17210TIP3   OH273044   4.877   2.589  16.354 -0.1843 -0.0992  0.3676
17210TIP3    H173045   4.941   2.595  16.283  1.3962 -0.7696  1.7005
17210TIP3    H273046   4.855   2.496  16.359 -2.5669  0.2774 -1.1115
17211TIP3   OH273047   4.638   1.512  14.730  0.2207  0.7414  0.2514
17211TIP3    H173048   4.568   1.555  14.779 -0.2095 -0.4073  0.6975
17211TIP3    H273049   4.592   1.460  14.663  0.5031 -1.1223  1.4163
17212TIP3   OH273050   5.454   4.398  12.501 -0.2038 -0.0433 -0.8395
17212TIP3    H173051   5.462   4.484  12.542  0.0074 -1.1277  1.5280
17212TIP3    H273052   5.540   4.358  12.511 -0.2563 -0.5138 -2.0605
17213TIP3   OH273053   3.678   4.968  16.999 -0.0663 -0.2751  0.2248
17213TIP3    H173054   3.677   4.949  16.905  1.6183  1.0730 -0.1206
17213TIP3    H273055   3.592   4.939  17.030 -1.4326  0.9884 -2.0810
17214TIP3   OH273056   5.651   6.424   2.248 -0.0046 -0.0657  0.3794
17214TIP3    H173057   5.695   6.462   2.324 -1.2321 -1.1929  1.7295
17214TIP3    H273058   5.668   6.330   2.255 -0.6552 -0.2528 -0.3781
17215TIP3   OH273059   0.580   3.258  14.888 -0.3207 -0.4334 -0.3779
17215TIP3    H173060   0.665   3.277  14.847 -1.4846 -0.7166 -3.1284
17215TIP3    H273061   0.557   3.338  14.934 -0.3185  1.1573 -2.9676
17216TIP3   OH273062   4.246   1.128   6.307  0.2589 -0.5154  0.0669
17216TIP3    H173063   4.186   1.129   6.382 -0.1347  0.5322 -0.2323
17216TIP3    H273064   4.276   1.038   6.301  1.3320 -0.3725  2.2968
17217TIP3   OH273065   0.706   0.620  10.774  0.0331 -0.1416  0.5570
17217TIP3    H173066   0.693   0.653  10.686  1.9134  0.5442  0.4939
17217TIP3    H273067   0.667   0.687  10.831  0.2120  0.1806  0.3000
17218TIP3   OH273068   1.811   5.335  12.096  0.1939  0.6114  0.0838
17218TIP3    H173069   1.772   5.285  12.024  2.1591  1.4944 -1.7137
17218TIP3    H273070   1.736   5.365  12.148 -1.2059 -1.3792 -0.6574
17219TIP3   OH273071   1.674   1.453  11.210 -0.0057 -0.3787  0.4435
17219TIP3    H173072   1.613   1.379  11.212 -0.9210  0.3465  0.2407
17219TIP3    H273073   1.734   1.433  11.138  0.6626 -1.6050  1.3189
17220TIP3   OH273074   4.572   6.335  12.149 -0.2976  0.0904 -0.1323
17220TIP3    H173075   4.479   6.312  12.144  0.3579 -2.9273 -0.6916
17220TIP3    H273076   4.592   6.374  12.064 -0.8544 -0.2081 -0.4045
17221TIP3   OH273077   3.498   5.737   4.876  0.0721 -0.4788 -0.0738
17221TIP3    H173078   3.505   5.798   4.802  1.3561 -0.6494 -0.1117
17221TIP3    H273079   3.494   5.650   4.834 -0.5385 -0.5043  0.0245
17222TIP3   OH273080   3.262   5.026   4.458 -0.8271 -0.1259  0.0310
17222TIP3    H173081   3.184   5.030   4.514 -0.8165 -1.3942  0.1722
17222TIP3    H273082   3.228   5.001   4.372 -0.5516 -1.0837  0.1882
17223TIP3   OH273083   1.693   0.423  15.544 -0.2159  0.0320 -0.7649
17223TIP3    H173084   1.690   0.332  15.576  0.1644  0.2519 -0.0877
17223TIP3    H273085   1.603   0.455  15.557 -0.2163 -0.0764 -0.4911
17224TIP3   OH273086   3.116   3.164   0.497  0.1177  0.1513  0.0891
17224TIP3    H173087   3.022   3.172   0.513  0.1701 -0.1422  0.5605
17224TIP3    H273088   3.130   3.205   0.411 -0.5398 -0.4032 -0.2843
17225TIP3   OH273089   1.497   1.058  16.739  0.4656 -0.1468 -0.0983
17225TIP3    H173090   1.450   1.016  16.668 -0.9716 -1.0915  1.3463
17225TIP3    H273091   1.526   0.985  16.795  1.7106  0.5558  0.2165
17226TIP3   OH273092   3.695   1.718  10.887 -0.0770  0.4629 -0.1918
17226TIP3    H173093   3.616   1.773  10.882  0.8595  1.7329 -1.6227
17226TIP3    H273094   3.768   1.779  10.878  1.0691 -0.8218  0.0380
17227TIP3   OH273095   2.492   0.480   6.038 -0.1667 -0.0672  0.8263
17227TIP3    H173096   2.461   0.420   5.971  0.3788 -0.1405  0.6318
17227TIP3    H273097   2.485   0.432   6.120 -1.6619  0.3225  0.9581
17228TIP3   OH273098   0.698   4.516  16.021 -0.0061  0.0519 -0.4617
17228TIP3    H173099   0.617   4.566  16.037 -0.8668 -1.2560 -0.5857
17228TIP3    H273100   0.741   4.513  16.106 -0.9517 -0.6892  0.0131
17229TIP3   OH273101   1.189   5.556   6.289 -0.3187  0.3777  0.6411
17229TIP3    H173102   1.140   5.521   6.364 -1.2150 -0.4933 -0.3137
17229TIP3    H273103   1.178   5.651   6.295 -0.7260  0.2886  1.3838
17230TIP3   OH273104   2.647   3.862  13.647 -0.5719  0.2504  0.5302
17230TIP3    H173105   2.600   3.832  13.569 -0.0390  0.5762  0.0718
17230TIP3    H273106   2.738   3.871  13.618 -0.6127  1.7841  0.7906
17231TIP3   OH273107   0.648   2.115   5.285  0.1222 -0.2305 -0.2391
17231TIP3    H173108   0.599   2.034   5.294  1.4732 -1.0232  0.3429
17231TIP3    H273109   0.585   2.184   5.304 -1.0108 -1.1468 -0.5862
17232TIP3   OH273110   6.067   5.562  16.595 -0.3478  0.5594  0.4242
17232TIP3    H173111   6.100   5.618  16.525 -1.0046  0.9320  0.4031
17232TIP3    H273112   6.126   5.577  16.668  0.2296  0.3121  0.0107
17233TIP3   OH273113   1.997   2.417   5.724  0.8207 -0.0613 -0.3390
17233TIP3    H173114   2.089   2.433   5.746  0.6921  2.0829 -1.1565
17233TIP3    H273115   2.000   2.383   5.635  0.8084  0.5503 -0.5781
17234TIP3   OH273116   4.295   6.053   6.577  0.1194  0.3290 -0.8563
17234TIP3    H173117   4.289   6.149   6.572  0.1286  0.3914  0.1948
17234TIP3    H273118   4.366   6.036   6.638 -0.3489 -0.3495 -0.4891
17235TIP3   OH273119   1.517   2.803  16.151 -0.0452  0.4098 -0.2689
17235TIP3    H173120   1.572   2.810  16.228 -0.1906 -1.2284  0.0128
17235TIP3    H273121   1.578   2.803  16.077  0.1782  0.5612 -0.0861
17236TIP3   OH273122   4.952   4.277   3.682  0.2700  0.0817 -0.0303
17236TIP3    H173123   4.859   4.286   3.699  0.3197  0.1962  0.1857
17236TIP3    H273124   4.968   4.183   3.683  0.3752  0.1006  1.1139
17237TIP3   OH273125   1.139   1.746   4.564  0.1192  0.3367 -0.1045
17237TIP3    H173126   1.106   1.773   4.478  0.5741 -0.3312 -0.4930
17237TIP3    H273127   1.075   1.682   4.595  0.7368 -0.5393 -0.6112
17238TIP3   OH273128   2.418   0.483  13.604 -0.7084  0.7827 -0.3484
17238TIP3    H173129   2.464   0.411  13.562 -0.0086  0.9170  0.1716
17238TIP3    H273130   2.467   0.561  13.577 -0.8401  0.9615 -0.0715
17239TIP3   OH273131   3.732   1.094   3.985 -0.2724 -0.0117  0.0844
17239TIP3    H173132   3.778   1.019   3.947  1.3427  0.6243  0.6976
17239TIP3    H273133   3.799   1.142   4.032 -0.9940  2.5335 -1.3002
17240TIP3   OH273134   6.695   1.797  13.225  0.3160  0.2833 -0.5300
17240TIP3    H173135   6.660   1.882  13.253  0.4296 -0.0622  0.7161
17240TIP3    H273136   6.736   1.760  13.304 -1.0800 -1.6187 -0.6294
17241TIP3   OH273137   1.933   3.541   5.081  0.1621  0.1151  0.1842
17241TIP3    H173138   1.969   3.598   5.013  1.2645  0.4326  1.0066
17241TIP3    H273139   2.008   3.519   5.136 -0.7808  0.2253  1.5585
17242TIP3   OH273140   4.716   3.724   3.150 -0.1027  0.1012  0.5918
17242TIP3    H173141   4.738   3.661   3.081 -1.1159  0.0798  0.2628
17242TIP3    H273142   4.632   3.692   3.185 -1.2491  1.8893 -0.3946
17243TIP3   OH273143   2.053   2.109  11.246 -0.0307  0.3465 -0.0671
17243TIP3    H173144   2.099   2.193  11.239  0.0275  0.2907 -0.3932
17243TIP3    H273145   2.010   2.099  11.161 -0.1350  0.1027  0.0137
17244TIP3   OH273146   5.252   5.372  16.263  0.6661  0.5046 -0.5505
17244TIP3    H173147   5.315   5.313  16.304  0.5671  1.0094  0.3660
17244TIP3    H273148   5.217   5.323  16.189  1.0719 -0.3254 -0.2035
17245TIP3   OH273149   3.042   3.700  15.854 -0.6057 -0.1206 -0.1862
17245TIP3    H173150   3.118   3.683  15.799 -0.3786  0.3460 -0.0250
17245TIP3    H273151   3.022   3.793  15.840 -0.6587 -0.0438  0.3691
17246TIP3   OH273152   0.335   5.493   1.310  0.5092 -0.0042  0.0066
17246TIP3    H173153   0.353   5.405   1.342  1.5596  0.3863  0.5239
17246TIP3    H273154   0.376   5.496   1.224 -1.1458 -0.6061 -0.8599
17247TIP3   OH273155   5.243   2.894   1.583 -0.4687 -0.1252  0.6693
17247TIP3    H173156   5.166   2.859   1.537  0.6146 -1.0762 -0.4710
17247TIP3    H273157   5.275   2.821   1.635 -0.1980  0.2098  0.9784
17248TIP3   OH273158   1.801   4.793  14.950  0.3801  0.3416 -0.3139
17248TIP3    H173159   1.742   4.839  14.890  0.6121  0.1383 -0.7001
17248TIP3    H273160   1.773   4.702  14.947 -0.2825  0.4946  0.6920
17249TIP3   OH273161   0.968   4.751  11.233  0.2012 -0.5305  0.2507
17249TIP3    H173162   1.056   4.736  11.268  1.0290  2.2053 -0.4258
17249TIP3    H273163   0.982   4.763  11.139 -1.4232 -3.4748 -0.4735
17250TIP3   OH273164   0.165   4.467  15.018 -0.3147  0.4526  0.0440
17250TIP3    H173165   0.112   4.440  15.094 -1.1103  1.3750 -0.1710
17250TIP3    H273166   0.247   4.418  15.028 -1.6067 -1.8926 -0.2278
17251TIP3   OH273167   6.511   6.546   0.426  0.2166  0.4304  0.2044
17251TIP3    H173168   6.589   6.524   0.477 -1.0812 -0.7462  1.7664
17251TIP3    H273169   6.439   6.540   0.488 -1.2199  0.8169 -1.3559
17252TIP3   OH273170   0.119   1.395   5.333  0.3673  0.1134  0.1423
17252TIP3    H173171   0.214   1.391   5.325  0.3360 -1.4889  0.2434
17252TIP3    H273172   0.087   1.357   5.251 -0.1865  0.3072  0.2655
17253TIP3   OH273173   2.091   4.785  11.864 -0.0423 -0.2905 -0.3088
17253TIP3    H173174   2.078   4.729  11.940 -2.7570 -0.1639 -0.6006
17253TIP3    H273175   2.151   4.735  11.808  0.6607 -1.1261  1.1386
17254TIP3   OH273176   0.582   1.149   1.492  0.2138 -0.3868  0.3966
17254TIP3    H173177   0.591   1.141   1.587  0.2258 -1.2298  0.3309
17254TIP3    H273178   0.540   1.234   1.479 -0.8007 -0.7361  1.2189
17255TIP3   OH273179   1.263   6.202   2.811 -0.2513 -0.2363 -0.2708
17255TIP3    H173180   1.218   6.118   2.823  1.0792 -0.6912  2.2717
17255TIP3    H273181   1.205   6.267   2.852 -0.0765 -0.3441  0.1571
17256TIP3   OH273182   1.811   4.353  12.695 -0.2520 -0.0995 -0.2153
17256TIP3    H173183   1.769   4.273  12.726  1.7818 -0.6572  1.3316
17256TIP3    H273184   1.783   4.420  12.758 -2.2251  0.5557 -1.7015
17257TIP3   OH273185   0.382   2.942  13.921 -0.6555 -0.2266  0.6197
17257TIP3    H173186   0.422   2.945  14.008  0.1690  1.2218  0.2191
17257TIP3    H273187   0.290   2.965  13.936 -0.5007  0.0897  1.1142
17258TIP3   OH273188   3.015   6.343  11.564 -0.3462  0.0638 -0.1084
17258TIP3    H173189   2.971   6.422  11.594 -2.3593 -0.5568 -1.2471
17258TIP3    H273190   3.015   6.285  11.640  0.7588  0.9740  0.6081
17259TIP3   OH273191   5.097   5.292  12.460 -0.1004  0.1168  0.0184
17259TIP3    H173192   5.096   5.200  12.434  0.2728  0.1974 -0.2980
17259TIP3    H273193   5.015   5.328  12.426  0.4891  0.2818 -1.3057
17260TIP3   OH273194   4.211   5.673  10.606  0.0735 -0.1429  0.0412
17260TIP3    H173195   4.131   5.697  10.653  0.3477  0.1252  0.3743
17260TIP3    H273196   4.203   5.719  10.522 -0.0896 -0.0650  0.0975
17261TIP3   OH273197   3.175   4.281  16.417 -0.1077  0.1154  0.1996
17261TIP3    H173198   3.204   4.300  16.328 -0.5886  0.5649  0.1378
17261TIP3    H273199   3.247   4.310  16.472  0.3987 -0.6017 -0.0584
17262TIP3   OH273200   3.028   4.684   3.567  0.1820  0.1827  0.4602
17262TIP3    H173201   2.959   4.640   3.617  1.5345 -0.1228  2.1259
17262TIP3    H273202   2.980   4.737   3.503 -1.5970 -0.1903  1.4022
17263TIP3   OH273203   0.374   1.027   5.475 -0.2452 -0.1585 -0.4297
17263TIP3    H173204   0.384   0.985   5.560  1.0941 -0.1975 -0.5952
17263TIP3    H273205   0.301   0.980   5.433 -0.1746 -0.8779  0.2380
17264TIP3   OH273206   0.410   5.881  11.269  0.4196  0.2085 -0.1973
17264TIP3    H173207   0.504   5.879  11.287  0.3295  0.2268  0.2950
17264TIP3    H273208   0.370   5.886  11.355 -0.0344  0.2031 -0.4079
17265TIP3   OH273209   6.215   3.557  16.853  0.3427  0.3699  0.1408
17265TIP3    H173210   6.140   3.543  16.910  0.7494 -0.3275  0.5106
17265TIP3    H273211   6.261   3.473  16.851  0.5597  0.4930 -0.8872
17266TIP3   OH273212   5.734   1.105  12.078  0.1943  0.4134  0.0443
17266TIP3    H173213   5.650   1.151  12.070 -0.0908 -0.0590  0.2812
17266TIP3    H273214   5.710   1.012  12.085  0.6060  0.4278  2.4677
17267TIP3   OH273215   0.411   5.674  17.013 -0.2637  0.3325 -0.1901
17267TIP3    H173216   0.424   5.725  16.933  0.7052  0.4233  0.0153
17267TIP3    H273217   0.490   5.688  17.064 -1.1314  0.7687  1.0816
17268TIP3   OH273218   0.949   6.128   6.214 -0.1201 -0.2150 -0.1101
17268TIP3    H173219   0.951   6.200   6.276 -0.6882 -0.2225 -0.0804
17268TIP3    H273220   0.890   6.157   6.144  1.2079  0.1696 -1.1263
17269TIP3   OH273221   2.358   2.992  12.372  0.0232  0.2363 -0.5424
17269TIP3    H173222   2.390   3.043  12.298  0.3453  0.9527  0.0651
17269TIP3    H273223   2.300   3.052  12.419  2.5088  1.0737  1.7172
17270TIP3   OH273224   2.369   4.489  13.842 -0.6341  0.1254  0.0345
17270TIP3    H173225   2.393   4.573  13.804 -1.1152  0.5763  0.7094
17270TIP3    H273226   2.295   4.459  13.788  0.4777 -0.6029 -1.1560
17271TIP3   OH273227   1.453   0.794  16.220 -0.3625  0.0809  0.2152
17271TIP3    H173228   1.528   0.787  16.279  0.8436 -0.8276 -1.3525
17271TIP3    H273229   1.447   0.708  16.180  0.1375  1.2035 -2.4523
17272TIP3   OH273230   3.261   6.599   6.303  0.9622  0.0693  0.1508
17272TIP3    H173231   3.186   6.652   6.329  0.4255  0.7524 -2.5104
17272TIP3    H273232   3.255   6.521   6.359 -2.9403 -0.8645 -1.2269
17273TIP3   OH273233   2.958   5.957  13.809 -0.2380 -0.2686 -0.1193
17273TIP3    H173234   2.905   5.992  13.880  1.0001 -0.2962  0.8342
17273TIP3    H273235   3.000   6.034  13.770  0.5729 -0.4372  0.4106
17274TIP3   OH273236   0.667   3.159  15.838  0.2039  0.0128 -0.1662
17274TIP3    H173237   0.596   3.096  15.822  0.8534 -1.1530  1.3339
17274TIP3    H273238   0.733   3.110  15.886  0.9777  1.7127  0.6082
17275TIP3   OH273239   6.463   0.614  16.391 -0.5103  0.1553  0.3758
17275TIP3    H173240   6.506   0.700  16.390 -0.5420  0.2003 -1.6617
17275TIP3    H273241   6.446   0.597  16.483 -1.2464  2.7337  0.8064
17276TIP3   OH273242   0.630   0.609   0.017  0.2358  0.1182 -0.0976
17276TIP3    H173243   0.625   0.665   0.094  0.6005 -2.5972  2.0582
17276TIP3    H273244   0.724   0.597   0.003  0.1846 -1.3326  0.6217
17277TIP3   OH273245   4.963   1.073  11.875 -0.0348  0.4925 -0.5087
17277TIP3    H173246   4.968   0.986  11.914 -1.1169  0.8854  0.5661
17277TIP3    H273247   4.943   1.131  11.948 -1.0063  1.4112 -1.4605
17278TIP3   OH273248   5.148   2.039  14.047  0.3967 -0.4417  0.4940
17278TIP3    H173249   5.119   2.128  14.064  0.3713 -0.6088  1.3948
17278TIP3    H273250   5.116   2.019  13.959  3.0603  1.5404 -1.1019
17279TIP3   OH273251   0.045   2.404  15.620  0.1572  0.1634 -0.2610
17279TIP3    H173252   0.077   2.481  15.667 -1.6255  0.2626  0.8712
17279TIP3    H273253   0.122   2.371  15.573  1.2731  1.8402  0.2966
17280TIP3   OH273254   0.180   3.109  14.573  0.0182  0.1535  0.1425
17280TIP3    H173255   0.149   3.082  14.659  1.3167 -0.8693  0.3245
17280TIP3    H273256   0.275   3.118  14.583  0.4576 -1.7121 -1.5539
17281TIP3   OH273257   3.221   5.930  13.187 -0.0845  0.4034  0.5821
17281TIP3    H173258   3.222   6.012  13.236 -0.0782  0.6558  0.1549
17281TIP3    H273259   3.313   5.909  13.174 -0.0628 -0.1584  1.4962
17282TIP3   OH273260   0.395   6.111   2.295 -0.5401 -0.2270  0.3701
17282TIP3    H173261   0.449   6.063   2.357 -0.6173 -1.8589 -0.7458
17282TIP3    H273262   0.456   6.140   2.227 -0.8442 -0.9403 -0.2245
17283TIP3   OH273263   4.775   1.837  14.497 -0.6108 -0.1339 -0.1233
17283TIP3    H173264   4.770   1.879  14.412 -0.7267 -1.2963 -0.7131
17283TIP3    H273265   4.802   1.906  14.557 -1.0447  0.8194 -1.0080
17284TIP3   OH273266   4.777   3.809  13.097 -0.0038 -0.6003  0.0653
17284TIP3    H173267   4.756   3.857  13.016 -0.1314 -0.3150  0.2665
17284TIP3    H273268   4.848   3.860  13.137  0.2209 -0.8712  0.0183
17285TIP3   OH273269   0.865   6.423  12.957 -0.5028 -0.2671 -0.4264
17285TIP3    H173270   0.832   6.509  12.981 -0.6982 -0.4890  0.1165
17285TIP3    H273271   0.958   6.437  12.939 -0.6276  0.1313 -0.7480
17286TIP3   OH273272   5.152   0.277  11.726  0.0298  0.5264  0.3460
17286TIP3    H173273   5.196   0.243  11.804 -0.4421 -0.3309  0.2507
17286TIP3    H273274   5.152   0.204  11.664  1.2753  1.4802 -0.8573
17287TIP3   OH273275   4.205   5.335  10.807  0.3041  0.2310  0.1872
17287TIP3    H173276   4.223   5.258  10.861 -0.0000 -1.4034 -1.9360
17287TIP3    H273277   4.290   5.361  10.773  0.2404  0.0346 -0.1235
17288TIP3   OH273278   3.331   3.328   4.465  0.6901 -0.1718 -0.0273
17288TIP3    H173279   3.390   3.254   4.481 -0.8908 -1.2509  1.1627
17288TIP3    H273280   3.246   3.297   4.496  0.1020  2.3792  1.1410
17289TIP3   OH273281   2.527   0.581  10.371  0.0418  0.1881 -0.3047
17289TIP3    H173282   2.563   0.630  10.297  0.3877  0.8024  0.2625
17289TIP3    H273283   2.542   0.489  10.348  3.4836  0.3935  0.5979
17290TIP3   OH273284   3.033   3.818   5.418 -0.1675 -0.2095  0.6913
17290TIP3    H173285   3.091   3.887   5.385 -0.8372  0.8182  1.6111
17290TIP3    H273286   2.957   3.865   5.453 -0.2559 -1.3533  2.1116
17291TIP3   OH273287   3.168   2.904   1.416 -0.0889  0.3441  0.6037
17291TIP3    H173288   3.173   2.998   1.428 -2.9998  0.7749 -0.6448
17291TIP3    H273289   3.075   2.887   1.398  0.3597 -2.7422  0.6074
17292TIP3   OH273290   1.419   3.290  11.411 -0.6744  0.1488 -0.3677
17292TIP3    H173291   1.407   3.327  11.499 -0.6929 -0.2435 -0.2026
17292TIP3    H273292   1.415   3.366  11.353 -0.1292  0.4764  0.0124
17293TIP3   OH273293   0.713   3.644  16.601  1.2335 -0.4090  0.6954
17293TIP3    H173294   0.705   3.685  16.688  0.9576 -0.2048  0.5754
17293TIP3    H273295   0.680   3.555  16.614 -0.0474  0.0120  0.5144
17294TIP3   OH273296   1.016   4.616   4.870  0.0363 -0.3540 -0.7091
17294TIP3    H173297   0.999   4.536   4.819 -0.2947 -1.9062  1.6430
17294TIP3    H273298   0.977   4.598   4.955  0.8218  1.9781  0.2208
17295TIP3   OH273299   0.734   2.904  15.595 -0.1098  0.0231 -0.3071
17295TIP3    H173300   0.769   2.816  15.608 -0.0013  0.2893  1.3818
17295TIP3    H273301   0.685   2.923  15.675  1.3661  2.1908  0.1865
17296TIP3   OH273302   4.326   1.004   2.062  0.1935 -0.2074  0.3702
17296TIP3    H173303   4.292   0.964   2.142 -2.4101  0.4979 -0.3078
17296TIP3    H273304   4.269   1.079   2.046  1.8921  0.8593 -1.1053
17297TIP3   OH273305   4.232   4.298  16.775  0.5548  0.0661 -0.1473
17297TIP3    H173306   4.287   4.253  16.839  0.1324  0.1278  0.2647
17297TIP3    H273307   4.212   4.232  16.710  1.7710  0.2483 -0.7366
17298TIP3   OH273308   4.966   4.172  11.178  0.2146  0.0553  0.1688
17298TIP3    H173309   4.920   4.167  11.094  0.0364  1.1843  0.1771
17298TIP3    H273310   5.055   4.141  11.158 -0.3503 -1.5414  0.0143
17299TIP3   OH273311   5.297   5.329   0.177  0.5084 -0.1018  0.1604
17299TIP3    H173312   5.287   5.390   0.251 -0.2355  1.2456 -0.9925
17299TIP3    H273313   5.221   5.347   0.122  2.2614  0.6448 -2.1286
17300TIP3   OH273314   3.029   5.213   4.836  0.0515 -0.2854  0.0231
17300TIP3    H173315   3.115   5.172   4.845  1.7844  2.5026 -2.1460
17300TIP3    H273316   2.968   5.139   4.836  2.3860 -2.3975  1.5021
17301TIP3   OH273317   5.701   5.767  16.117 -0.5150 -0.7316  0.9929
17301TIP3    H173318   5.740   5.854  16.118 -0.8408 -0.5668  0.3319
17301TIP3    H273319   5.760   5.713  16.169 -0.0241 -0.2353  0.9568
17302TIP3   OH273320   6.473   4.322  11.444  0.3168 -0.0837  0.3234
17302TIP3    H173321   6.462   4.303  11.351  0.5230  1.5173 -0.0582
17302TIP3    H273322   6.548   4.382  11.447 -0.2060  0.5487  1.4248
17303TIP3   OH273323   1.168   6.717   4.897 -0.0288  0.0113 -0.0919
17303TIP3    H173324   1.074   6.706   4.914  0.2047 -1.6713  0.2708
17303TIP3    H273325   1.173   6.736   4.803 -0.7591  0.5846 -0.0223
17304TIP3   OH273326   5.954   6.597   5.575 -0.0928 -0.0950 -0.6262
17304TIP3    H173327   6.025   6.585   5.511 -0.1028  2.0519 -1.1143
17304TIP3    H273328   5.910   6.677   5.547 -2.1748 -0.8901  0.2039
17305TIP3   OH273329   3.453   2.662   1.046 -0.5313 -0.4122  0.2628
17305TIP3    H173330   3.541   2.696   1.063 -0.5221 -1.1189  1.8174
17305TIP3    H273331   3.394   2.724   1.088 -0.6357 -1.0662  1.1141
17306TIP3   OH273332   1.681   1.801   1.869  0.3353  0.1500 -0.8357
17306TIP3    H173333   1.732   1.871   1.829  1.5623  0.2629  0.8265
17306TIP3    H273334   1.631   1.843   1.938  1.0323 -0.5472  0.1375
17307TIP3   OH273335   2.003   5.794  14.044  0.1005 -0.4087 -0.1773
17307TIP3    H173336   2.039   5.783  13.956  0.8194  0.8549 -0.0691
17307TIP3    H273337   2.015   5.708  14.085  1.5043 -0.4986 -0.7041
17308TIP3   OH273338   0.029   5.086   0.619 -0.1550  0.3668 -0.5643
17308TIP3    H173339  -0.066   5.083   0.607 -0.5632  0.8177  1.9826
17308TIP3    H273340   0.053   5.177   0.601 -0.5571  0.7542  0.7774
17309TIP3   OH273341   1.420   0.761  12.112 -0.2779 -0.2322 -0.1699
17309TIP3    H173342   1.377   0.715  12.184 -0.1640  0.4738  0.3548
17309TIP3    H273343   1.389   0.851  12.119 -1.1439 -0.3793 -1.6815
17310TIP3   OH273344   4.179   3.340  11.063  0.1967  0.2208 -0.1097
17310TIP3    H173345   4.097   3.383  11.042 -0.3492 -0.9340 -0.4525
17310TIP3    H273346   4.221   3.325  10.978  0.4549  0.2249  0.0146
17311TIP3   OH273347   4.822   4.837   3.262  0.1862 -0.7208 -0.3393
17311TIP3    H173348   4.789   4.919   3.298  1.8432 -0.0339 -0.2859
17311TIP3    H273349   4.824   4.852   3.167 -2.1757 -1.7659 -0.6255
17312TIP3   OH273350   4.523   2.066   4.560 -0.8983 -0.1018  0.0874
17312TIP3    H173351   4.585   2.060   4.488 -0.2793 -1.4901  0.6825
17312TIP3    H273352   4.437   2.057   4.519 -0.6564  0.7930 -0.6343
17313TIP3   OH273353   1.864   5.703   4.992  0.5316 -0.3362 -0.2247
17313TIP3    H173354   1.863   5.759   4.914  0.4417  0.2802  0.2053
17313TIP3    H273355   1.783   5.653   4.987  0.3787 -0.0778 -0.3751
17314TIP3   OH273356   4.989   2.884   2.953  1.1252 -0.2526 -0.3648
17314TIP3    H173357   4.991   2.945   2.878  0.9867 -1.0946 -1.0668
17314TIP3    H273358   5.082   2.871   2.975  1.1440  0.4948  0.0354
17315TIP3   OH273359   3.764   0.414   3.836  0.2469 -0.3119 -0.6495
17315TIP3    H173360   3.827   0.454   3.775  0.1382  0.2272 -0.4171
17315TIP3    H273361   3.757   0.477   3.908 -0.0319 -0.6948 -0.3382
17316TIP3   OH273362   4.359   2.917   0.287 -0.0803 -0.2891  0.0660
17316TIP3    H173363   4.347   2.943   0.196 -0.4090 -1.5329 -0.2550
17316TIP3    H273364   4.434   2.857   0.286 -0.0375 -0.2588  0.6290
17317TIP3   OH273365   3.030   1.836  15.148 -0.1668 -0.0506  0.3002
17317TIP3    H173366   2.956   1.809  15.093 -0.3126  0.5200  0.2084
17317TIP3    H273367   3.019   1.930  15.159  1.2877  0.3030 -0.8500
17318TIP3   OH273368   0.778   5.573   0.984 -0.7953 -0.0392 -0.1361
17318TIP3    H173369   0.781   5.667   0.969  1.9237 -0.3369 -2.1886
17318TIP3    H273370   0.831   5.559   1.062 -1.2784  0.1297  0.2244
17319TIP3   OH273371   4.253   2.880  16.203  0.0469  0.0679 -0.0468
17319TIP3    H173372   4.200   2.928  16.266  0.0553  1.9549 -1.3810
17319TIP3    H273373   4.221   2.910  16.117  0.1861 -2.2193 -0.9512
17320TIP3   OH273374   0.507   4.009   4.155 -0.0665  0.8738 -0.4760
17320TIP3    H173375   0.516   4.096   4.195  1.0016 -0.0805  1.4941
17320TIP3    H273376   0.421   4.011   4.112 -0.9739  2.2548  1.2634
17321TIP3   OH273377   3.400   0.098  14.527 -0.5145  0.1331  0.1533
17321TIP3    H173378   3.476   0.049  14.561 -1.0783 -0.2337  0.9160
17321TIP3    H273379   3.435   0.185  14.506  0.1430 -0.0661  0.3875
17322TIP3   OH273380   1.596   3.546   1.032  0.1236 -0.7495  0.1553
17322TIP3    H173381   1.616   3.518   0.943  0.1731  1.5327 -0.6142
17322TIP3    H273382   1.504   3.570   1.030  0.0976 -0.7812  0.7489
17323TIP3   OH273383   4.890   6.392  13.866  0.9324 -0.3336  0.1737
17323TIP3    H173384   4.833   6.326  13.905 -0.0219  0.0255 -0.5809
17323TIP3    H273385   4.974   6.347  13.852  0.7642 -0.9405  1.0509
17324TIP3   OH273386   4.811   2.816  13.408  0.1495 -0.2033  0.4023
17324TIP3    H173387   4.812   2.907  13.436 -0.2805 -0.1457  0.2435
17324TIP3    H273388   4.719   2.798  13.387  0.3396 -0.4592 -0.2556
17325TIP3   OH273389   5.170   4.085  14.639 -0.1772  0.3917  0.0662
17325TIP3    H173390   5.152   4.170  14.597  2.0072  0.3862 -1.0366
17325TIP3    H273391   5.176   4.023  14.566 -2.0234 -0.8393  0.8734
17326TIP3   OH273392   6.396   2.490  10.988  0.1809 -0.2255  0.3696
17326TIP3    H173393   6.367   2.538  10.911  0.0790 -2.5150 -1.1141
17326TIP3    H273394   6.477   2.533  11.015  0.0212  0.8283 -0.7784
17327TIP3   OH273395   5.286   3.385   3.261 -0.0075 -0.3257  0.2568
17327TIP3    H173396   5.271   3.463   3.315  2.5827  1.2206 -1.0236
17327TIP3    H273397   5.371   3.402   3.219 -0.2054 -3.0737 -1.4709
17328TIP3   OH273398   3.304   5.861  12.240  0.0173  0.6446 -0.5845
17328TIP3    H173399   3.237   5.800  12.209  0.0787  1.0154 -1.4486
17328TIP3    H273400   3.263   5.947  12.234  0.7693  0.9339 -1.6665
17329TIP3   OH273401   2.747   4.763  11.935 -0.1875 -0.0916  0.2283
17329TIP3    H173402   2.742   4.674  11.901 -0.4226 -0.3126  0.8216
17329TIP3    H273403   2.841   4.784  11.932 -0.2762  0.2339 -1.3580
17330TIP3   OH273404   1.162   2.269  14.808  0.2338 -0.6139 -0.1367
17330TIP3    H173405   1.087   2.231  14.763 -0.5641  0.4390  0.2632
17330TIP3    H273406   1.233   2.267  14.744  0.1483 -2.4948 -0.2069
17331TIP3   OH273407   2.725   5.380   3.003 -0.3787 -0.5483  0.0559
17331TIP3    H173408   2.774   5.418   3.075 -0.5785 -0.8291  0.3413
17331TIP3    H273409   2.767   5.416   2.924  1.7584 -2.4719  0.1948
17332TIP3   OH273410   3.524   0.113   0.890  0.2329 -0.3167 -0.7739
17332TIP3    H173411   3.479   0.166   0.824 -0.0491  0.6434  0.1674
17332TIP3    H273412   3.588   0.171   0.929  0.8500 -1.0685 -0.6409
17333TIP3   OH273413   3.486   1.975  14.783 -0.1041 -0.0457 -0.1386
17333TIP3    H173414   3.450   1.886  14.783  1.6109 -0.7819  0.6823
17333TIP3    H273415   3.461   2.011  14.698 -2.2344 -0.6833  0.1493
17334TIP3   OH273416   3.739   3.587  11.974  0.4289 -0.1737 -0.0785
17334TIP3    H173417   3.736   3.510  11.917 -2.6901  0.0011 -0.3004
17334TIP3    H273418   3.775   3.554  12.057 -1.9622 -2.2421  0.2366
17335TIP3   OH273419   4.436   3.524   4.015 -0.3941  0.0283 -0.7030
17335TIP3    H173420   4.509   3.507   4.074 -0.5407 -0.5585 -0.6882
17335TIP3    H273421   4.363   3.473   4.050 -0.6732  0.2151 -0.9995
17336TIP3   OH273422   6.531   5.832  12.381  0.0585 -0.0809 -0.4063
17336TIP3    H173423   6.555   5.771  12.311  0.3834  0.2571 -0.5978
17336TIP3    H273424   6.498   5.909  12.334  0.1955  0.1125 -0.1876
17337TIP3   OH273425   4.155   3.106   5.454  0.3879  0.0672  0.0816
17337TIP3    H173426   4.166   3.022   5.498  0.1780 -0.4869 -0.9026
17337TIP3    H273427   4.064   3.108   5.426  0.5624  0.3115 -0.4991
17338TIP3   OH273428   1.535   6.453   3.383 -0.0529  0.1320 -0.2628
17338TIP3    H173429   1.560   6.384   3.444  0.5290 -0.0074 -0.6529
17338TIP3    H273430   1.453   6.488   3.418  0.4664  0.3135  0.8111
17339TIP3   OH273431   5.166   4.941   0.731 -0.0902  0.4687  0.1903
17339TIP3    H173432   5.150   4.956   0.824 -0.6313 -1.5486  0.4891
17339TIP3    H273433   5.110   4.866   0.710 -0.7822  1.5357 -2.0347
17340TIP3   OH273434   2.349   6.158   4.919  0.1693 -0.4202  0.0582
17340TIP3    H173435   2.430   6.167   4.969  0.9023 -0.7158 -1.0368
17340TIP3    H273436   2.342   6.241   4.871 -0.6054 -0.0786  0.7303
17341TIP3   OH273437   5.108   4.065  15.089 -0.1043  0.2417  0.5406
17341TIP3    H173438   5.166   4.070  15.166  0.8917 -0.4477 -0.1391
17341TIP3    H273439   5.085   3.972  15.082 -2.0959  0.6249  1.3431
17342TIP3   OH273440   2.783   5.234   5.042 -0.2762 -0.2424 -0.2820
17342TIP3    H173441   2.758   5.203   5.129  3.9669  2.0195  2.0876
17342TIP3    H273442   2.828   5.160   5.001  0.4074 -0.4522  0.8172
17343TIP3   OH273443   5.634   4.505  14.683  0.2596 -0.7016 -0.4519
17343TIP3    H173444   5.569   4.574  14.664 -0.0702 -1.2335 -1.3394
17343TIP3    H273445   5.638   4.502  14.779  0.6480  0.8833 -0.3942
17344TIP3   OH273446   1.340   3.153  14.821 -0.0967 -0.6556 -0.2357
17344TIP3    H173447   1.269   3.197  14.774  1.0211  1.8163  0.2001
17344TIP3    H273448   1.406   3.136  14.754 -0.1085 -0.7218 -0.2305
17345TIP3   OH273449   5.926   2.850   4.926 -0.5063  0.1608 -0.2617
17345TIP3    H173450   5.989   2.877   4.992 -2.5452  0.6816  1.6071
17345TIP3    H273451   5.845   2.837   4.975 -0.9671 -4.5809 -1.8119
17346TIP3   OH273452   1.645   3.026  13.524  0.3249  0.1202 -0.0456
17346TIP3    H173453   1.585   3.055  13.456  0.1910 -0.9917 -0.4253
17346TIP3    H273454   1.730   3.023  13.481 -0.0864 -2.7598 -0.9124
17347TIP3   OH273455   5.952   1.470  15.435  0.0529 -0.8528  0.2992
17347TIP3    H173456   5.884   1.525  15.396 -0.3239 -0.9087  0.8687
17347TIP3    H273457   5.994   1.427  15.361  0.8358  0.7537 -0.2319
17348TIP3   OH273458   5.832   2.089   3.512  1.0606 -0.7894 -0.2754
17348TIP3    H173459   5.812   2.077   3.605  2.3724 -2.7225 -0.2063
17348TIP3    H273460   5.885   2.169   3.509 -1.1569  0.8129  0.2587
17349TIP3   OH273461   0.708   4.863  14.192 -0.0309  0.1262  0.0863
17349TIP3    H173462   0.722   4.955  14.214 -0.1294  0.7096 -2.1193
17349TIP3    H273463   0.797   4.827  14.188  0.3203  1.0981 -2.7626
17350TIP3   OH273464   3.274   2.794  11.612 -0.0762  1.0052  0.8294
17350TIP3    H173465   3.277   2.708  11.570  1.0194  0.9115  1.0606
17350TIP3    H273466   3.308   2.779  11.700  0.8586  1.7872  0.6260
17351TIP3   OH273467   4.165   6.281   1.785  0.0864  0.0993  0.0275
17351TIP3    H173468   4.255   6.283   1.818 -0.1926  0.3343  0.7989
17351TIP3    H273469   4.123   6.210   1.833  0.2647 -1.0765 -1.4748
17352TIP3   OH273470   2.542   3.379   4.435  0.5492  0.3884  0.6177
17352TIP3    H173471   2.468   3.328   4.403  0.7624 -0.2004  1.0304
17352TIP3    H273472   2.503   3.456   4.476  0.1737  0.1721  0.6693
17353TIP3   OH273473   4.210   1.859   0.705  0.0180  0.4363 -0.2759
17353TIP3    H173474   4.278   1.901   0.653  3.5880 -2.1282  1.8921
17353TIP3    H273475   4.216   1.766   0.682 -0.9926 -0.2015  1.7767
17354TIP3   OH273476   4.923   0.562  12.080 -0.0261  0.1512  0.3313
17354TIP3    H173477   4.851   0.500  12.077 -2.4298  2.7556 -1.1824
17354TIP3    H273478   4.980   0.537  12.007 -1.9512  0.6947 -1.4714
17355TIP3   OH273479   2.357   1.861   1.547 -0.6830 -0.0821  0.0874
17355TIP3    H173480   2.416   1.849   1.473  0.2983 -0.2104  0.8725
17355TIP3    H273481   2.274   1.888   1.508 -0.4611 -1.0678 -1.1225
17356TIP3   OH273482   6.621   5.916  16.112  0.2510 -0.3215 -0.0836
17356TIP3    H173483   6.615   5.983  16.045  0.2917 -0.7500 -0.5205
17356TIP3    H273484   6.584   5.957  16.190 -1.2763 -0.3367 -0.7617
17357TIP3   OH273485   0.874   6.333  15.760 -0.0944  0.3872  0.3647
17357TIP3    H173486   0.898   6.240  15.757 -1.0278  0.0832  1.5229
17357TIP3    H273487   0.887   6.364  15.670 -0.5623 -1.0779 -0.2448
17358TIP3   OH273488   4.928   3.976  13.281 -0.2737  0.2183 -0.6160
17358TIP3    H173489   4.913   4.048  13.343 -1.9187 -0.5219 -0.1153
17358TIP3    H273490   5.011   3.937  13.309 -1.2567 -0.4523  1.5212
17359TIP3   OH273491   1.441   3.512   0.167 -0.2047  0.0596  0.4034
17359TIP3    H173492   1.351   3.489   0.193  0.1899 -0.6414  1.1749
17359TIP3    H273493   1.466   3.582   0.226  0.8629 -1.8517  2.3296
17360TIP3   OH273494   5.488   4.059   2.314  0.0176 -0.1199 -0.5956
17360TIP3    H173495   5.447   4.140   2.284 -0.9913 -0.6397 -0.6699
17360TIP3    H273496   5.431   3.990   2.281 -0.4750 -0.7773  1.4578
17361TIP3   OH273497   0.395   3.177  16.054  0.0536 -0.0053  0.8770
17361TIP3    H173498   0.371   3.219  16.137 -0.1983 -0.0116  0.8096
17361TIP3    H273499   0.461   3.112  16.079 -1.0033 -0.9697  1.2965
17362TIP3   OH273500   1.887   5.177   1.230 -0.0433 -0.3737 -0.3356
17362TIP3    H173501   1.978   5.174   1.261 -0.4224 -0.4151  0.8499
17362TIP3    H273502   1.839   5.220   1.301 -1.0210 -0.7135 -0.7681
17363TIP3   OH273503   4.435   4.631  15.848  0.0138 -0.0516  0.0615
17363TIP3    H173504   4.492   4.691  15.896  1.3893  1.3383 -3.0206
17363TIP3    H273505   4.477   4.545  15.857  0.9517  0.4233  0.3108
17364TIP3   OH273506   4.063   3.007   3.914 -0.8122 -0.0068  0.2172
17364TIP3    H173507   4.085   2.963   3.832  0.4213  0.4899  0.2620
17364TIP3    H273508   4.021   2.939   3.968 -0.1996 -0.7469 -0.2341
17365TIP3   OH273509   6.567   0.443   3.552  0.2320 -0.3722 -0.1031
17365TIP3    H173510   6.541   0.362   3.597  0.6564 -0.7074 -0.4611
17365TIP3    H273511   6.546   0.426   3.460  0.6240 -0.1939 -0.2224
17366TIP3   OH273512   1.267   5.647   5.882  0.7528 -0.3774 -0.4790
17366TIP3    H173513   1.331   5.600   5.935 -1.0772  1.0537  3.3677
17366TIP3    H273514   1.183   5.627   5.922 -1.1027 -0.4998 -4.0116
17367TIP3   OH273515   0.089   5.456  13.099 -0.4783  0.0525 -0.1319
17367TIP3    H173516   0.024   5.396  13.064  0.6485 -0.6692 -1.0634
17367TIP3    H273517   0.124   5.411  13.176 -0.4930  0.0709 -0.1140
17368TIP3   OH273518   2.670   6.346  16.866 -0.1211  0.2256 -0.5466
17368TIP3    H173519   2.731   6.420  16.871 -0.6535  0.6792 -0.7913
17368TIP3    H273520   2.599   6.369  16.925 -0.3272 -0.0593 -0.6832
17369TIP3   OH273521   3.927   5.738  17.175 -0.0330 -0.8037 -0.5327
17369TIP3    H173522   3.964   5.655  17.146  1.1635 -0.2128 -0.7579
17369TIP3    H273523   3.974   5.805  17.124 -0.2353  0.0657  0.3846
17370TIP3   OH273524   3.510   0.888  10.575 -0.3019  0.1941 -0.0509
17370TIP3    H173525   3.507   0.868  10.669  0.7905 -1.1749 -0.2761
17370TIP3    H273526   3.603   0.883  10.553 -0.3538  2.1689 -0.8991
17371TIP3   OH273527   0.825   1.540  14.175  0.0500  0.2414 -0.0882
17371TIP3    H173528   0.734   1.511  14.180 -0.4044  1.5257 -0.6309
17371TIP3    H273529   0.868   1.471  14.124 -0.3487 -0.9307  1.0949
17372TIP3   OH273530   2.966   2.794  15.500  0.1641  0.5357 -0.1340
17372TIP3    H173531   2.967   2.729  15.570  1.0347 -0.5410 -1.0946
17372TIP3    H273532   2.877   2.828  15.499 -0.3325 -0.6941  0.3773
17373TIP3   OH273533   1.031   3.413  14.410  0.3567  0.2434  0.6232
17373TIP3    H173534   0.964   3.346  14.424  0.5680 -0.4012 -1.2013
17373TIP3    H273535   0.982   3.494  14.398  0.0222  0.1609  1.3882
17374TIP3   OH273536   2.861   4.216  15.704 -0.7051  0.3490  0.1763
17374TIP3    H173537   2.842   4.306  15.676  2.2730  0.5262 -1.6780
17374TIP3    H273538   2.951   4.200  15.675 -1.3058 -3.4617 -0.1113
17375TIP3   OH273539   6.599   0.939   1.996  0.8060  0.0922  0.2065
17375TIP3    H173540   6.625   0.978   1.912  3.3923  1.1797  1.4217
17375TIP3    H273541   6.634   0.850   1.993  1.4329  0.3305  0.3619
17376TIP3   OH273542   2.131   3.345  13.509 -0.3658  0.5130 -0.3053
17376TIP3    H173543   2.166   3.349  13.598 -1.0655  0.0081  0.0058
17376TIP3    H273544   2.203   3.310  13.457  0.2907  1.4729 -0.0794
17377TIP3   OH273545   3.290   3.104  16.401 -0.2496  0.0850  0.0401
17377TIP3    H173546   3.248   3.043  16.463  2.4131 -1.2126  0.7262
17377TIP3    H273547   3.323   3.175  16.455  0.2701 -0.0005 -0.1523
17378TIP3   OH273548   6.030   5.160   2.458 -0.3049 -0.4835 -0.6102
17378TIP3    H173549   6.117   5.199   2.466  0.0989 -1.0679 -1.8785
17378TIP3    H273550   6.045   5.073   2.421 -1.4219 -0.6435 -0.7494
17379TIP3   OH273551   0.795   1.173  13.656 -0.0247  0.3557  0.5711
17379TIP3    H173552   0.714   1.122  13.665  0.6641 -0.5093  2.7164
17379TIP3    H273553   0.765   1.264  13.655 -1.2034  0.0419 -2.1805
17380TIP3   OH273554   4.209   2.758   5.859 -0.1400 -0.2441  0.6063
17380TIP3    H173555   4.265   2.833   5.878 -0.1474  0.5480 -2.0765
17380TIP3    H273556   4.120   2.795   5.855 -0.1946 -0.4426 -0.2827
17381TIP3   OH273557   6.112   0.510  14.944  0.0823 -0.2689  0.2063
17381TIP3    H173558   6.182   0.554  14.895  0.6677 -0.3495  0.9509
17381TIP3    H273559   6.087   0.573  15.012 -0.3813 -0.3488  0.1111
17382TIP3   OH273560   1.552   3.927   6.121  0.3940 -0.1476 -0.4262
17382TIP3    H173561   1.597   3.934   6.206 -1.0551 -0.3527  0.3947
17382TIP3    H273562   1.569   3.838   6.092  0.9764 -0.0483 -0.4036
17383TIP3   OH273563   3.864   6.120   0.502  0.0378 -0.1289 -0.3212
17383TIP3    H173564   3.864   6.038   0.453  0.6615 -2.3669  3.0992
17383TIP3    H273565   3.954   6.129   0.535 -0.6512  0.4327  1.5483
17384TIP3   OH273566   5.531   6.041  13.112  0.7909 -0.2471 -0.4259
17384TIP3    H173567   5.550   6.016  13.021 -0.0463  0.7867 -0.9215
17384TIP3    H273568   5.578   6.123  13.124 -1.2022  1.0510 -0.8668
17385TIP3   OH273569   2.303   2.149  14.969  0.1729 -0.1210 -0.0596
17385TIP3    H173570   2.349   2.082  15.020  0.9842  0.7633  0.4078
17385TIP3    H273571   2.361   2.225  14.972 -0.8005  0.6582 -0.4433
17386TIP3   OH273572   3.449   2.884   2.857  0.3981  0.2843 -0.0114
17386TIP3    H173573   3.451   2.796   2.894  3.1684  0.4709  0.4838
17386TIP3    H273574   3.440   2.869   2.762  1.9592 -0.6436 -0.0567
17387TIP3   OH273575   1.831   1.625   6.517  0.1078  0.4863 -0.1789
17387TIP3    H173576   1.854   1.717   6.517  1.4970  0.1764  0.9742
17387TIP3    H273577   1.748   1.621   6.470  0.0763  2.2924 -0.3468
17388TIP3   OH273578   1.468   2.013  13.319  0.2628 -0.3707 -0.4251
17388TIP3    H173579   1.488   2.101  13.351  0.3453  0.0883 -1.6590
17388TIP3    H273580   1.375   2.001  13.339  0.6056 -0.6458  1.1367
17389TIP3   OH273581   5.932   6.225  13.843 -0.6831 -0.2663 -0.2412
17389TIP3    H173582   5.906   6.224  13.935  2.5350 -2.0246  0.8211
17389TIP3    H273583   5.950   6.317  13.824  1.6754 -0.1381  2.0193
17390TIP3   OH273584   1.499   0.522   5.233 -0.0193 -0.0083  0.1740
17390TIP3    H173585   1.475   0.539   5.324  0.9923 -0.0339  0.4604
17390TIP3    H273586   1.585   0.481   5.238 -0.4601 -1.1101 -0.7464
17391TIP3   OH273587   4.540   2.877   1.203  0.2193 -0.2473 -0.0769
17391TIP3    H173588   4.468   2.941   1.201  0.2237 -0.2412 -0.0327
17391TIP3    H273589   4.581   2.885   1.117 -0.2857 -0.7673 -0.3791
17392TIP3   OH273590   5.834   2.951   4.350  0.0118 -0.5688  0.6597
17392TIP3    H173591   5.794   2.921   4.432 -1.2894 -0.0701  0.2410
17392TIP3    H273592   5.760   2.982   4.298  0.8106 -0.9243 -0.7308
17393TIP3   OH273593   6.720   1.894   5.105 -0.1035 -0.0853 -0.6257
17393TIP3    H173594   6.778   1.827   5.067 -1.4891 -1.3361 -0.6304
17393TIP3    H273595   6.707   1.957   5.033 -1.0111 -1.3170 -1.5874
17394TIP3   OH273596   3.412   2.918   6.388 -0.0072  0.3921 -0.1287
17394TIP3    H173597   3.485   2.950   6.440 -0.8908  1.9551  0.2086
17394TIP3    H273598   3.410   2.976   6.311 -0.2159 -0.3385 -0.6859
17395TIP3   OH273599   3.836   6.327   5.632  0.4423  0.5267 -0.0384
17395TIP3    H173600   3.837   6.422   5.647 -1.1748  0.6621 -0.5725
17395TIP3    H273601   3.746   6.301   5.650  1.0123 -1.0348  0.7060
17396TIP3   OH273602   5.509   6.472   3.883  0.1894  0.0465  0.2819
17396TIP3    H173603   5.523   6.543   3.820  3.0013  0.0145  0.7715
17396TIP3    H273604   5.502   6.517   3.967 -0.5493 -0.1232  0.3201
17397TIP3   OH273605   3.135   1.011  13.853  0.4226 -0.2402 -0.1848
17397TIP3    H173606   3.172   1.091  13.817  2.4088 -0.8801  0.3049
17397TIP3    H273607   3.133   0.950  13.779 -0.0364 -0.1029 -0.2926
17398TIP3   OH273608   2.794   2.616  11.912  0.5648 -0.2298 -0.1558
17398TIP3    H173609   2.779   2.695  11.964 -0.5391  0.2801 -1.2062
17398TIP3    H273610   2.733   2.552  11.948  1.5506 -0.6747  0.7807
17399TIP3   OH273611   1.731   4.882   5.736 -0.0948 -0.1619  0.5367
17399TIP3    H173612   1.789   4.934   5.680 -0.2725 -0.5042  0.0246
17399TIP3    H273613   1.706   4.941   5.807  1.3685 -0.1974  1.1036
17400TIP3   OH273614   3.949   1.587   5.948 -0.0581  0.2648 -0.4631
17400TIP3    H173615   4.002   1.652   5.994  2.4572 -0.6426 -1.8951
17400TIP3    H273616   3.949   1.511   6.006 -0.2704  0.4540 -0.2136
17401TIP3   OH273617   0.042   1.838   6.006 -0.0741 -0.0334 -0.7758
17401TIP3    H173618   0.113   1.806   6.061  0.3898  1.6133 -0.3725
17401TIP3    H273619   0.074   1.830   5.917  0.1853 -0.3176 -0.6574
17402TIP3   OH273620   1.586   4.232   5.228 -0.3495  0.7036  0.5169
17402TIP3    H173621   1.597   4.214   5.322 -1.3710  1.5516  0.8128
17402TIP3    H273622   1.639   4.310   5.213 -2.3082  2.2047  1.0116
17403TIP3   OH273623   2.537   4.307  13.999 -0.2551  0.0816  0.2999
17403TIP3    H173624   2.458   4.345  13.960  0.8023  0.7133 -1.3287
17403TIP3    H273625   2.505   4.256  14.074 -2.1019  1.0366  0.2085
17404TIP3   OH273626   3.825   3.991  16.591 -0.0122  0.3472  0.2377
17404TIP3    H173627   3.779   4.020  16.670  0.3797  2.5169 -0.2836
17404TIP3    H273628   3.768   3.923  16.555 -1.0220  0.4714  1.5016
17405TIP3   OH273629   3.575   4.398   5.909  0.5782 -0.1783  0.2910
17405TIP3    H173630   3.587   4.457   5.983 -0.9021  0.9891 -0.3550
17405TIP3    H273631   3.572   4.455   5.833 -1.5295 -0.9812 -0.2981
17406TIP3   OH273632   6.104   6.088  14.765  0.2457 -0.3882  0.6821
17406TIP3    H173633   6.040   6.054  14.828 -0.2219 -0.7951  0.0053
17406TIP3    H273634   6.075   6.053  14.680  0.7388  0.3167  0.2098
17407TIP3   OH273635   4.642   2.933   1.469  0.2884 -0.0617 -0.5900
17407TIP3    H173636   4.626   2.923   1.375  0.9540  2.7125 -1.1102
17407TIP3    H273637   4.565   2.981   1.501  1.3967  1.6938 -0.4100
17408TIP3   OH273638   2.636   5.227   3.637 -0.2528 -0.0587  0.1653
17408TIP3    H173639   2.601   5.309   3.603  0.8028  0.4260  0.2358
17408TIP3    H273640   2.612   5.228   3.730 -0.8872 -0.1866  0.0095
17409TIP3   OH273641   5.064   0.371   2.658 -0.2501  0.0296 -0.3479
17409TIP3    H173642   5.096   0.454   2.693 -0.6467  0.7291 -1.5906
17409TIP3    H273643   5.118   0.355   2.581 -1.0391 -0.1875 -0.8696
17410TIP3   OH273644   3.826   5.947  14.412  0.2352 -0.5133 -0.1934
17410TIP3    H173645   3.815   5.852  14.411 -1.2575 -0.3689  0.1036
17410TIP3    H273646   3.756   5.980  14.356  0.0399  0.4611  0.5999
17411TIP3   OH273647   0.227   4.095   0.874  0.3023 -0.0982 -0.1029
17411TIP3    H173648   0.270   4.038   0.810  1.7067  0.4580  0.3016
17411TIP3    H273649   0.184   4.034   0.934  1.5997 -0.7465  0.2067
17412TIP3   OH273650   3.878   5.046  15.793  0.1593 -0.3740 -0.1583
17412TIP3    H173651   3.932   5.004  15.725 -0.4699  0.4409 -1.1981
17412TIP3    H273652   3.818   5.102  15.744  1.1560  1.9905  1.1860
17413TIP3   OH273653   1.750   1.451   5.659 -0.0706 -0.0420  0.1358
17413TIP3    H173654   1.807   1.478   5.731 -0.4430  3.5837 -0.7376
17413TIP3    H273655   1.807   1.450   5.582 -0.6368  1.4105 -0.3528
17414TIP3   OH273656   1.190   6.754   2.935  0.2547  0.1416  0.0905
17414TIP3    H173657   1.109   6.786   2.895 -0.4029 -0.6090  0.7791
17414TIP3    H273658   1.260   6.797   2.887 -0.5706  2.6338  0.9743
17415TIP3   OH273659   2.332   2.891  13.852  0.0278 -0.0667  0.3676
17415TIP3    H173660   2.258   2.841  13.885 -0.1197 -0.3632 -0.3962
17415TIP3    H273661   2.408   2.837  13.872  0.1773  0.7507  2.1750
17416TIP3   OH273662   2.821   0.527  15.755 -0.3620  0.1705  0.2662
17416TIP3    H173663   2.855   0.483  15.833 -1.2951 -0.9377  0.0880
17416TIP3    H273664   2.874   0.491  15.683 -0.3774  0.1904  0.2457
17417TIP3   OH273665   4.791   1.839   1.967 -0.3756  0.2216  0.1942
17417TIP3    H173666   4.821   1.749   1.960 -0.9859  0.0747 -0.6074
17417TIP3    H273667   4.771   1.850   2.060  0.5380 -0.1853  0.4538
17418TIP3   OH273668   3.340   0.883  15.122  0.2110 -0.0925 -0.5771
17418TIP3    H173669   3.349   0.811  15.061  0.5300 -0.0869 -0.5402
17418TIP3    H273670   3.252   0.918  15.106 -0.2598 -0.9977 -0.0315
17419TIP3   OH273671   6.519   4.443  14.439 -0.2981  0.4087 -0.2702
17419TIP3    H173672   6.573   4.519  14.463 -0.0957 -0.2193  1.3940
17419TIP3    H273673   6.549   4.374  14.498  0.7118 -1.5099 -2.8446
17420TIP3   OH273674   1.483   0.381   2.482 -0.5361  0.4742 -0.0197
17420TIP3    H173675   1.405   0.384   2.538 -0.2600  2.3578  0.3148
17420TIP3    H273676   1.529   0.301   2.510 -2.2735 -0.6321 -0.1776
17421TIP3   OH273677   0.461   5.575   3.992  0.0071 -0.4312  0.2916
17421TIP3    H173678   0.434   5.628   3.917 -0.6854  0.2953  1.0265
17421TIP3    H273679   0.413   5.613   4.066  2.0394  0.0518  1.4377
17422TIP3   OH273680   3.769   4.421   2.300  0.0054 -0.5569 -0.1653
17422TIP3    H173681   3.737   4.383   2.382  1.8977 -0.8388  0.4847
17422TIP3    H273682   3.701   4.399   2.236 -1.8609  0.2416  1.4118
17423TIP3   OH273683   0.611   0.787   0.221 -0.7384 -0.2697  0.1375
17423TIP3    H173684   0.593   0.861   0.164 -1.5459  0.7527  1.6402
17423TIP3    H273685   0.707   0.783   0.225 -0.6564 -0.7918 -1.7616
17424TIP3   OH273686   0.080   3.133  15.623  0.5398 -0.2086  0.6167
17424TIP3    H173687   0.104   3.081  15.546  0.6564  1.0974 -0.2540
17424TIP3    H273688  -0.011   3.159  15.607  0.4836 -0.1403  1.0444
17425TIP3   OH273689   2.257   6.743  13.129  0.4453  0.2916  0.4786
17425TIP3    H173690   2.334   6.749  13.072  0.3144 -2.2581 -0.0985
17425TIP3    H273691   2.284   6.785  13.211  2.2660 -0.0881  0.1127
17426TIP3   OH273692   6.566   1.191   0.392 -0.4060 -0.3385  0.1934
17426TIP3    H173693   6.474   1.179   0.416 -0.2847 -0.3299  0.6880
17426TIP3    H273694   6.592   1.272   0.436  0.2551 -1.1502  1.3721
17427TIP3   OH273695   0.790   5.890   5.536 -0.0987 -0.3258 -0.0928
17427TIP3    H173696   0.877   5.918   5.505 -0.5645  1.3111  0.0128
17427TIP3    H273697   0.761   5.827   5.469  0.8143 -0.2796 -0.5578
17428TIP3   OH273698   3.263   4.835  11.159  0.2754 -0.2174  0.4766
17428TIP3    H173699   3.209   4.778  11.104 -1.4913  0.3208  1.5624
17428TIP3    H273700   3.317   4.884  11.097 -0.6699 -0.5876 -0.6899
17429TIP3   OH273701   6.135   5.552  16.096 -0.2731 -0.6327 -0.2995
17429TIP3    H173702   6.226   5.578  16.083 -0.6146  1.3767  0.8970
17429TIP3    H273703   6.140   5.462  16.129  1.1350 -1.2492 -2.0999
17430TIP3   OH273704   1.568   5.525   0.703 -0.2490  0.7318  0.6871
17430TIP3    H173705   1.625   5.599   0.725  1.0672  1.0955 -3.1832
17430TIP3    H273706   1.483   5.564   0.683  0.6468  1.5115 -2.1275
17431TIP3   OH273707   3.329   4.074  15.312 -0.7640  0.4030 -0.4134
17431TIP3    H173708   3.334   4.167  15.334 -2.0882  0.6003 -0.8767
17431TIP3    H273709   3.356   4.069  15.221  1.9231 -0.0543  0.3028
17432TIP3   OH273710   3.470   4.986   6.282  0.0278 -0.1529  0.1524
17432TIP3    H173711   3.409   5.030   6.223 -1.4743 -1.4833  0.6345
17432TIP3    H273712   3.520   5.056   6.322  0.0473  0.8756 -1.5853
17433TIP3   OH273713   0.259   2.539  10.930 -0.1325  0.2856 -0.6548
17433TIP3    H173714   0.175   2.568  10.894 -0.7414  0.4443  0.8258
17433TIP3    H273715   0.315   2.616  10.928 -0.1141  0.2603 -1.3500
17434TIP3   OH273716   6.622   5.955  13.504 -0.2566  0.2331  0.1748
17434TIP3    H173717   6.588   5.866  13.512 -0.1586  0.1212 -0.5752
17434TIP3    H273718   6.703   5.946  13.454 -0.9078  0.8732 -1.0273
17435TIP3   OH273719   4.764   4.078   2.405  0.1921  0.1391  0.0988
17435TIP3    H173720   4.837   4.140   2.409  0.7689 -0.4297 -1.0464
17435TIP3    H273721   4.806   3.992   2.409 -0.6692 -0.2401  2.8311
17436TIP3   OH273722   6.303   6.431   5.523 -0.1589  0.1687 -0.5544
17436TIP3    H173723   6.267   6.396   5.605  0.9320  0.0912 -0.0911
17436TIP3    H273724   6.378   6.484   5.551  0.0081  0.4249 -1.4765
17437TIP3   OH273725   6.141   5.622   3.410  0.5657 -0.1047  0.2584
17437TIP3    H173726   6.070   5.648   3.468 -0.6325 -1.4387 -0.5417
17437TIP3    H273727   6.220   5.627   3.464  0.0757  2.4885  0.8684
17438TIP3   OH273728   5.285   0.915  10.919 -0.0979  0.3417 -0.2267
17438TIP3    H173729   5.288   0.963  10.836  0.2598 -0.4892 -0.7058
17438TIP3    H273730   5.327   0.831  10.900 -0.8721 -0.2454  0.5353
17439TIP3   OH273731   4.107   3.638   4.882 -0.4345  0.3078 -0.3991
17439TIP3    H173732   4.154   3.642   4.799 -1.3467  2.7968 -0.8807
17439TIP3    H273733   4.163   3.687   4.943 -2.0268  2.9060 -0.8709
17440TIP3   OH273734   1.141   6.512  15.648 -0.2275 -1.0433 -0.4228
17440TIP3    H173735   1.154   6.588  15.591  1.0925 -0.9181  0.0054
17440TIP3    H273736   1.163   6.436  15.594 -0.2604 -1.0296 -0.4555
17441TIP3   OH273737   4.873   4.224  15.165 -0.0983  0.3019 -0.0443
17441TIP3    H173738   4.850   4.212  15.257 -0.9940  1.9834 -0.0208
17441TIP3    H273739   4.963   4.191  15.159  0.8790  2.3317  1.9793
17442TIP3   OH273740   1.328   1.498   4.760 -0.0881 -0.5688 -0.1663
17442TIP3    H173741   1.331   1.445   4.681 -0.7166 -1.6207  0.4954
17442TIP3    H273742   1.285   1.579   4.733 -1.1391 -1.2836 -0.7128
17443TIP3   OH273743   0.401   2.745  10.786  0.3336 -0.0722 -0.5785
17443TIP3    H173744   0.420   2.819  10.728  1.0409 -0.6661 -1.1197
17443TIP3    H273745   0.375   2.674  10.726 -0.2258 -0.2986 -0.0745
17444TIP3   OH273746   1.134   3.381  11.342  0.4107 -0.3471 -0.0475
17444TIP3    H173747   1.139   3.307  11.282  2.4146 -0.2191 -0.1008
17444TIP3    H273748   1.168   3.347  11.425  1.5271  0.5251 -0.1173
17445TIP3   OH273749   5.485   6.624  12.953 -0.1093  0.0162 -0.2274
17445TIP3    H173750   5.549   6.559  12.923  0.3124  0.8528 -1.1890
17445TIP3    H273751   5.402   6.595  12.916  0.4090  1.0619 -2.3752
17446TIP3   OH273752   1.151   3.644   2.903 -0.3840  0.3441  0.5980
17446TIP3    H173753   1.245   3.626   2.895 -0.2369  1.2842  0.1322
17446TIP3    H273754   1.137   3.656   2.997 -0.2114 -0.6275  0.7662
17447TIP3   OH273755   2.889   5.148   5.926 -0.6447  0.0063  0.0063
17447TIP3    H173756   2.926   5.197   6.000 -1.7618  0.5575  0.2082
17447TIP3    H273757   2.966   5.108   5.884  0.1239  0.6225  0.7799
17448TIP3   OH273758   4.446   2.164   5.846  0.5439 -0.2563  0.4719
17448TIP3    H173759   4.424   2.129   5.759  1.8138  2.7223 -1.2100
17448TIP3    H273760   4.431   2.258   5.838  3.1045  0.4606  2.7076
17449TIP3   OH273761   5.058   2.600  12.097 -0.6108 -0.1476  0.4037
17449TIP3    H173762   5.145   2.580  12.131  0.2076  0.2641 -1.3754
17449TIP3    H273763   5.007   2.521  12.116  0.4096 -0.7926  0.5600
17450TIP3   OH273764   6.216   0.322   0.725  0.9972 -0.2511 -0.1419
17450TIP3    H173765   6.140   0.371   0.755  1.4356 -0.5850  1.6718
17450TIP3    H273766   6.253   0.375   0.655 -0.2890  0.4395 -0.3299
17451TIP3   OH273767   4.324   4.117  12.145 -0.6579  0.4871  0.0203
17451TIP3    H173768   4.345   4.122  12.239  0.7105 -0.2941 -0.2158
17451TIP3    H273769   4.314   4.024  12.128 -0.0771  0.5566 -0.7653
17452TIP3   OH273770   3.124   0.556  15.569 -0.0260  0.3101  0.2792
17452TIP3    H173771   3.148   0.595  15.653  1.1558  0.0204  0.1010
17452TIP3    H273772   3.116   0.630  15.509 -1.0843  0.5357  0.6847
17453TIP3   OH273773   2.345   0.995   4.472  0.0722  0.2514 -0.2147
17453TIP3    H173774   2.314   1.086   4.479 -0.6183  0.1335 -1.5235
17453TIP3    H273775   2.438   1.004   4.450  0.3020  0.6205  0.8392
17454TIP3   OH273776   2.251   6.390   3.761 -0.5470  0.4296 -0.3564
17454TIP3    H173777   2.244   6.464   3.821  0.2778 -0.6834  1.1835
17454TIP3    H273778   2.289   6.320   3.814 -3.1893 -1.7836 -1.1454
17455TIP3   OH273779   5.950   1.671  12.444  0.7141 -0.3932  0.5195
17455TIP3    H173780   5.917   1.678  12.534  0.5743  2.5022  0.3602
17455TIP3    H273781   5.951   1.762  12.413  2.4093 -1.1382 -1.8246
17456TIP3   OH273782   5.520   0.466  14.629  0.0575  0.6099 -0.4487
17456TIP3    H173783   5.563   0.526  14.569 -2.0511  2.5698 -0.1379
17456TIP3    H273784   5.427   0.472  14.607 -0.3485 -1.9561  0.1637
17457TIP3   OH273785   1.255   1.079   1.909  1.0085  0.0252 -0.0046
17457TIP3    H173786   1.170   1.040   1.888  2.1003 -1.1908 -2.5355
17457TIP3    H273787   1.265   1.065   2.004 -1.9288  0.9781  0.5316
17458TIP3   OH273788   4.807   0.220  11.417  0.0283  0.1368  0.6074
17458TIP3    H173789   4.812   0.265  11.333 -0.8734  0.8483  0.9090
17458TIP3    H273790   4.819   0.128  11.396  2.2090  0.5149  0.0013
17459TIP3   OH273791   2.859   1.879  12.675 -0.0436  0.4872 -0.0345
17459TIP3    H173792   2.949   1.851  12.656 -0.3687  0.4008 -1.5469
17459TIP3    H273793   2.866   1.973  12.694  0.2868  0.6016 -0.7196
17460TIP3   OH273794   1.821   6.112   1.386 -0.0752 -0.4665 -0.2054
17460TIP3    H173795   1.729   6.139   1.393 -0.1345 -0.8005  0.3354
17460TIP3    H273796   1.871   6.190   1.410 -0.1194  0.6200 -3.1777
17461TIP3   OH273797   0.310   4.624   6.073 -0.2635 -0.1753 -0.1495
17461TIP3    H173798   0.360   4.562   6.125 -0.1370  0.1483  0.1111
17461TIP3    H273799   0.286   4.694   6.134  0.2328  0.4080 -0.6176
17462TIP3   OH273800   3.451   0.453  16.845 -0.2790  0.7878  0.1530
17462TIP3    H173801   3.497   0.493  16.771  0.5960  0.0639  0.2975
17462TIP3    H273802   3.407   0.527  16.887  1.5226  1.6886  0.5727
17463TIP3   OH273803   0.529   3.379  11.259  0.2453  0.6311 -0.2621
17463TIP3    H173804   0.544   3.469  11.287  0.5470  0.3050  0.6533
17463TIP3    H273805   0.542   3.381  11.164  2.2866  1.1473 -0.0063
17464TIP3   OH273806   2.785   3.247  15.971  0.5987  0.5802  0.6538
17464TIP3    H173807   2.821   3.330  15.940  1.6879  0.8748  2.5595
17464TIP3    H273808   2.705   3.271  16.018  0.5658  0.4888  0.6451
17465TIP3   OH273809   3.009   4.002  15.890  0.0847  0.0128  0.1485
17465TIP3    H173810   3.074   4.068  15.864  0.0774  0.1523  0.4752
17465TIP3    H273811   2.993   4.020  15.982 -0.1451 -0.2574  0.1616
17466TIP3   OH273812   6.729   5.676   6.110 -0.4090  0.4463 -0.1941
17466TIP3    H173813   6.689   5.591   6.126 -1.1958  0.5522 -1.4560
17466TIP3    H273814   6.808   5.676   6.164 -0.8603 -0.7252  0.5014
17467TIP3   OH273815   6.458   4.572  13.791 -0.2413 -0.2961 -0.1433
17467TIP3    H173816   6.496   4.596  13.875  1.8335 -0.9979 -0.8203
17467TIP3    H273817   6.531   4.537  13.740 -1.6363 -0.8728 -1.8772
17468TIP3   OH273818   0.148   5.305  13.911  0.6372  0.3785 -0.2430
17468TIP3    H173819   0.182   5.236  13.967 -2.2063 -1.7610 -0.9131
17468TIP3    H273820   0.138   5.264  13.825  0.4209  2.1436 -1.1055
17469TIP3   OH273821   1.354   0.077   1.799 -0.6589 -0.5618 -0.3724
17469TIP3    H173822   1.414   0.147   1.824 -0.5647 -0.8458  0.2130
17469TIP3    H273823   1.267   0.112   1.819 -0.6888 -0.2035 -1.0919
17470TIP3   OH273824   6.455   3.149  10.617  0.5575  0.5911 -0.0667
17470TIP3    H173825   6.374   3.148  10.668 -1.7055  1.1187 -3.3378
17470TIP3    H273826   6.519   3.194  10.672 -0.7835 -1.3404  3.3369
17471TIP3   OH273827   2.671   3.523   1.965  0.4324  0.0421  0.0191
17471TIP3    H173828   2.661   3.603   2.016 -0.2044 -0.0461  0.0387
17471TIP3    H273829   2.634   3.543   1.879 -0.2907 -0.4128  0.2179
17472TIP3   OH273830   1.336   1.051   0.609 -0.0397 -0.3753  0.3856
17472TIP3    H173831   1.331   1.145   0.624  3.6453 -0.0208  0.3955
17472TIP3    H273832   1.344   1.042   0.514 -1.2722 -0.8129  0.3003
17473TIP3   OH273833   1.904   3.533   3.998 -0.1317  0.0539 -0.6077
17473TIP3    H173834   1.967   3.519   4.069 -0.6278 -0.9044 -0.3422
17473TIP3    H273835   1.897   3.628   3.991  1.1615  0.1759 -0.4844
17474TIP3   OH273836   6.578   4.766  12.670 -0.0924  0.3844  0.4735
17474TIP3    H173837   6.632   4.720  12.735 -0.2231  0.8238  0.8995
17474TIP3    H273838   6.493   4.775  12.712 -0.2937  0.3268  0.0819
17475TIP3   OH273839   5.762   3.585  12.499 -0.1805  0.0184  0.0046
17475TIP3    H173840   5.739   3.678  12.504  3.1968  0.9521  1.1586
17475TIP3    H273841   5.767   3.566  12.406  1.1825  1.6814 -0.3144
17476TIP3   OH273842   4.778   3.733  16.458  0.5047  0.1181  0.6769
17476TIP3    H173843   4.849   3.710  16.398  1.8502  0.6938  1.9846
17476TIP3    H273844   4.698   3.708  16.411  1.6048 -1.7678 -0.3143
17477TIP3   OH273845   5.554   5.242  15.494 -0.0916 -0.1458  0.0054
17477TIP3    H173846   5.501   5.172  15.532 -1.1081  0.7559  0.3200
17477TIP3    H273847   5.490   5.302  15.454  0.6649  1.0895  0.5711
17478TIP3   OH273848   6.701   2.011   1.879  0.3927  0.1449  0.4629
17478TIP3    H173849   6.796   2.003   1.888  0.1441 -1.6593  2.2346
17478TIP3    H273850   6.689   2.054   1.794  2.7611  0.0978  0.0184
17479TIP3   OH273851   4.107   4.552  15.610  0.4339 -0.2109  0.0085
17479TIP3    H173852   4.020   4.588  15.624  0.1532 -0.0604 -1.8950
17479TIP3    H273853   4.099   4.499  15.531  1.6872 -1.5874  0.7467
17480TIP3   OH273854   2.583   3.639  15.614  0.0193  0.1582 -0.3067
17480TIP3    H173855   2.647   3.661  15.547  0.1815 -1.4860 -0.7456
17480TIP3    H273856   2.621   3.672  15.696  1.7020 -1.2243 -0.4815
17481TIP3   OH273857   3.926   6.235  15.097  0.5177  0.0781 -0.5268
17481TIP3    H173858   3.915   6.221  15.002 -1.2644  1.1594 -0.5192
17481TIP3    H273859   3.877   6.163  15.137 -1.6862  1.4963 -0.4887
17482TIP3   OH273860   3.464   0.102  13.034  0.0224  0.4313  0.1062
17482TIP3    H173861   3.428   0.068  13.116  1.0540 -0.7715  0.0879
17482TIP3    H273862   3.466   0.197  13.047 -2.1269  0.4815  0.4883
17483TIP3   OH273863   0.188   5.986  11.442  0.3928 -0.2342  0.3439
17483TIP3    H173864   0.140   5.918  11.394  1.1494  0.0006 -0.7613
17483TIP3    H273865   0.158   5.975  11.533  0.8319 -2.3498  0.3036
17484TIP3   OH273866   5.936   0.933   3.400 -0.3522  0.0818 -0.1554
17484TIP3    H173867   5.858   0.888   3.368  0.1505  0.1156 -1.4655
17484TIP3    H273868   5.902   1.004   3.455 -1.1930 -0.7506  0.4454
17485TIP3   OH273869   0.420   6.706   3.774  0.0013  0.0564 -0.4187
17485TIP3    H173870   0.369   6.752   3.840 -0.4130 -0.3672 -0.4434
17485TIP3    H273871   0.410   6.614   3.796  2.3786 -0.0054  0.8040
17486TIP3   OH273872   0.625   6.390  10.856 -0.1469 -0.0501 -0.1651
17486TIP3    H173873   0.532   6.405  10.841 -0.6268 -1.2770  1.3263
17486TIP3    H273874   0.652   6.334  10.784 -1.1770 -1.6694  0.6420
17487TIP3   OH273875   4.775   1.454  14.978  0.5737 -0.1455 -0.1160
17487TIP3    H173876   4.863   1.431  14.946 -0.6311 -3.1220 -1.6954
17487TIP3    H273877   4.732   1.493  14.901 -0.1908 -0.9133 -0.0927
17488TIP3   OH273878   0.723   5.348  16.341 -0.0322 -0.3095 -0.3304
17488TIP3    H173879   0.737   5.306  16.426  0.2097  1.0485  0.3386
17488TIP3    H273880   0.650   5.409  16.357  0.0370 -0.0235 -1.0871
17489TIP3   OH273881   0.617   6.525  16.330 -0.4982  0.3659  0.2590
17489TIP3    H173882   0.537   6.535  16.382 -0.8896  2.1403 -0.6183
17489TIP3    H273883   0.597   6.455  16.268 -0.6617 -0.5201  1.2821
17490TIP3   OH273884   4.970   6.311  11.848  0.0811 -0.0531  0.2162
17490TIP3    H173885   5.017   6.380  11.802  1.3941 -1.4210 -0.5947
17490TIP3    H273886   4.913   6.272  11.781  0.2075 -0.4851  0.3556
17491TIP3   OH273887   1.869   2.571   4.651  0.0030 -0.1423  0.0178
17491TIP3    H173888   1.926   2.536   4.720 -2.7303 -0.9320  2.0522
17491TIP3    H273889   1.812   2.498   4.627 -0.9623  0.9105 -1.0532
17492TIP3   OH273890   3.179   2.818   2.546 -0.5298 -0.1588  0.7456
17492TIP3    H173891   3.133   2.852   2.469 -0.7869  1.7584  1.6776
17492TIP3    H273892   3.122   2.748   2.578 -0.9609 -0.2520 -0.1861
17493TIP3   OH273893   3.886   4.078  11.796 -0.2219  0.2998  0.6061
17493TIP3    H173894   3.965   4.024  11.805  0.2190  0.7739 -0.3281
17493TIP3    H273895   3.914   4.154  11.745 -1.5982 -0.2207 -1.0215
17494TIP3   OH273896   4.509   4.945   5.585 -0.1715 -0.3180  0.0142
17494TIP3    H173897   4.511   4.965   5.491 -2.9856 -1.0889 -0.2924
17494TIP3    H273898   4.500   5.030   5.627 -1.8980 -0.1251 -0.6542
17495TIP3   OH273899   4.412   6.431  15.409  0.1031  0.2107 -0.2697
17495TIP3    H173900   4.494   6.440  15.361  0.1245 -0.2340 -0.3226
17495TIP3    H273901   4.345   6.426  15.341 -0.3152  3.4013 -0.2209
17496TIP3   OH273902   0.588   0.486   3.527  0.3106  0.0275  0.5346
17496TIP3    H173903   0.616   0.484   3.435  1.4064 -0.0725  0.8507
17496TIP3    H273904   0.499   0.452   3.526  0.9398 -1.7249 -0.2901
17497TIP3   OH273905   3.224   2.827  13.892 -0.1283  0.1304  0.1620
17497TIP3    H173906   3.212   2.852  13.983 -0.2388  1.0945 -0.1024
17497TIP3    H273907   3.224   2.910  13.844 -4.0327 -0.4635 -1.2200
17498TIP3   OH273908   6.607   3.573  12.516  0.0035  0.3749 -0.1061
17498TIP3    H173909   6.658   3.576  12.434  1.1461 -2.4050  0.4086
17498TIP3    H273910   6.526   3.529  12.493 -0.8494  1.9035 -0.2118
17499TIP3   OH273911   4.882   5.866  13.950  0.3295  0.7336 -0.3180
17499TIP3    H173912   4.806   5.920  13.928  0.3114  0.2145 -1.6148
17499TIP3    H273913   4.899   5.816  13.870 -0.6163 -2.3514  1.2868
17500TIP3   OH273914   4.199   0.225  14.976 -0.1818 -0.3857  0.6555
17500TIP3    H173915   4.189   0.203  14.883  0.2197  1.1413  0.2088
17500TIP3    H273916   4.277   0.177  15.004 -0.8922 -1.6696  0.4998
17501TIP3   OH273917   4.798   4.377   0.285  0.0291 -0.1295 -0.1484
17501TIP3    H173918   4.787   4.466   0.250  0.4370  0.1440  0.3930
17501TIP3    H273919   4.769   4.319   0.214  0.3783  0.4189 -0.7485
17502TIP3   OH273920   1.087   2.812   1.654  0.1000 -0.5718 -0.0028
17502TIP3    H173921   1.177   2.830   1.683  0.0729  1.1464 -0.8809
17502TIP3    H273922   1.032   2.866   1.710 -0.1797  0.3231 -1.1091
17503TIP3   OH273923   2.071   1.528  11.734  0.1142 -0.0261 -0.0522
17503TIP3    H173924   2.135   1.533  11.663 -0.3251 -0.4860 -0.4858
17503TIP3    H273925   2.059   1.434  11.749  0.0761  0.0653  0.5143
17504TIP3   OH273926   1.302   3.506  14.337  0.1073 -0.1751  0.6419
17504TIP3    H173927   1.216   3.479  14.366  0.3694  0.1878  1.7950
17504TIP3    H273928   1.349   3.425  14.320 -0.7870 -0.3800 -1.0690
17505TIP3   OH273929   5.796   3.347  17.117 -0.0829  0.1472  0.4184
17505TIP3    H173930   5.829   3.266  17.155  0.5980  0.6573  0.9451
17505TIP3    H273931   5.709   3.325  17.082  0.3037 -0.9197  0.1110
17506TIP3   OH273932   4.799   3.452  17.287 -0.3158 -0.4973 -0.4342
17506TIP3    H173933   4.714   3.480  17.253  0.0503  1.0053 -0.1772
17506TIP3    H273934   4.861   3.480  17.220  0.1940  0.5445  0.4465
17507TIP3   OH273935   6.602   3.805   5.805  0.1235  0.2641 -0.9122
17507TIP3    H173936   6.563   3.877   5.754  0.7121  0.3221 -1.2900
17507TIP3    H273937   6.562   3.726   5.769  0.3744  0.3212 -1.3267
17508TIP3   OH273938   5.262   0.577   3.857 -0.2677 -0.2860 -0.4145
17508TIP3    H173939   5.313   0.522   3.797 -0.2993 -0.9839  0.1853
17508TIP3    H273940   5.223   0.515   3.918 -0.6964  0.3736 -0.0174
17509TIP3   OH273941   0.350   4.793  10.990 -0.7430 -0.4507  0.5218
17509TIP3    H173942   0.382   4.810  10.901 -2.1902 -1.4206 -0.2125
17509TIP3    H273943   0.415   4.834  11.047  0.7341 -0.6532 -0.9547
17510TIP3   OH273944   0.298   4.090  13.194  0.2143 -0.1542 -0.0077
17510TIP3    H173945   0.383   4.056  13.166 -0.5937 -1.0701 -1.5085
17510TIP3    H273946   0.269   4.029  13.262  0.6141 -0.0274  0.2783
17511TIP3   OH273947   6.224   4.499  15.341  0.6092 -0.3271 -0.0093
17511TIP3    H173948   6.273   4.469  15.418  0.5034 -2.3099 -0.6655
17511TIP3    H273949   6.143   4.536  15.377  0.5652 -1.2255  0.8555
17512TIP3   OH273950   0.397   2.425   5.938  0.2449 -0.3164 -0.0090
17512TIP3    H173951   0.375   2.365   5.868 -0.2865  0.4974 -0.5592
17512TIP3    H273952   0.364   2.510   5.908  1.6356  0.4012  0.4075
17513TIP3   OH273953   4.816   5.102   0.122  0.4155  0.2479 -0.2431
17513TIP3    H173954   4.745   5.041   0.138  0.8022 -0.4990 -1.2525
17513TIP3    H273955   4.859   5.069   0.043  2.8085 -0.1901  1.1333
17514TIP3   OH273956   1.094   3.479  16.304 -0.2039  0.6054 -0.4999
17514TIP3    H173957   1.029   3.433  16.355 -1.7070  0.4389 -2.4449
17514TIP3    H273958   1.174   3.427  16.313 -0.7978 -0.1543  0.5070
17515TIP3   OH273959   0.027   3.738  16.258 -0.1332  0.0852 -0.3915
17515TIP3    H173960   0.029   3.800  16.185 -2.3552 -0.1976 -0.7874
17515TIP3    H273961  -0.029   3.667  16.226  0.9305 -1.2739  0.6945
17516TIP3   OH273962   6.106   2.300  12.532 -0.1124 -0.2914  0.1990
17516TIP3    H173963   6.099   2.332  12.442  0.8112 -0.4858  0.0552
17516TIP3    H273964   6.177   2.351  12.571 -0.3410 -0.3806  0.7441
17517TIP3   OH273965   3.181   1.610   6.070 -0.1555  0.5944  0.0213
17517TIP3    H173966   3.096   1.653   6.068 -1.0836 -1.1867 -1.9147
17517TIP3    H273967   3.203   1.595   5.978  1.1900 -0.9869  0.5537
17518TIP3   OH273968   4.493   4.787   1.199  0.3534 -0.4044 -0.7276
17518TIP3    H173969   4.406   4.768   1.163  0.1413  1.4139 -1.3148
17518TIP3    H273970   4.551   4.787   1.124  0.3295  1.0908 -0.7879
17519TIP3   OH273971   0.834   5.848   0.978  0.5670 -0.0189  0.0268
17519TIP3    H173972   0.759   5.887   0.935  0.1029 -2.2617 -1.3842
17519TIP3    H273973   0.908   5.903   0.953 -0.2681  0.8915 -0.4867
17520TIP3   OH273974   6.461   1.653  16.638  0.0795  0.9838 -0.6311
17520TIP3    H173975   6.465   1.595  16.714  1.0444 -0.3358 -1.6526
17520TIP3    H273976   6.372   1.689  16.641 -0.2908  0.0510  0.4596
17521TIP3   OH273977   6.499   4.348  13.071  0.5234 -0.2123  0.1777
17521TIP3    H173978   6.459   4.328  12.987 -0.8499 -0.8615  0.9492
17521TIP3    H273979   6.570   4.284  13.080  1.0931  0.2797 -0.7532
17522TIP3   OH273980   6.292   4.331  16.041 -0.2234  0.0559  0.2512
17522TIP3    H173981   6.315   4.265  15.976 -1.1189 -0.0018 -0.0236
17522TIP3    H273982   6.336   4.411  16.011 -0.0822 -0.1346 -0.0512
17523TIP3   OH273983   2.502   6.539   1.292  0.2131  0.1859  0.2734
17523TIP3    H173984   2.495   6.449   1.259 -0.8536 -0.0438  1.0462
17523TIP3    H273985   2.549   6.530   1.375  0.4544  0.3919  0.1571
17524TIP3   OH273986   1.861   3.923   4.949  0.3560  0.0158  0.3270
17524TIP3    H173987   1.910   3.952   4.872  0.2579  0.8206  0.5553
17524TIP3    H273988   1.851   4.002   5.001  0.5147 -0.5442  1.2230
17525TIP3   OH273989   0.134   2.770   0.975 -0.3449  0.6415 -0.3895
17525TIP3    H173990   0.065   2.729   0.923 -1.3862  2.1588 -0.2607
17525TIP3    H273991   0.160   2.702   1.038 -0.7808 -0.3860 -1.2836
17526TIP3   OH273992   5.218   5.112  17.020  0.3821 -0.1776  0.0771
17526TIP3    H173993   5.208   5.022  16.989 -0.1513  0.8373 -3.0615
17526TIP3    H273994   5.128   5.142  17.035  0.3887  0.4891 -1.1151
17527TIP3   OH273995   2.511   1.708  16.751 -0.2404  0.3975 -0.1162
17527TIP3    H173996   2.513   1.765  16.828  0.7298  0.3648 -0.1065
17527TIP3    H273997   2.596   1.665  16.751 -1.3644 -1.9583  0.5445
17528TIP3   OH273998   1.427   0.505  15.183  0.4398 -0.5339 -0.8057
17528TIP3    H173999   1.404   0.455  15.262  0.5885  0.1748 -0.3027
17528TIP3    H274000   1.444   0.438  15.117 -1.0464 -1.1280 -0.6317
17529TIP3   OH274001   6.759   0.062   5.343 -0.2033 -0.2348  0.2685
17529TIP3    H174002   6.811   0.070   5.423  0.6701  0.1367 -0.3314
17529TIP3    H274003   6.800  -0.008   5.293  0.6327  1.0325 -0.8690
17530TIP3   OH274004   2.646   1.514   2.394 -0.4383 -0.2386 -0.0686
17530TIP3    H174005   2.736   1.494   2.422 -0.5106  0.1980  0.4867
17530TIP3    H274006   2.628   1.600   2.430 -1.0579 -0.2854 -0.2525
17531TIP3   OH274007   3.522   3.863  17.004 -0.1078 -0.3710  0.5319
17531TIP3    H174008   3.478   3.777  17.002 -2.5765  0.6964  2.9291
17531TIP3    H274009   3.541   3.878  17.096  0.2821  1.6778  0.1544
17532TIP3   OH274010   0.175   0.190  16.505 -0.4265  0.1324 -0.2147
17532TIP3    H174011   0.174   0.286  16.501  1.3895  0.1947 -0.3123
17532TIP3    H274012   0.084   0.164  16.492 -0.7819  1.8014 -1.3902
17533TIP3   OH274013   6.621   6.399   4.353  0.4146 -0.3131  0.4715
17533TIP3    H174014   6.545   6.407   4.296 -0.6133 -0.7809  1.7328
17533TIP3    H274015   6.616   6.310   4.388  1.9464 -0.6025  0.0499
17534TIP3   OH274016   6.663   3.642  16.507  0.9388 -0.5456 -0.0673
17534TIP3    H174017   6.736   3.684  16.461  1.4961  0.0670  1.3206
17534TIP3    H274018   6.604   3.714  16.529  0.0003 -1.0125 -0.9909
17535TIP3   OH274019   4.556   0.337   0.554  0.2110  0.7273 -0.1049
17535TIP3    H174020   4.602   0.269   0.604  2.4932  1.3661 -1.1862
17535TIP3    H274021   4.603   0.417   0.574 -1.0666  1.6236 -0.5566
17536TIP3   OH274022   6.714   1.997   3.347  0.1261 -0.6347 -0.0282
17536TIP3    H174023   6.803   1.961   3.344  0.7391  0.7022  0.8074
17536TIP3    H274024   6.664   1.943   3.287  1.5525 -1.3290 -0.6443
17537TIP3   OH274025   0.340   1.669  11.441  0.0368 -0.3527  0.3727
17537TIP3    H174026   0.410   1.635  11.384 -1.2881 -0.3285 -1.3576
17537TIP3    H274027   0.304   1.743  11.393  0.9720  1.8472  2.7846
17538TIP3   OH274028   3.964   6.480  16.438 -0.4280 -0.1040 -0.2455
17538TIP3    H174029   4.012   6.561  16.422 -2.9580  1.4717 -0.5113
17538TIP3    H274030   3.948   6.480  16.532  2.3005 -2.0534  0.3227
17539TIP3   OH274031   4.207   3.285   2.888 -0.0832 -0.4763  0.1357
17539TIP3    H174032   4.231   3.341   2.813  1.4783 -0.7287  0.4108
17539TIP3    H274033   4.236   3.198   2.863  0.5263 -0.5505  1.0425
17540TIP3   OH274034   0.347   5.324  11.868  0.3902  0.0570  0.8106
17540TIP3    H174035   0.307   5.410  11.876 -1.7438 -0.8469  0.5929
17540TIP3    H274036   0.379   5.321  11.777  2.5742  1.3946  1.4641
17541TIP3   OH274037   3.285   1.857  16.469  0.1140  0.1537  0.2490
17541TIP3    H174038   3.352   1.888  16.409 -1.0516  2.0165 -0.1706
17541TIP3    H274039   3.281   1.923  16.538 -0.0795 -0.8396  1.2190
17542TIP3   OH274040   4.238   1.837   5.269  0.6381  0.7674 -0.1488
17542TIP3    H174041   4.155   1.870   5.234 -0.9430 -1.1940  1.5115
17542TIP3    H274042   4.283   1.800   5.193 -0.8698  0.2056 -0.8194
17543TIP3   OH274043   3.952   5.206  14.156  0.1939 -0.4293  0.0203
17543TIP3    H174044   3.886   5.155  14.107 -0.0671  1.1454 -1.3586
17543TIP3    H274045   3.904   5.283  14.187  1.5840  1.4096 -2.1135
17544TIP3   OH274046   2.276   0.319  13.196  0.4433 -0.2322  0.0956
17544TIP3    H174047   2.340   0.258  13.232 -0.6949 -0.8302  1.2062
17544TIP3    H274048   2.210   0.263  13.155  0.3281  0.3456 -0.5254
17545TIP3   OH274049   1.031   0.007  15.218 -0.0416 -0.3780 -0.0497
17545TIP3    H174050   1.055  -0.077  15.178  0.7295  0.3958 -1.2834
17545TIP3    H274051   0.971   0.046  15.155  0.0476  0.2406  0.2491
17546TIP3   OH274052   0.317   3.612  10.743  0.0221  0.3308 -0.3156
17546TIP3    H174053   0.254   3.649  10.681  0.8354  0.0418 -1.3471
17546TIP3    H274054   0.265   3.556  10.800 -0.7754  0.7311 -0.6372
17547TIP3   OH274055   0.517   2.094   2.113  0.6353 -0.1220 -0.4977
17547TIP3    H174056   0.504   2.020   2.055  0.2957 -0.5087  0.0686
17547TIP3    H274057   0.444   2.091   2.175  0.4221  0.8849 -0.6790
17548TIP3   OH274058   1.060   6.308   5.271 -0.1354 -0.3696  0.0073
17548TIP3    H174059   0.967   6.298   5.249 -0.5107  1.6252  0.5274
17548TIP3    H274060   1.089   6.383   5.220  0.8011 -0.0248  1.0072
17549TIP3   OH274061   6.250   3.690  12.615 -0.2170  0.0977  0.3876
17549TIP3    H174062   6.172   3.670  12.562  1.0411 -0.2882 -1.4037
17549TIP3    H274063   6.257   3.616  12.675 -1.6953  0.5579  1.1925
17550TIP3   OH274064   2.416   5.840  14.513 -0.4430  0.6423  0.4545
17550TIP3    H174065   2.371   5.918  14.480 -0.7167  1.3034  2.2515
17550TIP3    H274066   2.347   5.774  14.519 -0.7789  1.0522  1.3179
17551TIP3   OH274067   2.135   0.040   1.108 -0.5402 -0.4826  0.3091
17551TIP3    H174068   2.069  -0.024   1.137  0.9736 -2.4357 -0.3089
17551TIP3    H274069   2.201   0.040   1.177 -0.7234  0.8069  0.5129
17552TIP3   OH274070   6.653   0.941  12.055 -0.1922 -0.3440 -0.2815
17552TIP3    H174071   6.620   0.864  12.102 -0.4600  0.3246  0.6426
17552TIP3    H274072   6.728   0.970  12.107 -0.5729  0.4807 -0.1739
17553TIP3   OH274073   1.451   1.275  13.376 -0.4324 -0.0080 -0.5148
17553TIP3    H174074   1.488   1.316  13.454 -1.4541  1.1392 -0.5970
17553TIP3    H274075   1.419   1.190  13.406 -0.7628  0.4001  0.3051
17554TIP3   OH274076   1.321   3.580   1.024 -0.1558 -0.2195 -0.7772
17554TIP3    H174077   1.235   3.571   1.064 -0.4218 -0.5690 -1.4145
17554TIP3    H274078   1.310   3.549   0.934  0.0839  1.8338 -1.5704
17555TIP3   OH274079   2.182   5.160  12.550  0.6967 -0.0085 -0.3789
17555TIP3    H174080   2.172   5.135  12.642 -0.2982  1.4219 -0.0483
17555TIP3    H274081   2.096   5.144  12.511  1.3379 -1.3673 -1.2848
17556TIP3   OH274082   3.489   3.883  11.184  0.2225 -0.1131 -0.2328
17556TIP3    H174083   3.428   3.811  11.169 -0.7030  0.6108 -0.0341
17556TIP3    H274084   3.456   3.926  11.263  0.8441  0.4421 -0.2708
17557TIP3   OH274085   5.095   0.297   3.176 -0.5077 -0.1337 -0.3496
17557TIP3    H174086   5.040   0.375   3.180  1.2391  1.1754 -0.5543
17557TIP3    H274087   5.075   0.258   3.091 -0.7041  0.6447 -0.6717
17558TIP3   OH274088   1.685   5.840   5.720 -0.0029  0.4377 -0.5664
17558TIP3    H174089   1.723   5.872   5.802 -1.2592  0.2865  0.0886
17558TIP3    H274090   1.756   5.790   5.679  1.4697  2.5946 -0.8108
17559TIP3   OH274091   4.680   4.003   3.243 -0.0045 -0.3953  0.3608
17559TIP3    H174092   4.721   3.928   3.198 -1.2525 -0.1564 -1.2854
17559TIP3    H274093   4.596   4.013   3.199  0.0635  1.8712  0.6614
17560TIP3   OH274094   1.809   5.008   1.030  0.2694  0.1562  0.6109
17560TIP3    H174095   1.716   4.990   1.020 -0.0230  2.2543 -1.1441
17560TIP3    H274096   1.814   5.070   1.103  0.5527 -1.3276  1.9232
17561TIP3   OH274097   6.525   5.082   0.951 -0.3886 -0.2328  0.0568
17561TIP3    H174098   6.597   5.023   0.929 -0.5104 -0.3090 -0.1406
17561TIP3    H274099   6.558   5.169   0.929 -0.6821 -0.3542 -0.8829
17562TIP3   OH274100   5.333   1.546   0.229  0.4663  0.3181  0.1156
17562TIP3    H174101   5.418   1.518   0.194 -0.2003  0.4308 -1.7310
17562TIP3    H274102   5.306   1.617   0.171 -1.3773 -0.4629 -0.0378
17563TIP3   OH274103   4.580   6.640  13.390  1.2386 -0.2450  0.5729
17563TIP3    H174104   4.534   6.638  13.474 -0.2198  0.9112 -0.1511
17563TIP3    H274105   4.581   6.549  13.362 -1.2372 -0.2913  0.3509
17564TIP3   OH274106   5.896   6.402  13.201 -0.2918 -0.2425 -0.1989
17564TIP3    H174107   5.894   6.418  13.295 -1.0673  0.0996 -0.2670
17564TIP3    H274108   5.935   6.315  13.191  0.0044 -0.1806  0.4201
17565TIP3   OH274109   4.106   5.383  13.998  0.3480  0.5335 -0.4196
17565TIP3    H174110   4.057   5.313  14.041 -0.7237  1.5659  0.0954
17565TIP3    H274111   4.158   5.422  14.069  0.5136  0.6212 -0.5884
17566TIP3   OH274112   2.101   5.193   5.077  0.7518  0.1434 -0.0941
17566TIP3    H174113   2.165   5.128   5.046  0.8668 -0.0081  0.4454
17566TIP3    H274114   2.076   5.241   4.998 -0.1272 -1.2458 -0.6999
17567TIP3   OH274115   2.404   1.543   3.269  0.0420 -0.1720 -0.2452
17567TIP3    H174116   2.489   1.506   3.248 -0.2758  0.0486 -2.1948
17567TIP3    H274117   2.351   1.528   3.190 -1.0653  1.5398  0.1070
17568TIP3   OH274118   3.692   1.739  16.361  0.8241  0.3926 -0.1850
17568TIP3    H174119   3.690   1.745  16.456  0.0848 -0.3014 -0.1447
17568TIP3    H274120   3.659   1.824  16.331  1.4652  0.7729  0.1566
17569TIP3   OH274121   6.426   3.248   5.290  0.1458  0.0376 -0.1266
17569TIP3    H174122   6.403   3.255   5.198  0.0239  1.4544 -0.0070
17569TIP3    H274123   6.368   3.310   5.334 -0.8885 -1.7147  1.1195
17570TIP3   OH274124   5.849   3.458   6.317 -0.2011  0.4100  0.2307
17570TIP3    H174125   5.769   3.497   6.354  0.0393  1.3130 -0.1679
17570TIP3    H274126   5.918   3.520   6.340  0.2964 -0.0858  0.0861
17571TIP3   OH274127   1.202   0.303   3.394  0.0562 -0.7704 -0.3046
17571TIP3    H174128   1.215   0.248   3.472  3.0894  1.6730  1.1155
17571TIP3    H274129   1.152   0.379   3.426  2.1437  0.7196 -0.3962
17572TIP3   OH274130   6.618   0.258   4.914  0.3507  0.7914  0.0556
17572TIP3    H174131   6.669   0.265   4.995  0.8689  1.8767 -0.3536
17572TIP3    H274132   6.548   0.323   4.925 -0.7722 -0.4359  0.4614
17573TIP3   OH274133   6.608   2.985   4.539  0.0974  0.6624  0.2476
17573TIP3    H174134   6.550   2.933   4.595  0.3877  0.1854  0.1131
17573TIP3    H274135   6.555   3.005   4.461 -0.8519  2.6629  1.3196
17574TIP3   OH274136   0.051   5.296   3.595 -0.7551  0.6902  0.0410
17574TIP3    H174137   0.008   5.301   3.680 -0.5453  1.0170  0.1301
17574TIP3    H274138   0.085   5.207   3.590  1.6252  1.4278  1.4765
17575TIP3   OH274139   6.381   5.571   3.521 -0.5529 -0.2954 -0.3780
17575TIP3    H174140   6.328   5.549   3.597  0.2055  1.0152  0.5855
17575TIP3    H274141   6.471   5.576   3.555 -0.3957  1.9472 -0.9322
17576TIP3   OH274142   2.623   0.058   0.866 -0.5392 -0.6378 -0.3743
17576TIP3    H174143   2.648   0.148   0.841 -0.9054 -1.0959 -2.6319
17576TIP3    H274144   2.572   0.027   0.792 -2.0829 -2.0770  1.2281
17577TIP3   OH274145   6.042   3.533  16.177  0.4052  1.0879  0.3339
17577TIP3    H174146   6.127   3.527  16.134  0.4718  1.5308  0.4004
17577TIP3    H274147   6.049   3.472  16.251 -0.3540 -1.1060 -1.3055
17578TIP3   OH274148   2.148   6.406  14.807 -0.8300 -0.5536 -0.4576
17578TIP3    H174149   2.066   6.452  14.823 -0.7489  0.2295 -2.1546
17578TIP3    H274150   2.123   6.315  14.791 -1.0623 -1.0108  2.0620
17579TIP3   OH274151   6.735   4.210  13.059 -0.0968  0.2089  0.2020
17579TIP3    H174152   6.778   4.135  13.018 -0.8625  0.6689 -1.5607
17579TIP3    H274153   6.789   4.285  13.033  0.9247  0.2680  2.3266
17580TIP3   OH274154   6.330   1.932   0.344  0.0991  0.0576 -0.2738
17580TIP3    H174155   6.249   1.896   0.308 -0.6863  0.4814  1.0060
17580TIP3    H274156   6.303   2.013   0.388  0.9996 -0.4531  1.2702
17581TIP3   OH274157   1.747   5.189   3.767  0.0913 -0.6312 -0.2701
17581TIP3    H174158   1.767   5.097   3.786 -0.8881 -0.3707  2.4628
17581TIP3    H274159   1.658   5.187   3.732 -0.4329 -0.6504  1.0246
17582TIP3   OH274160   5.655   6.667  15.645  0.7138  0.0292  0.4792
17582TIP3    H174161   5.588   6.731  15.669  0.7727  0.9866 -1.6819
17582TIP3    H274162   5.704   6.709  15.574  1.5892 -1.9067 -0.1300
17583TIP3   OH274163   5.070   3.508   0.011 -0.0443 -0.1272  0.0682
17583TIP3    H174164   5.124   3.451   0.066 -0.9458 -0.7940  0.2889
17583TIP3    H274165   4.997   3.534   0.067  0.1362  0.9366 -0.1603
17584TIP3   OH274166   6.665   4.151  12.086 -0.3034 -0.6160  0.3758
17584TIP3    H174167   6.704   4.169  12.171  2.7985  0.1064 -1.0746
17584TIP3    H274168   6.579   4.114  12.107  0.5290 -0.9654  3.8015
17585TIP3   OH274169   4.135   3.292  12.710  0.0956 -0.0463  0.4068
17585TIP3    H174170   4.044   3.270  12.691 -0.5044  1.9171  0.7904
17585TIP3    H274171   4.172   3.212  12.748 -0.5194 -1.9301 -2.5949
17586TIP3   OH274172   3.532   1.739  15.634 -0.4978  0.3960 -0.6276
17586TIP3    H174173   3.516   1.688  15.714  0.1946 -1.1435 -1.4267
17586TIP3    H274174   3.543   1.829  15.665 -0.1309 -0.1800  1.0207
17587TIP3   OH274175   0.650   2.957  14.916  0.8700  0.3886 -0.3341
17587TIP3    H174176   0.632   3.051  14.907  1.9122  0.6476  0.1041
17587TIP3    H274177   0.643   2.923  14.827 -1.6360  0.4398 -0.2333
17588TIP3   OH274178   3.631   4.854  15.018 -0.4438 -0.5235  0.4856
17588TIP3    H174179   3.643   4.908  14.940  2.0033 -2.1829 -0.3856
17588TIP3    H274180   3.607   4.917  15.087  1.3555  1.5590 -0.6671
17589TIP3   OH274181   2.669   0.810  13.662 -0.9386  0.0082 -0.4305
17589TIP3    H174182   2.639   0.801  13.571  0.0551  1.7714 -0.9713
17589TIP3    H274183   2.647   0.900  13.686  1.0983  0.3842  0.1883
17590TIP3   OH274184   4.422   1.098  16.815 -0.1578 -0.0108 -0.0148
17590TIP3    H174185   4.394   1.162  16.881  0.2924 -0.6795  0.8520
17590TIP3    H274186   4.493   1.141  16.768  0.7999 -0.1985  1.2048
17591TIP3   OH274187   3.421   6.502   4.236  0.4713 -0.4816 -0.4140
17591TIP3    H174188   3.405   6.501   4.141  1.0046 -0.4850 -0.5108
17591TIP3    H274189   3.391   6.587   4.265 -1.1810 -1.0702 -0.3071
17592TIP3   OH274190   4.459   3.166  13.392 -0.1783 -0.1915 -0.0722
17592TIP3    H174191   4.510   3.177  13.473 -0.7399 -0.9022  0.3974
17592TIP3    H274192   4.506   3.217  13.327  0.9342 -0.5321  0.4371
17593TIP3   OH274193   5.998   4.467  13.734  0.1469 -0.3169 -0.3391
17593TIP3    H174194   5.951   4.436  13.811 -0.8278  0.2897 -0.6721
17593TIP3    H274195   6.057   4.534  13.767 -2.1525  1.8715 -0.4224
17594TIP3   OH274196   1.610   3.728   6.730 -0.5384 -0.1198 -0.0203
17594TIP3    H174197   1.702   3.709   6.712 -0.1735  0.3000  1.2838
17594TIP3    H274198   1.599   3.819   6.703  0.3164  0.8985  2.7399
17595TIP3   OH274199   2.748   0.130  12.388 -0.2131  0.2170  0.7265
17595TIP3    H174200   2.736   0.035  12.388  0.3860  0.1162 -0.8072
17595TIP3    H274201   2.670   0.163  12.343 -0.7518  0.5374  1.8401
17596TIP3   OH274202   1.201   5.114  12.398  0.2345  0.7300 -0.2907
17596TIP3    H174203   1.273   5.170  12.371  0.6298  0.3983  0.0457
17596TIP3    H274204   1.123   5.152  12.357  0.5497  1.2926 -0.3763
17597TIP3   OH274205   5.749   2.142  14.111  0.3477 -0.0812 -0.3416
17597TIP3    H174206   5.711   2.111  14.028 -2.0895  1.1054  0.2146
17597TIP3    H274207   5.735   2.236  14.109 -1.4396 -0.1873  2.1060
17598TIP3   OH274208   3.280   4.080   5.642  0.7111  0.2149  0.5995
17598TIP3    H174209   3.369   4.114   5.643  0.5879  0.5258  1.2256
17598TIP3    H274210   3.290   3.990   5.611  1.1565  0.4745 -0.0251
17599TIP3   OH274211   1.303   2.953   1.470 -0.3891 -0.6322  0.0123
17599TIP3    H174212   1.219   2.926   1.432 -1.1216  0.7445  0.6191
17599TIP3    H274213   1.298   2.926   1.561 -0.1297 -0.6150  0.0319
17600TIP3   OH274214   3.326   6.395  16.616  0.5138 -0.2499 -0.3285
17600TIP3    H174215   3.404   6.433  16.575 -1.1253  1.8330 -1.6741
17600TIP3    H274216   3.342   6.405  16.710  1.2104  1.6691 -0.6015
17601TIP3   OH274217   1.316   0.722   4.113  0.8129 -0.5817 -0.1203
17601TIP3    H174218   1.336   0.644   4.164  0.6767 -1.8434 -1.8796
17601TIP3    H274219   1.383   0.723   4.044  0.9350  0.9828 -0.0155
17602TIP3   OH274220   0.154   2.678  12.368 -0.2082  0.1433  0.2084
17602TIP3    H174221   0.168   2.765  12.331  1.2826 -0.3121 -0.3941
17602TIP3    H274222   0.231   2.662  12.423 -0.1367 -1.0339 -0.2008
17603TIP3   OH274223   5.288   0.953  16.417  0.3752 -0.0089  0.1415
17603TIP3    H174224   5.330   0.911  16.341 -0.1896 -1.6827  0.7130
17603TIP3    H274225   5.328   0.910  16.493 -0.2580  0.4710  0.7538
17604TIP3   OH274226   0.582   2.234  11.629  0.1558 -0.3709 -0.3676
17604TIP3    H174227   0.595   2.308  11.689 -1.7067 -1.3080  1.3325
17604TIP3    H274228   0.493   2.247  11.596  0.3041 -1.1564 -1.0900
17605TIP3   OH274229   2.909   1.222  16.436 -0.1120 -0.0468  0.3608
17605TIP3    H174230   2.906   1.258  16.347 -2.0285 -0.0847  0.3640
17605TIP3    H274231   2.891   1.296  16.493 -0.5312 -0.3311  0.6036
17606TIP3   OH274232   4.453   1.568   0.925  0.6665  0.1282  0.3679
17606TIP3    H174233   4.388   1.563   0.855 -1.2770  0.4351  2.0429
17606TIP3    H274234   4.456   1.661   0.948  2.0445  0.1847  0.0537
17607TIP3   OH274235   6.327   6.383   6.395 -0.4207 -0.3424  0.6544
17607TIP3    H174236   6.351   6.324   6.323 -2.2700 -1.7348  1.1205
17607TIP3    H274237   6.410   6.399   6.441  0.3283 -1.6694 -0.1618
17608TIP3   OH274238   4.634   2.453   4.329 -0.3092 -0.0564  0.2962
17608TIP3    H174239   4.721   2.443   4.291  0.3629  0.8694  1.5132
17608TIP3    H274240   4.650   2.465   4.423 -1.5336  2.8459  0.2464
17609TIP3   OH274241   5.031   1.717  15.556 -0.5031 -0.2381  0.1937
17609TIP3    H174242   4.943   1.704  15.519 -0.4543  0.7670 -0.2870
17609TIP3    H274243   5.029   1.666  15.638 -0.6971 -2.3022 -1.0092
17610TIP3   OH274244   2.610   5.445  13.545  0.2687  0.3237  0.2910
17610TIP3    H174245   2.566   5.521  13.506 -0.8183  1.4919  3.5050
17610TIP3    H274246   2.680   5.483  13.599  2.4546 -1.2898 -1.2199
17611TIP3   OH274247   6.105   1.958   3.774  0.5701  0.2006 -0.2015
17611TIP3    H174248   6.087   1.865   3.765  0.7184  0.0676  0.8068
17611TIP3    H274249   6.020   1.997   3.794  0.7972  0.0248  1.1909
17612TIP3   OH274250   3.451   3.832   6.100  0.3982  0.7623  0.2888
17612TIP3    H174251   3.419   3.742   6.109  1.7192  0.0129 -1.7222
17612TIP3    H274252   3.474   3.859   6.189 -3.2939  0.4738  1.5116
17613TIP3   OH274253   3.637   2.556   1.818 -0.4155  0.1044 -0.3319
17613TIP3    H174254   3.660   2.560   1.725  0.0051 -1.9791 -0.3754
17613TIP3    H274255   3.574   2.483   1.823 -1.1296  0.7838  0.8940
17614TIP3   OH274256   2.209   0.563  11.170  0.4241  0.3974 -0.2731
17614TIP3    H174257   2.150   0.586  11.241 -0.6614  1.3647 -1.4380
17614TIP3    H274258   2.284   0.621  11.181 -0.0126  0.9617 -0.2703
17615TIP3   OH274259   5.666   2.513  12.100  0.0335 -0.3353  0.5438
17615TIP3    H174260   5.731   2.511  12.029 -0.7321 -0.3381 -0.1718
17615TIP3    H274261   5.673   2.427  12.141 -1.0066 -1.1703 -0.9254
17616TIP3   OH274262   4.082   3.661  14.228  0.2005  0.1308 -0.3778
17616TIP3    H174263   4.051   3.577  14.193 -1.5591  0.6395 -0.1334
17616TIP3    H274264   4.074   3.652  14.323 -0.4083  0.7202 -0.3684
17617TIP3   OH274265   4.852   0.382  13.627 -0.1992  0.4476 -0.3143
17617TIP3    H174266   4.824   0.314  13.689  0.7756 -0.4654 -0.8440
17617TIP3    H274267   4.946   0.391  13.642  0.1127  0.0055 -1.8274
17618TIP3   OH274268   3.691   1.837   4.363 -0.1899  0.0261 -0.0044
17618TIP3    H174269   3.698   1.754   4.411  0.5145  1.0778  1.8414
17618TIP3    H274270   3.732   1.820   4.279  2.4022 -0.8226  1.3095
17619TIP3   OH274271   5.733   6.180   3.453 -0.5791 -0.0101  0.2112
17619TIP3    H174272   5.658   6.139   3.496 -1.2987  0.3910 -0.6443
17619TIP3    H274273   5.713   6.273   3.454  0.0960  0.1370  0.3164
17620TIP3   OH274274   2.089   2.306  13.819  0.2749  0.0434 -0.8434
17620TIP3    H174275   2.160   2.291  13.881  0.2186 -0.7333 -0.9467
17620TIP3    H274276   2.096   2.398  13.794 -0.4468  0.7077  1.2374
17621TIP3   OH274277   5.978   2.212  15.671 -0.0932  0.2510 -0.2239
17621TIP3    H174278   5.906   2.169  15.717 -0.1171 -1.2365 -1.5366
17621TIP3    H274279   6.049   2.147  15.673  0.4224  0.7823 -0.8996
17622TIP3   OH274280   4.021   6.393  11.791  0.3219 -0.1301  0.3932
17622TIP3    H174281   4.088   6.392  11.860 -0.8537 -1.6194  1.5811
17622TIP3    H274282   4.059   6.340  11.721  2.3590  2.9680 -1.0825
17623TIP3   OH274283   3.038   3.760  11.582  0.1858  0.4685  0.2089
17623TIP3    H174284   2.993   3.708  11.649 -0.6656  0.7061 -0.1579
17623TIP3    H274285   2.989   3.743  11.501  1.2613  0.1061 -0.3864
17624TIP3   OH274286   5.312   3.416   5.546 -0.1671 -0.5574 -0.0500
17624TIP3    H174287   5.295   3.479   5.476 -1.0881 -0.3758  0.3187
17624TIP3    H274288   5.316   3.331   5.502 -1.7997 -0.5772 -0.2195
17625TIP3   OH274289   5.520   6.434   6.581 -0.2230 -0.6955  0.3003
17625TIP3    H174290   5.570   6.363   6.619  1.0121 -0.6541 -1.1746
17625TIP3    H274291   5.583   6.484   6.530 -1.0947  1.3314  1.0628
17626TIP3   OH274292   3.836   3.919   4.380 -0.5152 -0.5713  0.1158
17626TIP3    H174293   3.789   4.003   4.387  0.3936 -0.1465  1.9727
17626TIP3    H274294   3.855   3.909   4.287 -1.2179  0.9579 -0.2229
17627TIP3   OH274295   0.105   0.313   4.256 -0.0267 -0.3754 -0.3270
17627TIP3    H174296   0.142   0.338   4.341 -0.0264 -0.5261 -0.2818
17627TIP3    H274297   0.018   0.352   4.254 -0.6474 -1.6625  0.3984
17628TIP3   OH274298   5.845   2.905   5.522 -0.8349 -0.1259 -0.1875
17628TIP3    H174299   5.877   2.994   5.534  1.4381 -0.9629  0.6961
17628TIP3    H274300   5.813   2.879   5.609 -1.8401 -0.0689 -0.5288
17629TIP3   OH274301   5.388   4.990   1.495  0.0153  0.0025  0.4409
17629TIP3    H174302   5.385   5.061   1.431  0.6465 -0.7630 -0.4637
17629TIP3    H274303   5.473   5.000   1.537  0.1432 -0.2610  0.2499
17630TIP3   OH274304   4.721   4.500  13.879 -0.5987  0.1352 -0.3313
17630TIP3    H174305   4.722   4.592  13.854 -0.5973  0.6694  1.5063
17630TIP3    H274306   4.809   4.482  13.912 -1.1069  0.0093  1.0337
17631TIP3   OH274307   0.446   4.087  14.546 -0.2348 -0.5029  0.1864
17631TIP3    H174308   0.541   4.095  14.544 -0.1873 -1.1945 -0.7421
17631TIP3    H274309   0.421   4.075  14.455 -1.4862  2.5315  0.0015
17632TIP3   OH274310   4.973   2.048   1.865 -0.0010 -0.4947 -0.1069
17632TIP3    H174311   5.033   2.057   1.939  0.7419 -0.8998 -0.6471
17632TIP3    H274312   4.900   1.997   1.899 -0.3199  0.4689  0.7112
17633TIP3   OH274313   0.989   3.259  12.064  0.2135  0.0017  0.4265
17633TIP3    H174314   0.897   3.242  12.048  0.3595  0.6787 -1.3806
17633TIP3    H274315   1.035   3.195  12.009  0.7648  1.6732 -1.1592
17634TIP3   OH274316   1.344   2.341   0.356 -0.1209 -0.0179 -0.3249
17634TIP3    H174317   1.304   2.339   0.443 -0.7927 -1.2753 -0.6366
17634TIP3    H274318   1.380   2.429   0.348 -0.9195  0.4364  0.8408
17635TIP3   OH274319   0.830   2.167  11.812  0.3651 -0.2943  0.3261
17635TIP3    H174320   0.863   2.173  11.722 -1.2953 -1.2962 -0.4060
17635TIP3    H274321   0.795   2.254  11.831 -0.4915 -0.4265 -0.5359
17636TIP3   OH274322   2.535   6.470   3.271 -0.0627 -0.1102 -0.3868
17636TIP3    H174323   2.624   6.450   3.241  0.6996  0.7911  1.1830
17636TIP3    H274324   2.483   6.394   3.244  1.2125 -0.7341 -1.1668
17637TIP3   OH274325   6.306   0.787  15.299  0.0141  0.2617 -0.0999
17637TIP3    H174326   6.308   0.707  15.353  1.3261  0.0508 -0.4038
17637TIP3    H274327   6.341   0.759  15.215  0.9127  1.2444 -0.0707
17638TIP3   OH274328   3.108   4.373  12.465  0.4525  0.1317  0.3306
17638TIP3    H174329   3.063   4.348  12.546 -0.7863  0.9484 -0.0771
17638TIP3    H274330   3.049   4.344  12.395  0.8130  0.7328 -0.2357
17639TIP3   OH274331   6.571   4.832  13.063  0.2200  0.2917  0.0649
17639TIP3    H174332   6.650   4.814  13.114  0.4743 -3.3169 -1.3345
17639TIP3    H274333   6.599   4.898  12.999  1.8285 -0.1928  0.2210
17640TIP3   OH274334   1.001   6.137  16.509  0.3634  0.0100  0.5546
17640TIP3    H174335   0.967   6.224  16.488  0.2672  0.0733  0.9658
17640TIP3    H274336   1.095   6.143  16.491 -0.0322 -0.6681 -2.2644
17641TIP3   OH274337   1.963   5.200  13.881 -0.1823 -0.3389 -0.6834
17641TIP3    H174338   1.979   5.151  13.800  0.3317 -0.1471 -0.7042
17641TIP3    H274339   1.997   5.142  13.950  1.1767  0.3060 -0.7724
17642TIP3   OH274340   0.600   0.106  11.212  0.0511 -0.4367 -0.3749
17642TIP3    H174341   0.592   0.189  11.164 -1.2416 -0.8100 -0.8393
17642TIP3    H274342   0.573   0.039  11.149 -1.1417 -0.9976  0.6848
17643TIP3   OH274343   5.537   0.978   4.503 -0.1191 -0.1036  0.2310
17643TIP3    H174344   5.595   0.989   4.578  2.5700  1.8843 -1.9356
17643TIP3    H274345   5.516   0.884   4.502  1.8844 -0.6461  1.9756
17644TIP3   OH274346   2.032   0.320   5.758  0.3898 -0.1344 -0.4331
17644TIP3    H174347   1.980   0.400   5.747 -0.6322 -0.8872 -1.2104
17644TIP3    H274348   2.123   0.349   5.747  0.2799  1.3800  1.8846
17645TIP3   OH274349   1.242   4.340  16.223 -0.3681  0.4284  0.0680
17645TIP3    H174350   1.304   4.284  16.177  2.6843  1.2207  2.8276
17645TIP3    H274351   1.158   4.293  16.219  1.6317 -3.6423  0.9340
17646TIP3   OH274352   1.395   0.052  15.504  0.4939  0.1890 -0.3558
17646TIP3    H174353   1.456  -0.018  15.529 -0.7188 -1.3028 -1.4570
17646TIP3    H274354   1.311   0.008  15.494 -0.4733  1.9617 -0.3326
17647TIP3   OH274355   5.768   2.879   1.463  0.0421 -0.0794 -0.0815
17647TIP3    H174356   5.775   2.900   1.370 -0.4507 -0.3292 -0.1827
17647TIP3    H274357   5.856   2.855   1.490  0.1072 -0.4231 -0.5920
17648TIP3   OH274358   0.058   5.131  12.857  0.0066  0.2461  0.0303
17648TIP3    H174359   0.067   5.212  12.807  1.0898 -0.4872 -1.0059
17648TIP3    H274360  -0.005   5.079  12.807 -0.1140  0.1378  0.2915
17649TIP3   OH274361   3.676   5.964   5.722  0.3417  0.0527 -0.1724
17649TIP3    H174362   3.663   5.871   5.741 -0.4034 -0.2952 -2.2233
17649TIP3    H274363   3.587   6.001   5.722  0.5354  0.5214 -0.5743
17650TIP3   OH274364   2.611   4.382   2.617 -0.0526  0.0033  0.5094
17650TIP3    H174365   2.626   4.433   2.697  0.7154  1.3363 -0.4381
17650TIP3    H274366   2.516   4.370   2.613 -0.2431  1.3079  0.8210
17651TIP3   OH274367   0.431   3.132   2.570  0.2995  0.1820  0.4841
17651TIP3    H174368   0.393   3.214   2.536  0.4918 -0.0066 -0.2024
17651TIP3    H274369   0.446   3.150   2.662  3.0856  1.9943 -0.1867
17652TIP3   OH274370   6.023   5.788   4.138 -0.6696  0.5987  0.3286
17652TIP3    H174371   6.046   5.873   4.176 -0.9917 -0.5279  3.2451
17652TIP3    H274372   5.934   5.802   4.103 -0.2055  1.7736 -0.4809
17653TIP3   OH274373   4.304   4.301  16.403  0.0162 -0.0049  0.2056
17653TIP3    H174374   4.273   4.392  16.397 -1.1393 -0.3291  0.8141
17653TIP3    H274375   4.229   4.253  16.439  0.6310 -1.1924 -0.0416
17654TIP3   OH274376   3.662   3.887  11.662 -0.6010 -0.5579 -0.2779
17654TIP3    H174377   3.702   3.801  11.658 -0.0190 -0.2530 -1.4985
17654TIP3    H274378   3.671   3.922  11.573  0.2002  1.2000  0.4431
17655TIP3   OH274379   4.770   3.058   4.176 -0.4100 -0.5663 -0.5483
17655TIP3    H174380   4.788   3.074   4.083  3.2542  1.7193  0.3292
17655TIP3    H274381   4.843   3.004   4.205  0.1786  1.2137  1.5404
17656TIP3   OH274382   4.923   3.192  11.340 -0.3331  0.3048  0.0874
17656TIP3    H174383   4.830   3.173  11.352 -0.4968  0.8301 -0.3432
17656TIP3    H274384   4.939   3.178  11.246 -0.2269  1.2994 -0.0459
17657TIP3   OH274385   1.581   4.688   4.199 -0.1111  0.4142 -0.2665
17657TIP3    H174386   1.667   4.674   4.161 -0.8661  0.0329 -1.9362
17657TIP3    H274387   1.558   4.603   4.238 -0.8588 -0.3699 -2.2936
17658TIP3   OH274388   4.314   5.470  11.854 -0.0310  0.0547  0.0510
17658TIP3    H174389   4.370   5.414  11.909  0.3842  0.8446  0.4415
17658TIP3    H274390   4.286   5.541  11.912  0.5640  0.9996 -0.7872
17659TIP3   OH274391   5.368   3.508  13.469  0.0283 -0.7885 -0.7322
17659TIP3    H174392   5.301   3.550  13.415 -1.0683 -1.7724 -0.1815
17659TIP3    H274393   5.323   3.434  13.510  0.6958  0.0985  1.8181
17660TIP3   OH274394   3.569   5.895  12.160  0.2871 -0.7697 -0.2249
17660TIP3    H174395   3.550   5.988  12.147  2.6241  0.1320  1.9559
17660TIP3    H274396   3.490   5.860  12.202 -1.0209 -0.0858 -1.9758
17661TIP3   OH274397   0.553   2.552   0.675  0.0419  0.1671  0.3560
17661TIP3    H174398   0.469   2.584   0.708 -0.4264 -0.7763  0.1302
17661TIP3    H274399   0.537   2.534   0.582  1.1032  1.9861 -0.2446
17662TIP3   OH274400   2.546   6.749   4.978  0.1278  0.2708  0.5097
17662TIP3    H174401   2.588   6.820   4.930 -0.1388  0.3137  0.3369
17662TIP3    H274402   2.501   6.792   5.050  0.5966  0.1985  0.8556
17663TIP3   OH274403   3.211   1.380  14.712 -0.1008 -0.2701  0.1102
17663TIP3    H174404   3.118   1.399  14.702  0.0404 -0.2442 -1.4237
17663TIP3    H274405   3.247   1.389  14.623  1.6145  1.0630  0.8840
17664TIP3   OH274406   4.576   4.440  14.675  0.8413 -0.1412 -0.0457
17664TIP3    H174407   4.623   4.384  14.737  1.9083  0.7240 -0.0464
17664TIP3    H274408   4.607   4.529  14.694  1.0224  0.1759 -1.6613
17665TIP3   OH274409   4.996   4.708  13.659  0.2716  0.3692  0.0085
17665TIP3    H174410   4.988   4.637  13.595  0.0184  0.0764  0.3581
17665TIP3    H274411   5.036   4.780  13.610 -0.1646  0.2436 -0.5493
17666TIP3   OH274412   4.432   2.978   6.489  0.2175  0.5210 -1.0773
17666TIP3    H174413   4.361   3.014   6.437 -0.1382  0.3953 -0.6759
17666TIP3    H274414   4.448   3.042   6.558  0.2805  0.3997 -0.9772
17667TIP3   OH274415   4.010   4.944   4.225 -0.0733  0.0739  0.2530
17667TIP3    H174416   4.055   4.898   4.154  0.2061  0.8005 -0.0480
17667TIP3    H274417   4.063   5.022   4.240 -0.3010  0.0839  1.0550
17668TIP3   OH274418   3.036   6.381   2.434  0.1731 -0.4222 -0.1110
17668TIP3    H174419   2.945   6.360   2.411 -0.0368  0.5010 -0.1806
17668TIP3    H274420   3.054   6.463   2.388  1.0311 -0.5666 -0.0541
17669TIP3   OH274421   0.394   5.185   4.556 -0.1307  0.0188 -0.4482
17669TIP3    H174422   0.375   5.225   4.641  0.1399  1.8020 -1.1845
17669TIP3    H274423   0.489   5.179   4.553 -0.1802 -1.7341  0.0704
17670TIP3   OH274424   0.605   5.732   1.154  0.0654  0.0487 -0.0099
17670TIP3    H174425   0.567   5.663   1.100 -1.9443  0.9225  0.1704
17670TIP3    H274426   0.652   5.788   1.093 -2.2363  1.0650 -0.9602
17671TIP3   OH274427   0.948   3.725   5.915  0.1997  0.0660  0.2821
17671TIP3    H174428   0.992   3.704   5.832 -0.9461 -0.2656 -0.2640
17671TIP3    H274429   0.881   3.657   5.924 -0.5297  0.8421  0.8247
17672TIP3   OH274430   3.996   0.068  15.081  0.4329  0.0192  0.3771
17672TIP3    H174431   4.056   0.005  15.121  1.3372  0.8965  0.4616
17672TIP3    H274432   4.054   0.127  15.032 -0.5430 -0.3486 -1.2870
17673TIP3   OH274433   1.076   0.228  11.782 -0.4746  0.0537 -0.2000
17673TIP3    H174434   1.082   0.152  11.724 -1.7971 -0.9246  0.8893
17673TIP3    H274435   1.071   0.190  11.870  1.2270  1.4956  0.5706
17674TIP3   OH274436   5.272   0.152   0.941  0.5748 -0.1299 -0.0142
17674TIP3    H174437   5.320   0.070   0.952 -0.2412 -0.6516 -0.3419
17674TIP3    H274438   5.231   0.168   1.026 -0.1539 -0.6317 -0.2637
17675TIP3   OH274439   2.105   4.062   3.998 -0.3650  0.1130 -0.0027
17675TIP3    H174440   2.078   4.135   4.054 -0.1725 -0.1217  0.4035
17675TIP3    H274441   2.180   4.096   3.949 -0.2687  0.1831  0.1937
17676TIP3   OH274442   5.806   1.958  16.590 -0.2044  0.2007  0.4816
17676TIP3    H174443   5.776   2.037  16.635  2.0495  1.4014  0.0221
17676TIP3    H274444   5.836   1.989  16.504  0.7032 -1.1617  0.2780
17677TIP3   OH274445   6.274   4.083   0.947  0.3064 -0.3113 -0.3826
17677TIP3    H174446   6.216   4.145   0.903 -0.3999  0.1872  1.1911
17677TIP3    H274447   6.342   4.064   0.882 -0.7487  0.2945 -1.7107
17678TIP3   OH274448   4.170   6.445   2.961  0.1082  0.3256 -0.0191
17678TIP3    H174449   4.242   6.441   2.898  0.2836  0.0765  0.1949
17678TIP3    H274450   4.191   6.378   3.026  0.3132  1.0640  0.7011
17679TIP3   OH274451   2.340   3.815   2.953  0.1672  0.0735 -0.3114
17679TIP3    H174452   2.328   3.894   2.900  0.4912 -1.1390 -2.3227
17679TIP3    H274453   2.256   3.803   2.998  0.2046  1.6830  0.2462
17680TIP3   OH274454   1.793   0.160  15.193  0.0908  0.6498  0.5772
17680TIP3    H174455   1.728   0.106  15.149 -0.0749  1.3323 -0.0415
17680TIP3    H274456   1.849   0.193  15.123  2.1301 -1.2136  1.2422
17681TIP3   OH274457   4.718   3.725  11.317 -0.1346 -0.8580  0.2251
17681TIP3    H174458   4.727   3.640  11.360 -0.8012 -0.7615  0.5655
17681TIP3    H274459   4.754   3.787  11.379 -2.6747 -0.4998  1.4848
17682TIP3   OH274460   3.782   4.425  12.316  0.0095 -0.3776 -0.4294
17682TIP3    H174461   3.827   4.420  12.401 -1.9493  1.6204  0.8201
17682TIP3    H274462   3.701   4.375  12.329 -0.5328  0.3452 -0.9541
17683TIP3   OH274463   6.756   1.864  10.377  0.2186 -0.3769 -0.2951
17683TIP3    H174464   6.746   1.959  10.371 -0.1761 -0.4232 -0.3925
17683TIP3    H274465   6.668   1.832  10.392  0.6791 -0.4919  2.8648
17684TIP3   OH274466   2.979   3.194  11.536 -0.0447  0.2198  0.3444
17684TIP3    H174467   3.034   3.125  11.499 -1.7503  0.2123 -2.3541
17684TIP3    H274468   3.018   3.275  11.504  0.4491  0.4216  1.4074
17685TIP3   OH274469   4.046   2.704  15.893 -0.0394 -0.4666  0.1480
17685TIP3    H174470   4.056   2.634  15.957 -1.1358  0.5147  1.4618
17685TIP3    H274471   3.974   2.676  15.837  0.2654 -0.8837 -0.0381
17686TIP3   OH274472   5.362   5.824   0.978  0.0987  0.1882  0.3974
17686TIP3    H174473   5.433   5.887   0.971 -0.5028  0.8141 -0.1768
17686TIP3    H274474   5.287   5.867   0.937  0.1581 -1.6261 -1.8024
17687TIP3   OH274475   6.041   5.534  13.847  0.2474 -0.6797  0.0885
17687TIP3    H174476   5.980   5.558  13.778 -1.6630 -1.8073  1.3125
17687TIP3    H274477   6.099   5.469  13.808 -0.8577 -1.3609 -0.4320
17688TIP3   OH274478   2.104   2.800   0.631  0.1213 -0.1213 -0.3950
17688TIP3    H174479   2.096   2.730   0.696 -0.9038  0.8919  0.6336
17688TIP3    H274480   2.199   2.812   0.621  0.3039 -0.5752  0.6263
17689TIP3   OH274481   6.709   6.725   3.396  0.2378 -0.4138 -0.3346
17689TIP3    H174482   6.635   6.755   3.343 -0.5188  0.1685  1.0040
17689TIP3    H274483   6.684   6.746   3.486  1.6152 -1.1094  0.2360
17690TIP3   OH274484   5.028   1.605  15.804 -0.0514 -0.0059  0.3734
17690TIP3    H174485   5.051   1.514  15.788 -1.2659 -0.0026 -1.7456
17690TIP3    H274486   4.977   1.604  15.885 -1.3646 -1.4584 -0.4299
17691TIP3   OH274487   3.644   3.160   0.702 -0.3306  0.0567 -0.0068
17691TIP3    H174488   3.594   3.238   0.677  1.9323  1.6083  0.0078
17691TIP3    H274489   3.649   3.108   0.621 -1.6792 -0.0071 -0.0712
17692TIP3   OH274490   3.043   5.565   1.977 -0.0321  0.6371  0.7174
17692TIP3    H174491   3.063   5.484   1.930  0.4531  0.8718  0.5087
17692TIP3    H274492   2.970   5.543   2.035 -2.8268  1.0682 -2.3223
17693TIP3   OH274493   4.495   4.408  13.752 -0.2022  0.3963  0.1549
17693TIP3    H174494   4.571   4.457  13.784  1.8812 -1.0082 -2.2776
17693TIP3    H274495   4.467   4.456  13.674  1.2895 -1.5696 -1.7187
17694TIP3   OH274496   1.288   4.356   4.679 -0.1887 -0.3330  0.0958
17694TIP3    H174497   1.372   4.336   4.721  0.5695  1.0645 -0.7103
17694TIP3    H274498   1.234   4.279   4.698  0.4507 -0.2582  2.7010
17695TIP3   OH274499   4.943   0.280  12.422  0.4063  0.4734  0.1040
17695TIP3    H174500   4.947   0.192  12.460  1.1005  1.0364  1.3752
17695TIP3    H274501   5.029   0.294  12.383  0.5277  0.8510  0.5064
17696TIP3   OH274502   3.179   0.965   2.065 -0.0251 -0.6149  0.1378
17696TIP3    H174503   3.160   1.003   2.151 -0.7294  1.3983 -0.8510
17696TIP3    H274504   3.097   0.923   2.038 -0.1296 -0.3155 -0.0095
17697TIP3   OH274505   4.101   3.236   0.136 -0.0641  0.2080  0.5038
17697TIP3    H174506   4.100   3.225   0.231 -0.1905 -1.0439  0.3741
17697TIP3    H274507   4.159   3.167   0.104  0.3529  0.9081 -0.3034
17698TIP3   OH274508   6.181   6.295  14.161  0.0572 -0.4422 -0.2296
17698TIP3    H174509   6.185   6.231  14.090  0.1569  0.1222 -0.7419
17698TIP3    H274510   6.242   6.263  14.227  1.1281 -0.1722 -1.0755
17699TIP3   OH274511   1.672   0.308   4.050  0.8562  0.2837 -0.2524
17699TIP3    H174512   1.612   0.373   4.085  0.0775 -0.1472 -0.7671
17699TIP3    H274513   1.687   0.334   3.959 -1.6989 -1.7421 -1.3877
17700TIP3   OH274514   5.047   5.981  17.066 -0.7405  0.6045 -0.2009
17700TIP3    H174515   5.096   5.944  16.993  0.5859  0.5574  0.6800
17700TIP3    H274516   4.956   5.981  17.037 -0.0675  2.1678 -2.5224
17701TIP3   OH274517   0.451   5.680  14.005  0.3871 -0.0747  0.0219
17701TIP3    H174518   0.418   5.730  14.080 -1.2484 -1.5455  0.3445
17701TIP3    H274519   0.495   5.604  14.044  2.5666  0.8604 -0.4682
17702TIP3   OH274520   1.904   5.126  12.477 -0.1500 -0.2472 -0.0141
17702TIP3    H174521   1.903   5.212  12.520 -0.5146  0.0716 -0.6514
17702TIP3    H274522   1.925   5.145  12.386 -0.6173 -0.7997 -0.2408
17703TIP3   OH274523   5.803   1.747   5.341  0.3445  0.4205  0.2230
17703TIP3    H174524   5.831   1.832   5.307 -0.7455  0.4881 -0.5861
17703TIP3    H274525   5.772   1.766   5.429  0.9494  0.6976  0.3788
17704TIP3   OH274526   0.850   4.953   6.512 -0.0041 -0.1613 -0.0370
17704TIP3    H174527   0.800   5.026   6.475  1.0713 -0.0239 -1.2944
17704TIP3    H274528   0.881   4.986   6.596  0.8170  1.0032 -0.7746
17705TIP3   OH274529   1.491   6.677   4.122  0.6116 -0.3879 -0.2217
17705TIP3    H174530   1.412   6.628   4.098  0.4870  0.3690 -1.4584
17705TIP3    H274531   1.479   6.698   4.215 -0.3737 -0.7683 -0.2479
17706TIP3   OH274532   0.575   2.670  13.962  0.4502  0.0638  0.3359
17706TIP3    H174533   0.550   2.751  14.007  0.9339  2.0278 -2.6101
17706TIP3    H274534   0.496   2.644  13.914 -0.2218 -2.2759  2.5196
17707TIP3   OH274535   3.510   2.430  14.659 -0.4417  0.6034  0.1172
17707TIP3    H174536   3.562   2.510  14.654 -0.6289  0.8353  1.4922
17707TIP3    H274537   3.419   2.460  14.659 -0.6125  0.2167 -1.9458
17708TIP3   OH274538   6.713   6.285  17.310 -0.7491  0.0795  0.3184
17708TIP3    H174539   6.747   6.374  17.306  1.1184 -0.4904  1.6831
17708TIP3    H274540   6.733   6.248  17.224 -0.3595  0.6015  0.1736
17709TIP3   OH274541   3.653   6.703  10.460  0.1849  0.2113 -0.1960
17709TIP3    H174542   3.704   6.629  10.493 -0.7332  0.0834  1.0083
17709TIP3    H274543   3.577   6.663  10.417 -1.7250  0.3860  2.7595
17710TIP3   OH274544   2.687   1.733  15.002  0.1798 -0.5967 -0.0996
17710TIP3    H174545   2.629   1.743  14.926  0.0435  0.1487  0.0941
17710TIP3    H274546   2.771   1.707  14.965 -0.2688 -1.7031 -0.3857
17711TIP3   OH274547   2.402   5.972   5.401 -0.3539  0.1500  0.3694
17711TIP3    H174548   2.403   6.062   5.367 -0.6271 -0.2044 -0.5993
17711TIP3    H274549   2.494   5.946   5.400 -0.2513  0.4809  0.8315
17712TIP3   OH274550   2.299   1.780  16.571  0.0097  0.2637 -0.0939
17712TIP3    H174551   2.375   1.778  16.629  0.1654 -0.1897 -0.3138
17712TIP3    H274552   2.328   1.832  16.495  0.0937  0.1033 -0.1716
17713TIP3   OH274553   5.221   3.663   4.986  0.4626 -0.2957 -0.6074
17713TIP3    H174554   5.165   3.679   5.062  1.0151  2.0288 -0.5914
17713TIP3    H274555   5.207   3.740   4.930  2.1700 -0.5824 -1.5046
17714TIP3   OH274556   4.872   1.008  16.189  0.4962  0.7845 -0.2072
17714TIP3    H174557   4.864   1.052  16.105  2.3712  0.4841 -0.5791
17714TIP3    H274558   4.841   0.919  16.173 -0.9308  1.2329 -0.0768
17715TIP3   OH274559   3.466   6.655  16.044 -0.0991 -0.6255 -0.4878
17715TIP3    H174560   3.529   6.623  16.108  0.6026  0.0929 -0.8012
17715TIP3    H274561   3.465   6.587  15.977  0.9250 -0.3118 -0.8511
17716TIP3   OH274562   5.336   2.261   5.294  0.3274  0.0616 -0.4848
17716TIP3    H174563   5.317   2.178   5.336 -0.7357  0.7567  0.4600
17716TIP3    H274564   5.251   2.299   5.274  0.7865  0.9458 -0.8462
17717TIP3   OH274565   4.063   2.277  12.087 -0.5346 -0.4004 -0.6024
17717TIP3    H174566   4.102   2.232  12.162  0.6678 -1.3004 -1.7158
17717TIP3    H274567   4.101   2.365  12.090  0.3901 -0.7795 -0.7637
17718TIP3   OH274568   4.255   2.091   2.700  0.3398 -0.1911 -0.4358
17718TIP3    H174569   4.241   2.183   2.724  1.1394 -0.6946  2.3533
17718TIP3    H274570   4.259   2.091   2.605  0.0538  2.6167 -0.5256
17719TIP3   OH274571   6.338   1.351  13.126  0.0392 -0.0870  0.3622
17719TIP3    H174572   6.335   1.261  13.094 -0.0099  0.1564 -0.3446
17719TIP3    H274573   6.421   1.357  13.173  1.2044  0.1336 -1.6141
17720TIP3   OH274574   1.123   1.625   5.417 -0.2299  0.2007 -0.5990
17720TIP3    H174575   1.147   1.677   5.494  0.7907 -0.1955 -0.6405
17720TIP3    H274576   1.092   1.690   5.354 -0.7530  0.5638  0.0212
17721TIP3   OH274577   4.419   0.015  12.191  0.2259  0.1474 -0.1141
17721TIP3    H174578   4.329   0.046  12.195 -0.1105 -0.7552 -0.4137
17721TIP3    H274579   4.441   0.020  12.098 -0.2544 -1.6186 -0.3551
17722TIP3   OH274580   0.789   5.817   3.879 -0.6343  0.3975  0.5998
17722TIP3    H174581   0.806   5.905   3.916 -0.1763  0.3233  0.5796
17722TIP3    H274582   0.710   5.828   3.827 -0.4769  0.8468  0.4468
17723TIP3   OH274583   4.113   1.823  12.933 -0.0550  0.0439  0.5944
17723TIP3    H174584   4.103   1.898  12.992 -0.9268  0.8993 -0.5873
17723TIP3    H274585   4.032   1.773  12.943 -1.2733  1.4574 -1.5229
17724TIP3   OH274586   2.179   3.470   2.467 -0.0291 -0.0559 -0.4420
17724TIP3    H174587   2.206   3.428   2.549  1.0131  0.5018 -0.4846
17724TIP3    H274588   2.124   3.404   2.424 -0.9344 -0.2070  0.8704
17725TIP3   OH274589   0.533   4.054  13.518  0.3292  0.0537 -0.3733
17725TIP3    H174590   0.473   4.128  13.529  1.4153  0.8523  0.4185
17725TIP3    H274591   0.578   4.047  13.602  2.5534  0.5892 -1.4490
17726TIP3   OH274592   5.121   2.465   4.630  0.2624 -0.4403  0.1305
17726TIP3    H174593   5.073   2.445   4.710 -0.7744 -0.1010 -0.3758
17726TIP3    H274594   5.190   2.525   4.657 -1.7154  1.8608  0.4361
17727TIP3   OH274595   4.891   2.370  11.767 -0.7463 -0.3097  0.2058
17727TIP3    H174596   4.797   2.386  11.769 -0.8368 -0.8432  0.4859
17727TIP3    H274597   4.916   2.378  11.675 -1.4179 -2.1155 -0.1674
17728TIP3   OH274598   3.067   6.440  15.280 -0.0764 -1.2012  0.0805
17728TIP3    H174599   3.090   6.416  15.191  0.0055 -2.6356  0.4572
17728TIP3    H274600   3.022   6.524  15.272  1.8651 -0.2047 -1.0689
17729TIP3   OH274601   1.170   6.387   2.508  0.0108 -0.3126 -0.0153
17729TIP3    H174602   1.217   6.403   2.589 -1.8451  0.3491  1.0043
17729TIP3    H274603   1.207   6.306   2.473  0.3339 -1.0469  1.9040
17730TIP3   OH274604   1.276   0.983  11.041  0.4340  0.6701 -0.0891
17730TIP3    H174605   1.349   0.986  10.980  0.8528 -0.1534  0.3575
17730TIP3    H274606   1.224   1.061  11.020  0.4017  0.2546 -1.7015
17731TIP3   OH274607   2.892   0.382   0.168 -0.2273 -0.7315 -0.5623
17731TIP3    H174608   2.937   0.375   0.084  0.6454 -3.1738  0.0220
17731TIP3    H274609   2.807   0.340   0.153 -0.9073  0.6259 -0.6993
17732TIP3   OH274610   2.730   2.171  10.836  0.4937 -0.2478  0.0506
17732TIP3    H174611   2.817   2.210  10.850  0.0431  1.2347 -1.0577
17732TIP3    H274612   2.714   2.183  10.743 -0.0866 -2.3104 -0.1437
17733TIP3   OH274613   6.665   1.603   3.944  0.0908 -0.9034  0.1681
17733TIP3    H174614   6.739   1.661   3.926 -1.3109  0.9579  0.0952
17733TIP3    H274615   6.698   1.542   4.011  1.8148 -0.4824 -0.2322
17734TIP3   OH274616   5.419   2.498   1.971  0.4115  0.2271  0.3575
17734TIP3    H174617   5.457   2.426   2.021 -2.2599 -1.3417  0.3594
17734TIP3    H274618   5.436   2.475   1.880 -0.6757 -0.6307  0.3442
17735TIP3   OH274619   5.396   5.341   3.424 -0.0717  0.0186  0.1416
17735TIP3    H174620   5.470   5.309   3.373  0.1883 -0.3011  0.7223
17735TIP3    H274621   5.417   5.321   3.515  0.2787  2.1278  0.5941
17736TIP3   OH274622   1.431   3.172   5.224 -0.7945 -0.5674 -0.2881
17736TIP3    H174623   1.479   3.172   5.141  0.1253  0.5676  0.2182
17736TIP3    H274624   1.433   3.081   5.252  1.8711 -0.4583  0.1363
17737TIP3   OH274625   6.384   5.537   2.578 -0.2778  0.7384  0.1252
17737TIP3    H174626   6.423   5.546   2.491  0.2355 -2.4358 -0.0999
17737TIP3    H274627   6.407   5.618   2.623  2.6010  0.9772 -1.5077
17738TIP3   OH274628   4.057   6.203  17.002  0.2499  0.2048  0.1580
17738TIP3    H174629   3.971   6.184  17.040  0.5037 -0.5377  0.3877
17738TIP3    H274630   4.066   6.298  17.008 -1.0516  0.4254 -0.9486
17739TIP3   OH274631   5.495   0.864   5.977 -0.0428 -0.1831 -0.2793
17739TIP3    H174632   5.428   0.887   6.040  1.9986 -1.0937  2.4024
17739TIP3    H274633   5.556   0.938   5.977  0.8952 -0.9219  0.2141
17740TIP3   OH274634   6.446   3.760   3.309  0.2350 -0.0672  0.5103
17740TIP3    H174635   6.509   3.733   3.242 -1.1599 -0.8097 -0.5320
17740TIP3    H274636   6.495   3.754   3.391  1.2915 -1.4084 -0.1807
17741TIP3   OH274637   0.165   3.187  16.969  0.3732  0.3326 -0.0337
17741TIP3    H174638   0.189   3.200  17.061  0.3012  0.1255  0.0138
17741TIP3    H274639   0.233   3.130  16.934  0.9997  1.2628 -0.3913
17742TIP3   OH274640   1.152   4.291   4.945 -0.2326 -0.0138  0.8348
17742TIP3    H174641   1.196   4.207   4.962 -0.9091 -1.1186 -2.1787
17742TIP3    H274642   1.060   4.274   4.961 -0.3549  0.1781  0.3660
17743TIP3   OH274643   5.852   0.916   5.923  0.0990  0.4114 -0.5162
17743TIP3    H174644   5.793   0.841   5.913 -0.8077  1.1194 -0.5999
17743TIP3    H274645   5.795   0.988   5.950  0.8941  1.1613 -0.7901
17744TIP3   OH274646   0.846   3.227  16.154  0.0416  0.2949  1.0988
17744TIP3    H174647   0.931   3.183  16.155 -1.1803 -2.2553  0.7434
17744TIP3    H274648   0.846   3.275  16.071 -0.1499 -2.6240 -0.7531
17745TIP3   OH274649   5.357   6.172   2.366  0.2655 -0.3996  0.0682
17745TIP3    H174650   5.415   6.186   2.441  2.0076 -1.6259 -0.9586
17745TIP3    H274651   5.339   6.078   2.368 -2.6883  0.0762  0.9691
17746TIP3   OH274652   3.607   2.524  14.058  0.4575  0.5962 -0.9096
17746TIP3    H174653   3.670   2.502  14.127  0.0886  1.5288 -0.2592
17746TIP3    H274654   3.527   2.548  14.104 -1.0802 -2.4057 -1.7547
17747TIP3   OH274655   1.324   5.918  14.910  0.2744  0.0980  0.0580
17747TIP3    H174656   1.231   5.910  14.888  0.0558  2.3032 -0.1058
17747TIP3    H274657   1.364   5.839  14.876 -1.7050 -1.4962  1.1687
17748TIP3   OH274658   0.942   1.110  11.103  0.2095  0.2322  0.2182
17748TIP3    H174659   0.855   1.088  11.071  0.9229 -2.8662  0.0839
17748TIP3    H274660   0.994   1.128  11.025  0.3600 -0.8748  0.0410
17749TIP3   OH274661   0.292   1.359  17.061 -0.4641 -0.4098  0.0514
17749TIP3    H174662   0.241   1.432  17.024 -1.6081 -0.7043  1.0178
17749TIP3    H274663   0.252   1.281  17.024  1.9282 -0.6283 -2.5194
17750TIP3   OH274664   5.558   3.712  10.791  0.4324 -0.4669  0.2816
17750TIP3    H174665   5.640   3.756  10.814  0.9699 -0.9784 -0.5912
17750TIP3    H274666   5.510   3.777  10.739  1.0971 -0.7729 -0.7574
17751TIP3   OH274667   6.228   2.789   2.554  0.5908  0.4341 -0.0292
17751TIP3    H174668   6.184   2.871   2.576  0.3771  0.0438  1.0253
17751TIP3    H274669   6.290   2.814   2.485  2.2099  1.9642  1.8635
17752TIP3   OH274670   0.444   4.937   3.936 -0.3300  0.2159 -0.0208
17752TIP3    H174671   0.386   4.915   4.010 -2.3616  1.0514 -1.2820
17752TIP3    H274672   0.413   4.880   3.865  1.1009 -0.0323 -0.4706
17753TIP3   OH274673   4.591   0.321   4.915 -0.5244  0.4681 -0.0852
17753TIP3    H174674   4.630   0.401   4.950 -2.1812 -0.1947  3.7887
17753TIP3    H274675   4.657   0.254   4.930 -1.2575  0.1673  2.2190
17754TIP3   OH274676   6.294   6.297  11.461  0.3298  0.1474 -0.2163
17754TIP3    H174677   6.350   6.219  11.457  0.6472  0.3933 -1.0108
17754TIP3    H274678   6.327   6.353  11.390 -2.3929 -0.6775 -2.2962
17755TIP3   OH274679   1.768   4.328  11.154 -0.1773  0.9438 -0.2976
17755TIP3    H174680   1.693   4.351  11.208  1.0549  1.8672  1.1000
17755TIP3    H274681   1.739   4.252  11.103 -1.5257  0.2845  1.3713
17756TIP3   OH274682   0.568   0.381  15.679  0.2632  0.2123 -0.5476
17756TIP3    H174683   0.484   0.386  15.725 -0.7282  1.3491 -2.3563
17756TIP3    H274684   0.560   0.304  15.623  0.1856  0.6634 -1.1593
17757TIP3   OH274685   3.249   1.979   5.848  0.2798  0.7964  0.4221
17757TIP3    H174686   3.267   2.073   5.839  0.3579  0.6939 -0.7153
17757TIP3    H274687   3.318   1.936   5.798 -0.4928  0.2035 -0.1802
17758TIP3   OH274688   2.525   1.661  15.960 -0.2059  0.0184  0.2887
17758TIP3    H174689   2.441   1.671  16.005  0.7825  2.2898  1.8276
17758TIP3    H274690   2.584   1.629  16.027  0.5158  0.0253 -0.3343
17759TIP3   OH274691   1.580   5.512   4.476 -0.3438 -0.2816  0.2654
17759TIP3    H174692   1.498   5.534   4.520 -0.0474  1.8892 -0.1094
17759TIP3    H274693   1.644   5.574   4.513  0.5442 -0.2750 -1.1855
17760TIP3   OH274694   1.646   1.858  10.999 -0.1123 -0.3052  0.9373
17760TIP3    H174695   1.661   1.879  10.906  0.4329 -2.6019  0.4468
17760TIP3    H274696   1.734   1.844  11.034 -0.3508  0.0423  1.6842
17761TIP3   OH274697   3.686   2.873   2.082  0.2693 -0.0132 -0.0000
17761TIP3    H174698   3.720   2.934   2.016  2.3439 -0.6450  0.4153
17761TIP3    H274699   3.709   2.786   2.049  0.7154 -0.3698  1.1902
17762TIP3   OH274700   1.297   1.019   4.489  0.0357 -0.2094  0.2888
17762TIP3    H174701   1.316   0.976   4.405 -0.6623 -1.0997  0.5795
17762TIP3    H274702   1.383   1.047   4.521  0.2346  1.0372 -1.1826
17763TIP3   OH274703   4.326   4.930   0.543 -0.3062  1.1280  0.1712
17763TIP3    H174704   4.231   4.928   0.556 -0.2778 -1.2533  0.3619
17763TIP3    H274705   4.358   4.987   0.613 -1.5650  2.0270  0.0678
17764TIP3   OH274706   0.194   5.370  13.349 -0.6575  0.1889 -0.2775
17764TIP3    H174707   0.264   5.361  13.413  0.2836 -1.3134 -1.4325
17764TIP3    H274708   0.115   5.388  13.401  0.3627  0.6836  1.1376
17765TIP3   OH274709   6.179   2.315  12.250  0.5173 -0.7346  0.5715
17765TIP3    H174710   6.256   2.306  12.194  2.0842  2.5834  1.9400
17765TIP3    H274711   6.148   2.404  12.234 -2.3957 -1.5694  0.9806
17766TIP3   OH274712   1.876   2.415   1.869  0.1089 -0.4340  0.1148
17766TIP3    H174713   1.909   2.505   1.863 -0.0134 -0.3297  0.8430
17766TIP3    H274714   1.951   2.365   1.902 -1.0218  0.2389  4.2139
17767TIP3   OH274715   3.070   4.153  13.542  0.0955  0.3834  0.0802
17767TIP3    H174716   3.026   4.114  13.466  1.1931 -1.1804  0.2111
17767TIP3    H274717   3.034   4.242  13.546 -1.7393 -0.2461 -0.8469
17768TIP3   OH274718   2.620   4.856   4.816 -0.4587 -0.2347  0.0961
17768TIP3    H174719   2.641   4.767   4.846  1.9651 -0.0227 -0.7413
17768TIP3    H274720   2.563   4.843   4.741  1.2534 -1.2285 -1.1049
17769TIP3   OH274721   5.028   4.780  14.014 -0.0692  0.0630  0.8309
17769TIP3    H174722   4.998   4.743  14.098  1.9763 -1.7124  0.8527
17769TIP3    H274723   5.022   4.707  13.952  0.0819  0.8785 -0.1639
17770TIP3   OH274724   1.234   1.492   1.261  0.0315 -0.1680 -0.2707
17770TIP3    H174725   1.157   1.546   1.243 -0.4632 -0.9983 -0.6871
17770TIP3    H274726   1.233   1.481   1.356  0.6086  1.2245 -0.0784
17771TIP3   OH274727   4.562   6.018  11.437 -0.0739  0.4696  0.4552
17771TIP3    H174728   4.493   5.959  11.467 -0.1324  0.1248 -0.3351
17771TIP3    H274729   4.566   6.005  11.343  0.0160  1.6360  0.2874
17772TIP3   OH274730   5.263   2.661  13.171 -0.8365 -0.6178  0.0906
17772TIP3    H174731   5.169   2.674  13.157 -0.7056 -0.2167 -0.4779
17772TIP3    H274732   5.293   2.621  13.089 -0.0677  1.6208 -0.7833
17773TIP3   OH274733   2.146   1.424  15.599 -0.3004 -0.4220  0.7503
17773TIP3    H174734   2.105   1.478  15.531 -0.4873  1.3899  2.2427
17773TIP3    H274735   2.239   1.427  15.578 -0.2856  0.6559  0.9028
17774TIP3   OH274736   6.640   5.767  12.627 -0.4112 -0.0944  0.2231
17774TIP3    H174737   6.621   5.815  12.546 -0.7192 -1.5357 -0.5867
17774TIP3    H274738   6.699   5.825  12.676  0.9302  0.2334 -1.6645
17775TIP3   OH274739   6.503   2.572  15.308 -0.3465  0.1588 -0.4142
17775TIP3    H174740   6.436   2.536  15.366 -0.2948 -2.5173 -1.8970
17775TIP3    H274741   6.455   2.631  15.249 -1.0672 -0.2727 -0.2595
17776TIP3   OH274742   6.255   2.029  10.733 -0.1090 -0.2274  0.1974
17776TIP3    H174743   6.281   1.937  10.733  0.4276 -0.0807  0.3026
17776TIP3    H274744   6.334   2.076  10.761 -0.4577  0.2410  0.4096
17777TIP3   OH274745   6.460   2.409  11.583  0.0290 -0.0200 -0.2577
17777TIP3    H174746   6.403   2.477  11.546 -1.8428 -1.2909  0.2221
17777TIP3    H274747   6.483   2.442  11.670 -1.9743 -0.5668  0.5180
17778TIP3   OH274748   1.190   1.056   3.255 -0.3387 -0.0509  0.7318
17778TIP3    H174749   1.263   1.065   3.316 -0.0896  1.7206  0.2194
17778TIP3    H274750   1.202   1.127   3.192 -1.5614 -0.7684 -0.3657
17779TIP3   OH274751   1.109   2.838  16.691 -0.3285  0.0586  0.0436
17779TIP3    H174752   1.147   2.887  16.764  2.2128  0.6336 -1.5580
17779TIP3    H274753   1.069   2.905  16.635  1.8302  0.2359 -1.3847
17780TIP3   OH274754   3.489   2.890  12.864 -0.1140 -0.2076  1.1386
17780TIP3    H174755   3.506   2.804  12.826 -1.2047  0.8130 -1.9348
17780TIP3    H274756   3.395   2.905  12.849  0.4264  2.2760 -0.2334
17781TIP3   OH274757   2.608   4.191   3.900 -0.7857 -0.0667  0.0485
17781TIP3    H174758   2.576   4.263   3.955  1.9289  0.7745  0.6653
17781TIP3    H274759   2.655   4.234   3.830  3.1465 -1.0756  1.8054
17782TIP3   OH274760   3.628   4.551   2.058 -0.7054 -0.0431 -0.2648
17782TIP3    H174761   3.595   4.598   2.135  0.1156  3.0684 -1.6436
17782TIP3    H274762   3.549   4.523   2.011 -1.2863  1.1093 -0.0156
17783TIP3   OH274763   3.028   3.543  10.977 -0.3152  0.2772  0.4720
17783TIP3    H174764   2.945   3.560  11.022 -0.8819  0.1964 -0.5077
17783TIP3    H274765   3.039   3.617  10.917 -0.7532 -0.7207 -0.9108
17784TIP3   OH274766   2.633   3.594   0.474  0.0754  0.1833 -0.7101
17784TIP3    H174767   2.592   3.605   0.388  0.1866 -0.9755 -0.9218
17784TIP3    H274768   2.674   3.508   0.470  1.7956  0.9375 -0.2021
17785TIP3   OH274769   6.529   0.987   5.548 -0.0258  0.1107  0.3420
17785TIP3    H174770   6.510   0.924   5.479 -0.6946  0.3675  0.2856
17785TIP3    H274771   6.445   1.000   5.592 -0.0282  1.4080 -0.0235
17786TIP3   OH274772   3.764   0.222  16.489 -0.3741 -0.1106 -0.1074
17786TIP3    H174773   3.818   0.277  16.546 -0.8754  1.7730 -1.3303
17786TIP3    H274774   3.824   0.159  16.451  0.4333  0.2205  0.6026
17787TIP3   OH274775   1.035   5.697   1.781  0.2610  0.2592  0.4455
17787TIP3    H174776   1.080   5.648   1.712  1.3271  1.6182  0.1175
17787TIP3    H274777   1.018   5.632   1.850 -2.4953 -1.5705 -1.7550
17788TIP3   OH274778   4.640   3.835   5.246  0.0838  0.4181  0.0373
17788TIP3    H174779   4.661   3.798   5.160 -0.7176  0.1094 -0.0365
17788TIP3    H274780   4.615   3.759   5.299 -0.5650  0.7417  0.1952
17789TIP3   OH274781   6.482   1.433   5.292  0.3814 -0.0933  0.5014
17789TIP3    H174782   6.503   1.343   5.270 -1.9149 -1.0136  1.6654
17789TIP3    H274783   6.520   1.486   5.222  4.0705 -1.6590  1.1378
17790TIP3   OH274784   3.191   4.656   4.231 -0.1146 -0.3821  0.5601
17790TIP3    H174785   3.117   4.659   4.291 -0.3351 -1.5326  0.3703
17790TIP3    H274786   3.152   4.646   4.145  0.1748  1.9284  0.1060
17791TIP3   OH274787   0.301   0.447  15.754  0.0498  0.5881  0.2366
17791TIP3    H174788   0.291   0.452  15.849 -2.0282  0.0160  0.0802
17791TIP3    H274789   0.219   0.410  15.723  0.0109  2.3479 -1.9526
17792TIP3   OH274790   5.329   1.182   2.594  0.4023 -0.6303 -0.1110
17792TIP3    H174791   5.357   1.232   2.671 -0.3597  1.1153 -0.8953
17792TIP3    H274792   5.250   1.227   2.565 -0.1538 -2.1716 -1.0505
17793TIP3   OH274793   6.101   5.086  13.826 -0.6396  0.3991 -0.0448
17793TIP3    H174794   6.048   5.086  13.906 -0.1036  2.1935  0.3681
17793TIP3    H274795   6.179   5.136  13.850  0.8974 -1.5107 -0.8764
17794TIP3   OH274796   0.096   0.821  12.674 -0.1752 -0.5547  0.2835
17794TIP3    H174797   0.143   0.905  12.673 -1.9689  0.5170  0.4827
17794TIP3    H274798   0.124   0.780  12.756 -0.8131  0.8387  1.2565
17795TIP3   OH274799   3.118   1.845  16.737  0.3979  0.1144  0.4332
17795TIP3    H174800   3.160   1.790  16.671  1.6534  0.6568  0.7405
17795TIP3    H274801   3.137   1.802  16.820 -2.6284 -1.5007  0.3993
17796TIP3   OH274802   0.800   2.428  16.741  0.2891  0.0480  0.0679
17796TIP3    H174803   0.843   2.509  16.715  1.3226  0.3538  2.4650
17796TIP3    H274804   0.844   2.403  16.822 -1.5416 -1.6973  0.5950
17797TIP3   OH274805   5.997   4.614   1.819 -0.2377 -0.3618  0.5160
17797TIP3    H174806   6.018   4.705   1.800 -0.1573 -0.5644 -0.4479
17797TIP3    H274807   6.051   4.564   1.758  0.9559 -1.1415  2.1395
17798TIP3   OH274808   5.513   4.787  11.099  0.1980  0.4875  0.0018
17798TIP3    H174809   5.454   4.797  11.025 -0.3760  0.1253  0.3998
17798TIP3    H274810   5.479   4.711  11.146 -0.2452  1.4815  1.3618
17799TIP3   OH274811   3.892   2.725   0.143  0.2879 -0.1996  0.3009
17799TIP3    H174812   3.844   2.766   0.071  0.3234 -0.5422  0.0823
17799TIP3    H274813   3.955   2.792   0.172  1.0273 -0.4419 -0.7058
17800TIP3   OH274814   5.736   6.648  16.757  0.2438 -0.3424  0.0061
17800TIP3    H174815   5.734   6.739  16.789 -0.6618  0.1362 -1.3086
17800TIP3    H274816   5.820   6.640  16.713 -0.7390  0.7898 -2.2595
17801TIP3   OH274817   2.118   5.872   6.398 -0.0153  0.0155  0.0432
17801TIP3    H174818   2.027   5.844   6.383 -0.2652  0.9141 -0.2207
17801TIP3    H274819   2.171   5.796   6.377 -0.5728  0.1619 -2.1062
17802TIP3   OH274820   0.248   1.725  12.476 -0.1982  0.4881  0.0241
17802TIP3    H174821   0.155   1.740  12.463 -0.2456 -0.4465 -0.8080
17802TIP3    H274822   0.290   1.770  12.403 -0.1583 -0.9175 -0.8488
17803TIP3   OH274823   3.720   5.353   1.336 -0.4480 -0.3186 -0.4193
17803TIP3    H174824   3.768   5.271   1.333  1.4610  0.7409 -0.9842
17803TIP3    H274825   3.634   5.330   1.371  0.1675 -2.4591 -0.1758
17804TIP3   OH274826   2.528   0.071  16.613  0.2851 -0.1903 -0.1196
17804TIP3    H174827   2.608   0.045  16.566 -0.8429 -0.8345 -1.7647
17804TIP3    H274828   2.473  -0.008  16.611 -0.6413  0.4332  0.4216
17805TIP3   OH274829   3.628   1.080  11.330  0.4140 -0.4363  0.0651
17805TIP3    H174830   3.547   1.074  11.279  1.0960 -0.1501 -1.0749
17805TIP3    H274831   3.607   1.037  11.413 -0.1406 -2.7132 -1.1840
17806TIP3   OH274832   5.754   3.474  14.794 -0.2785  0.2888  0.1728
17806TIP3    H174833   5.685   3.444  14.852 -0.1932  1.6361  1.0095
17806TIP3    H274834   5.728   3.563  14.769  0.6485  0.4414 -0.3094
17807TIP3   OH274835   3.103   6.413  13.612  0.5342 -0.2336 -0.0365
17807TIP3    H174836   3.008   6.411  13.612  0.3287  2.3551  2.3923
17807TIP3    H274837   3.126   6.480  13.548  0.5570  0.5190  0.7343
17808TIP3   OH274838   3.576   6.293   5.740 -0.0327  0.7053 -0.0797
17808TIP3    H174839   3.489   6.316   5.709  0.0073  1.0959  0.0869
17808TIP3    H274840   3.566   6.280   5.834 -0.2812 -1.1065 -0.3331
17809TIP3   OH274841   4.697   6.032   4.531 -0.3121 -0.3742  0.0716
17809TIP3    H174842   4.671   6.060   4.619 -2.3109 -1.4047 -0.1213
17809TIP3    H274843   4.633   6.073   4.473 -0.0765 -1.0866 -0.7115
17810TIP3   OH274844   1.867   5.780   5.387  0.2005  0.3233 -0.0043
17810TIP3    H174845   1.906   5.719   5.325  0.8385 -0.0745  0.7771
17810TIP3    H274846   1.884   5.742   5.473 -0.5668  0.9246  0.4322
17811TIP3   OH274847   3.147   4.671  16.451 -0.0847  0.0116 -0.3908
17811TIP3    H174848   3.228   4.676  16.503  0.3953 -0.4095 -1.0811
17811TIP3    H274849   3.079   4.652  16.515  0.6936 -1.8974 -0.0414
17812TIP3   OH274850   0.646   5.736   5.263  0.2886 -0.2895  0.3093
17812TIP3    H174851   0.625   5.643   5.253  0.8327 -0.5060  1.0727
17812TIP3    H274852   0.713   5.753   5.197 -0.3308 -0.2517 -0.3234
17813TIP3   OH274853   2.073   1.761  13.402 -0.2381  0.4296 -0.0320
17813TIP3    H174854   1.997   1.808  13.367 -0.7766 -0.1228  0.3756
17813TIP3    H274855   2.104   1.816  13.474 -1.1399 -0.0502  0.7330
17814TIP3   OH274856   0.319   3.742  12.194 -0.4943 -0.0759 -0.0651
17814TIP3    H174857   0.346   3.797  12.121 -1.5041 -0.7999 -1.0120
17814TIP3    H274858   0.225   3.755  12.201 -0.5877 -0.8847  0.3661
17815TIP3   OH274859   2.420   1.216  16.488  0.4057  0.2595  0.1312
17815TIP3    H174860   2.493   1.237  16.546  0.4710  1.6778 -0.4354
17815TIP3    H274861   2.342   1.225  16.543  0.5175  0.8544  0.1968
17816TIP3   OH274862   0.162   1.426   2.647  0.5138  0.1821  0.0742
17816TIP3    H174863   0.208   1.499   2.606 -1.0049  0.6203 -0.9306
17816TIP3    H274864   0.143   1.367   2.575  0.2057 -0.3777  0.6056
17817TIP3   OH274865   4.535   0.667  13.657 -0.2679 -0.3280 -0.3278
17817TIP3    H174866   4.589   0.743  13.634  0.4275 -0.7271 -0.0620
17817TIP3    H274867   4.550   0.605  13.585 -0.2354 -0.5064 -0.1672
17818TIP3   OH274868   1.797   3.909   0.971  0.1438 -0.6860 -0.7816
17818TIP3    H174869   1.757   3.982   1.017 -0.3009 -0.5857 -1.3076
17818TIP3    H274870   1.728   3.878   0.912  0.4726 -1.2475 -0.8746
17819TIP3   OH274871   2.376   2.819   1.424  0.0337 -0.6640 -0.1101
17819TIP3    H174872   2.287   2.848   1.404  0.5946  1.5670  0.2647
17819TIP3    H274873   2.416   2.805   1.338  0.0475  0.8914 -0.3913
17820TIP3   OH274874   5.158   3.826  16.798  0.4390  0.4168 -0.7969
17820TIP3    H174875   5.076   3.873  16.812  0.7176  0.4767  0.7910
17820TIP3    H274876   5.225   3.893  16.796  0.4755  0.3847 -2.2821
17821TIP3   OH274877   3.232   0.730   0.028  0.1403  0.1951  0.1905
17821TIP3    H174878   3.178   0.704   0.103  1.1675 -2.0026  0.2585
17821TIP3    H274879   3.172   0.777  -0.030 -1.3401 -0.3895  1.1774
17822TIP3   OH274880   2.037   1.481   1.023 -0.4307 -0.0828  0.0167
17822TIP3    H174881   2.103   1.430   1.069 -0.7187 -0.9851 -0.5368
17822TIP3    H274882   1.956   1.464   1.071 -0.7857 -1.2468 -0.9411
17823TIP3   OH274883   1.033   1.489  12.961  0.1091 -0.7556 -0.2805
17823TIP3    H174884   0.983   1.470  12.881  0.0138  1.0217 -0.6887
17823TIP3    H274885   1.119   1.450  12.945 -0.7667 -2.9000 -0.0253
17824TIP3   OH274886   5.457   5.012   4.829  0.3349 -0.1382  0.3710
17824TIP3    H174887   5.416   5.037   4.912  0.0467 -0.7409  0.4226
17824TIP3    H274888   5.430   4.921   4.816  0.0501  0.0678 -0.5788
17825TIP3   OH274889   5.741   2.864   4.615  0.3832  0.0358 -0.3909
17825TIP3    H174890   5.701   2.914   4.685  1.1923 -0.1436  0.2110
17825TIP3    H274891   5.710   2.774   4.628  0.8679 -0.0788 -0.0010
17826TIP3   OH274892   6.730   2.894   0.344 -0.3637  0.3530 -0.6851
17826TIP3    H174893   6.713   2.802   0.368 -0.3605  0.7055  0.7972
17826TIP3    H274894   6.676   2.909   0.267  0.9364 -1.3731 -2.0022
17827TIP3   OH274895   4.944   5.552   2.053  0.8425 -0.0457 -0.0551
17827TIP3    H174896   4.957   5.641   2.086  1.2716 -0.5027  1.0619
17827TIP3    H274897   4.915   5.502   2.130 -0.2928 -0.6832 -0.8665
17828TIP3   OH274898   4.790   4.714  16.227 -0.4071 -0.0612 -1.1046
17828TIP3    H174899   4.724   4.758  16.280 -2.2120 -2.2916 -1.3360
17828TIP3    H274900   4.806   4.631  16.272  1.6761  0.0716 -1.5096
17829TIP3   OH274901   1.001   6.270   4.165 -0.0903 -0.6177  0.5856
17829TIP3    H174902   0.929   6.307   4.216  0.2588 -0.7514  1.1936
17829TIP3    H274903   1.076   6.272   4.225  1.2302  2.2804 -0.9282
17830TIP3   OH274904   1.221   4.383   0.295  0.2165  0.2193 -0.1800
17830TIP3    H174905   1.291   4.434   0.338  0.8932 -1.2912  0.5875
17830TIP3    H274906   1.141   4.412   0.339  0.7106 -0.1093  0.9903
17831TIP3   OH274907   6.258   2.461  12.699 -0.4428  0.0510 -0.3944
17831TIP3    H174908   6.316   2.533  12.724 -0.3188  0.8352 -2.6794
17831TIP3    H274909   6.173   2.502  12.687 -0.5272 -0.2979 -1.0312
17832TIP3   OH274910   5.893   1.232  12.280  0.2819  0.0558 -0.2807
17832TIP3    H174911   5.864   1.177  12.207 -2.4988  0.4434  0.4284
17832TIP3    H274912   5.829   1.217  12.349  0.5014  2.7350  0.6167
17833TIP3   OH274913   6.499   5.729  17.288  0.1346  0.0024 -0.0805
17833TIP3    H174914   6.423   5.687  17.328 -0.2467 -0.8458 -1.5932
17833TIP3    H274915   6.493   5.821  17.314 -0.6086 -0.3379  0.9814
17834TIP3   OH274916   6.314   3.416   3.974 -0.1858 -0.4996 -0.4245
17834TIP3    H174917   6.408   3.423   3.954 -0.4367  0.4751 -1.3518
17834TIP3    H274918   6.311   3.365   4.055  1.1718 -0.1698 -0.1323
17835TIP3   OH274919   1.401   2.832   2.793 -0.2567  0.3266 -0.4640
17835TIP3    H174920   1.348   2.861   2.867  1.3499  0.3519  0.7384
17835TIP3    H274921   1.354   2.756   2.758  0.0148 -1.0944  2.0067
17836TIP3   OH274922   5.644   1.737   4.006 -0.1384  0.1549  0.0660
17836TIP3    H174923   5.632   1.831   4.021  1.0646  0.2780  0.3087
17836TIP3    H274924   5.738   1.723   4.008 -0.2387 -0.8926 -1.0352
17837TIP3   OH274925   2.900   0.831   6.227 -0.2268 -0.1305 -0.0758
17837TIP3    H174926   2.987   0.860   6.199 -0.6959  0.4433 -1.0066
17837TIP3    H274927   2.895   0.856   6.319  0.0016  1.3450 -0.4342
17838TIP3   OH274928   2.407   1.697  15.463  0.5041  0.2388 -0.2834
17838TIP3    H174929   2.443   1.663  15.380  0.0572  0.3420 -0.5203
17838TIP3    H274930   2.457   1.652  15.530  1.0827  0.3751 -0.6124
17839TIP3   OH274931   0.854   1.495   2.030  0.1169  0.0986 -0.4945
17839TIP3    H174932   0.902   1.429   2.081 -2.0358 -0.4963  0.9070
17839TIP3    H274933   0.840   1.453   1.945 -1.0505 -1.2556  0.3152
17840TIP3   OH274934   0.263   4.964   1.847  0.1264 -0.1838 -0.3138
17840TIP3    H174935   0.335   4.990   1.789 -0.6671 -0.5379 -1.4978
17840TIP3    H274936   0.298   4.975   1.935  1.5039 -0.0007 -0.8589
17841TIP3   OH274937   3.414   1.205  13.506 -0.1906 -0.1261  0.2139
17841TIP3    H174938   3.409   1.129  13.564 -2.1141  0.2303  0.5733
17841TIP3    H274939   3.440   1.169  13.421  0.3433 -0.9718  0.7149
17842TIP3   OH274940   3.849   3.486  12.702  0.1999 -0.4310  0.1755
17842TIP3    H174941   3.831   3.558  12.641 -3.1843 -0.1462  1.2857
17842TIP3    H274942   3.865   3.529  12.786 -1.8485 -0.8557  0.8474
17843TIP3   OH274943   1.620   1.170   3.579 -0.3434 -0.8841  0.6622
17843TIP3    H174944   1.715   1.159   3.573 -0.4059 -0.8874 -0.7511
17843TIP3    H274945   1.603   1.193   3.670  1.0366 -0.6539  0.8704
17844TIP3   OH274946   1.901   0.020  16.037  0.1752  0.7555  0.0283
17844TIP3    H174947   1.957  -0.054  16.059 -0.2969  0.9329  1.9483
17844TIP3    H274948   1.878   0.006  15.945  1.7689 -0.3488 -0.2329
17845TIP3   OH274949   2.013   4.545  10.764 -0.5432  0.3316  0.0545
17845TIP3    H174950   1.945   4.612  10.758 -1.1814 -0.2557  0.6034
17845TIP3    H274951   2.011   4.517  10.855 -0.2727 -0.4193 -0.1690
17846TIP3   OH274952   3.453   0.814   5.519 -0.0239  0.0742  0.3567
17846TIP3    H174953   3.452   0.719   5.516 -0.0725  0.0114  1.8148
17846TIP3    H274954   3.413   0.837   5.603  0.3065  1.3615  0.1956
17847TIP3   OH274955   3.704   2.948   3.754  0.1558 -0.2968  0.3200
17847TIP3    H174956   3.729   3.034   3.720  1.6805  1.1572  4.5046
17847TIP3    H274957   3.773   2.889   3.724  0.7777  0.6220 -0.0915
17848TIP3   OH274958   1.597   6.299  12.648 -0.8543 -0.5760  0.4171
17848TIP3    H174959   1.688   6.271  12.658 -0.4278  1.3691  2.9853
17848TIP3    H274960   1.546   6.222  12.672  0.0727 -1.5147 -0.4911
17849TIP3   OH274961   2.031   2.966   6.549 -0.0870  0.1282 -0.4575
17849TIP3    H174962   1.941   2.971   6.581  0.1727 -0.1271  0.3427
17849TIP3    H274963   2.030   2.896   6.483  0.2644 -2.6328  2.2590
17850TIP3   OH274964   0.882   0.407  11.703 -0.2284 -0.1137  0.1225
17850TIP3    H174965   0.944   0.479  11.704  1.3583 -1.2994 -2.6932
17850TIP3    H274966   0.934   0.329  11.721 -1.5252 -0.8233  1.0161
17851TIP3   OH274967   5.762   5.937   0.656 -0.5558 -0.4919 -0.0871
17851TIP3    H174968   5.769   5.902   0.567 -1.9987 -0.6635 -0.1544
17851TIP3    H274969   5.719   6.022   0.646  1.1135  0.4320  0.2723
17852TIP3   OH274970   5.097   6.046  16.114  0.3048  0.0742  0.1982
17852TIP3    H174971   5.178   6.000  16.094  2.2780  2.4177  2.2371
17852TIP3    H274972   5.093   6.117  16.049 -1.1250 -1.0302 -1.0023
17853TIP3   OH274973   4.936   5.724   3.282 -0.1486 -0.2827 -0.2035
17853TIP3    H174974   4.957   5.647   3.334 -0.4884 -1.7367 -2.0956
17853TIP3    H274975   4.849   5.750   3.312 -0.1368 -0.8069  0.2995
17854TIP3   OH274976   3.231   6.274   3.304  0.2002 -0.0930 -0.8640
17854TIP3    H174977   3.150   6.232   3.332 -0.4907  0.6185 -1.7517
17854TIP3    H274978   3.213   6.368   3.308  2.0818  0.2494  2.1672
17855TIP3   OH274979   5.791   5.551   5.045  0.2760  0.2244 -0.1204
17855TIP3    H174980   5.878   5.565   5.082 -0.1168  0.4576  0.7513
17855TIP3    H274981   5.793   5.462   5.011  0.3556 -0.3711  1.3761
17856TIP3   OH274982   4.446   3.362   0.375  0.2817 -0.1921  0.1599
17856TIP3    H174983   4.495   3.443   0.360 -0.4610  0.2487  0.0744
17856TIP3    H274984   4.372   3.389   0.430 -0.3786 -0.6789 -0.4804
17857TIP3   OH274985   2.605   3.840   6.113 -0.6900 -0.0732 -0.7884
17857TIP3    H174986   2.591   3.888   6.195  1.2301  0.3809 -0.6852
17857TIP3    H274987   2.569   3.898   6.045  1.5225  1.5746 -0.6555
17858TIP3   OH274988   4.140   0.609   2.441 -0.4955  0.5104 -0.2255
17858TIP3    H174989   4.153   0.697   2.406  0.0061  1.0366  1.2082
17858TIP3    H274990   4.229   0.577   2.457 -0.7125  0.3270  0.6391
17859TIP3   OH274991   1.819   2.910  11.469  0.2422  0.0837  0.0044
17859TIP3    H174992   1.760   2.908  11.394 -0.4710  1.8181  0.4797
17859TIP3    H274993   1.786   2.842  11.527 -0.5546  0.2138 -0.2808
17860TIP3   OH274994   0.272   0.046  15.066 -0.9470  0.0691 -0.1931
17860TIP3    H174995   0.241   0.114  15.126 -0.0898  0.1935  0.1246
17860TIP3    H274996   0.193   0.018  15.019 -1.2386  1.6876 -0.7471
17861TIP3   OH274997   4.752   0.103  10.699  0.1093  0.5130  0.1960
17861TIP3    H174998   4.714   0.016  10.707 -0.9834  0.9239 -0.3164
17861TIP3    H274999   4.800   0.101  10.616  0.2756  0.3381  0.2952
17862TIP3   OH275000   4.436   5.941  17.031 -0.1440  0.1096  0.8097
17862TIP3    H175001   4.460   6.010  16.968  3.2323 -0.6665  1.0693
17862TIP3    H275002   4.449   5.982  17.117  2.0794 -0.7815  0.9681
17863TIP3   OH275003   5.045   4.728  13.205  0.5300  0.3115 -0.0113
17863TIP3    H175004   4.996   4.810  13.206  0.3906  0.2447  1.9132
17863TIP3    H275005   4.984   4.664  13.243  0.3673 -0.8846 -2.1533
17864TIP3   OH275006   5.615   1.717  12.442 -0.2864 -0.2945 -0.0183
17864TIP3    H175007   5.631   1.751  12.530 -0.7794  1.0961 -0.4419
17864TIP3    H275008   5.557   1.642  12.455  0.1769 -0.4976  0.8880
17865TIP3   OH275009   5.862   0.122   1.347 -0.0639 -0.0674  0.2718
17865TIP3    H175010   5.853   0.049   1.409 -0.9786  1.4082  1.9567
17865TIP3    H275011   5.798   0.186   1.376  0.4311  1.2582 -1.4285
17866TIP3   OH275012   3.799   0.160  12.746 -0.0966  0.3447 -0.0221
17866TIP3    H175013   3.861   0.188  12.813  0.2630 -1.7985  0.6288
17866TIP3    H275014   3.851   0.107  12.685 -1.1062 -0.9084  0.1517
17867TIP3   OH275015   2.384   4.374   5.390 -0.1532 -0.0296  0.0465
17867TIP3    H175016   2.392   4.301   5.329  0.4984  0.1579 -0.0962
17867TIP3    H275017   2.470   4.417   5.388  0.6072 -1.2337  2.6375
17868TIP3   OH275018   1.766   5.442  16.387  0.1758 -0.4690  0.3828
17868TIP3    H175019   1.804   5.356  16.404  0.1935 -0.6998 -0.7853
17868TIP3    H275020   1.809   5.473  16.308  0.1862  0.6386  0.7944
17869TIP3   OH275021   4.990   0.857  12.305 -0.0017 -0.1465 -0.5202
17869TIP3    H175022   5.042   0.888  12.380  0.5055 -0.2145 -0.8392
17869TIP3    H275023   5.004   0.762  12.305 -0.8984 -0.2835 -0.0325
17870TIP3   OH275024   3.928   0.386  16.634  0.3518 -0.2429 -0.4157
17870TIP3    H175025   3.971   0.339  16.705  0.4397  0.4479 -0.0032
17870TIP3    H275026   3.981   0.465  16.620 -0.2965  0.2002 -0.4667
17871TIP3   OH275027   1.794   0.936  15.577 -0.6727 -0.3303 -0.1769
17871TIP3    H175028   1.858   0.881  15.531 -0.8604 -0.1104 -0.7090
17871TIP3    H275029   1.846   1.011  15.608 -1.1296  1.3874 -3.1756
17872TIP3   OH275030   2.483   5.441  15.342 -0.4573 -0.4010  0.2749
17872TIP3    H175031   2.445   5.466  15.257 -2.9069  0.0734  1.4153
17872TIP3    H275032   2.574   5.471  15.337 -0.4908 -0.4394 -2.1805
17873TIP3   OH275033   1.561   0.695  16.664  0.9711  0.0989 -0.4560
17873TIP3    H175034   1.647   0.712  16.626  1.0835  1.3689  0.2940
17873TIP3    H275035   1.576   0.694  16.758  0.3706 -1.0305 -0.3465
17874TIP3   OH275036   5.455   1.952  13.276  0.6514 -0.2478 -0.7042
17874TIP3    H175037   5.497   1.978  13.194  0.4579 -0.1424 -0.7729
17874TIP3    H275038   5.388   1.888  13.249 -0.1651  0.6049 -0.7724
17875TIP3   OH275039   2.245   2.949  14.532 -0.1335  0.3799  1.0695
17875TIP3    H175040   2.304   2.973  14.603 -0.8752  1.3407  1.3847
17875TIP3    H275041   2.236   3.029  14.481  0.2009 -0.2382  0.0127
17876TIP3   OH275042   4.206   6.724  17.186  0.0928  0.3808 -0.0153
17876TIP3    H175043   4.228   6.760  17.271  2.0283 -0.7995  0.0594
17876TIP3    H275044   4.201   6.800  17.127 -2.0953  1.2904  1.2307
17877TIP3   OH275045   4.432   2.686   5.222 -0.1671  0.0550  0.3588
17877TIP3    H175046   4.382   2.611   5.189  1.0221  0.1412 -1.8757
17877TIP3    H275047   4.368   2.757   5.229 -1.0098 -0.7562  1.0154
17878TIP3   OH275048   0.051   2.885  16.740 -0.1377  0.7488 -0.1049
17878TIP3    H175049  -0.036   2.871  16.779  0.8208  1.4762  2.5565
17878TIP3    H275050   0.096   2.801  16.752  0.0416  0.8671  0.0739
17879TIP3   OH275051   4.998   6.218  14.859  0.3526 -0.2889 -0.4183
17879TIP3    H175052   5.034   6.304  14.881 -0.6752  0.3841 -1.2752
17879TIP3    H275053   5.075   6.161  14.854  1.0586  0.5879  0.0961
17880TIP3   OH275054   4.897   3.468   5.366  0.0156 -0.5547  0.2080
17880TIP3    H175055   4.836   3.395   5.374 -0.2675 -0.3430  0.0166
17880TIP3    H275056   4.981   3.428   5.343 -0.1661 -0.8084 -0.0098
17881TIP3   OH275057   2.131   3.634  13.902 -0.3538 -0.0553 -0.4868
17881TIP3    H175058   2.035   3.644  13.900 -0.3688  0.1150  0.7009
17881TIP3    H275059   2.164   3.721  13.879 -0.4615 -0.3358 -1.8059
17882TIP3   OH275060   2.291   2.256   2.762  0.1487  0.1093  0.0489
17882TIP3    H175061   2.218   2.260   2.824  0.3041  0.1238  0.2314
17882TIP3    H275062   2.351   2.191   2.800  1.0499  1.3354  0.7910
17883TIP3   OH275063   2.961   3.312   4.315  0.5728 -0.0276  0.1649
17883TIP3    H175064   3.019   3.236   4.315  1.0377  0.3209 -0.1388
17883TIP3    H275065   3.016   3.384   4.283 -0.4631 -0.0251 -1.7543
17884TIP3   OH275066   2.618   5.766  14.179 -0.1712 -0.1256 -0.0884
17884TIP3    H175067   2.633   5.746  14.271 -0.8786  0.6006  0.1951
17884TIP3    H275068   2.699   5.808  14.150  0.2120 -0.7335  0.0805
17885TIP3   OH275069   1.312   0.470  17.328 -0.8021  0.0585 -0.3609
17885TIP3    H175070   1.285   0.412  17.399 -0.7979  1.4618  0.8330
17885TIP3    H275071   1.243   0.462  17.263  0.3424 -3.0740 -1.3826
17886TIP3   OH275072   2.425   3.012   1.632  0.1676 -0.4214 -0.4318
17886TIP3    H175073   2.398   2.954   1.561  0.7234  0.0822 -1.0739
17886TIP3    H275074   2.486   3.074   1.590  0.4872 -0.1065  0.4810
17887TIP3   OH275075   2.256   6.707   3.719  0.0597 -0.0744 -0.1063
17887TIP3    H175076   2.218   6.673   3.638  2.3604  0.9077 -1.7039
17887TIP3    H275077   2.284   6.796   3.698  2.3036 -0.3841  1.1908
17888TIP3   OH275078   1.292   2.388  11.890  0.4696  1.0428 -0.3627
17888TIP3    H175079   1.215   2.375  11.835  0.1260 -0.4096  0.4123
17888TIP3    H275080   1.352   2.317  11.865 -1.1610 -2.1372  3.5015
17889TIP3   OH275081   1.963   3.641   2.463 -0.1911  0.1122 -0.0213
17889TIP3    H175082   2.039   3.584   2.451  1.6244  1.6549  2.8104
17889TIP3    H275083   1.956   3.691   2.381  0.5784 -1.4439 -1.0669
17890TIP3   OH275084   3.650   4.906   2.557 -0.0778 -0.3304 -0.0081
17890TIP3    H175085   3.707   4.953   2.618 -1.3071 -0.8921  1.6388
17890TIP3    H275086   3.562   4.933   2.580 -0.6722 -1.6967 -0.5387
17891TIP3   OH275087   4.093   1.882  13.387 -0.2664 -0.0013 -0.1380
17891TIP3    H175088   4.000   1.864  13.401 -0.5086  2.0197  1.1347
17891TIP3    H275089   4.126   1.908  13.473  1.3892 -0.2008 -0.6736
17892TIP3   OH275090   5.724   4.769  15.848 -0.5518  0.2104  0.3041
17892TIP3    H175091   5.714   4.810  15.762 -0.3262  0.7144  0.5163
17892TIP3    H275092   5.634   4.753  15.877 -0.6594  0.9916  0.4220
17893TIP3   OH275093   5.058   6.045   5.184 -0.5323  0.1993 -0.6789
17893TIP3    H175094   5.108   5.966   5.163 -1.0451 -0.3247 -0.0091
17893TIP3    H275095   5.076   6.105   5.113  1.5390  0.2661 -0.1572
17894TIP3   OH275096   5.922   6.477   2.982  0.3211  1.2135 -0.2064
17894TIP3    H175097   5.960   6.530   3.052  0.2609  0.5306  0.3538
17894TIP3    H275098   5.977   6.495   2.906  2.4823 -0.5796  0.8555
17895TIP3   OH275099   2.276   2.300  11.204 -0.2969  0.6316  0.2081
17895TIP3    H175100   2.287   2.320  11.111 -1.7293  2.2734  0.3445
17895TIP3    H275101   2.313   2.212  11.214 -1.2177 -0.1025 -2.1592
17896TIP3   OH275102   1.704   4.083  14.670 -0.6221  0.1446 -0.5761
17896TIP3    H175103   1.665   4.131  14.742 -0.4266 -0.2496 -0.2022
17896TIP3    H275104   1.699   4.143  14.595 -0.3366  0.7521 -0.1116
17897TIP3   OH275105   2.491   6.461  14.157  0.5240 -0.1091  0.1503
17897TIP3    H175106   2.459   6.408  14.085 -0.2165  2.4533 -1.5387
17897TIP3    H275107   2.563   6.410  14.195 -0.1237 -2.2404 -1.3325
17898TIP3   OH275108   3.849   4.055   3.015 -0.3868  0.6701 -0.0171
17898TIP3    H175109   3.903   4.023   2.943  0.2814  3.1761 -0.7251
17898TIP3    H275110   3.906   4.047   3.092  0.5385  1.9993 -0.5272
17899TIP3   OH275111   4.701   5.645   0.029  0.3596 -0.2035  0.1116
17899TIP3    H175112   4.747   5.611  -0.047 -0.3138  1.3649 -1.0816
17899TIP3    H275113   4.755   5.718   0.060 -0.9241  1.2816 -0.9506
17900TIP3   OH275114   6.077   5.983   6.192 -0.2152 -0.5284 -0.0390
17900TIP3    H175115   6.108   5.991   6.282 -0.8938  0.9612  0.0936
17900TIP3    H275116   6.132   5.915   6.153  0.6092 -0.6366  1.2671
17901TIP3   OH275117   0.430   5.528  15.143  0.4995  0.1831 -0.0743
17901TIP3    H175118   0.382   5.446  15.144 -0.6375  0.7245 -2.7034
17901TIP3    H275119   0.446   5.548  15.236 -1.2743 -1.7745  0.7263
17902TIP3   OH275120   1.843   5.277  14.225 -0.6537 -0.1200 -0.0561
17902TIP3    H175121   1.902   5.216  14.269  0.5806  0.5137 -0.7806
17902TIP3    H275122   1.883   5.292  14.139 -1.4670  0.9216 -0.2741
17903TIP3   OH275123   0.348   5.846   2.970  0.0102  0.2687 -0.1038
17903TIP3    H175124   0.350   5.759   2.931  0.6842 -0.3362  1.2533
17903TIP3    H275125   0.413   5.844   3.040 -1.3729  1.2235  1.2913
17904TIP3   OH275126   6.197   4.697  15.976 -0.1602  0.5178 -0.5797
17904TIP3    H175127   6.123   4.637  15.985 -0.4521  0.9437 -0.0307
17904TIP3    H275128   6.274   4.643  15.991 -0.4321  0.3267  0.1856
17905TIP3   OH275129   5.851   4.669  11.791 -0.1636 -0.3580 -0.2804
17905TIP3    H175130   5.767   4.703  11.758 -0.7111 -0.5292  0.8848
17905TIP3    H275131   5.913   4.740  11.777 -1.4111  1.5327  2.6792
17906TIP3   OH275132   1.110   3.870  16.014 -0.2900 -0.3879  0.2151
17906TIP3    H175133   1.038   3.808  16.019 -0.1811 -0.4034  2.2251
17906TIP3    H275134   1.108   3.902  15.923 -1.0829 -2.4029 -0.5358
17907TIP3   OH275135   3.435   6.520   3.333  0.0186 -0.0608 -0.8657
17907TIP3    H175136   3.394   6.601   3.363  1.3616  1.2468 -2.3353
17907TIP3    H275137   3.473   6.481   3.412  1.0326  1.7900 -0.3784
17908TIP3   OH275138   4.711   5.866  11.801  0.2383  0.4317 -0.1539
17908TIP3    H175139   4.675   5.898  11.884  0.3445  2.9888 -1.0001
17908TIP3    H275140   4.636   5.828  11.755  0.1505 -0.8759  1.0128
17909TIP3   OH275141   1.196   6.632  15.410  0.0199 -0.0964 -0.1566
17909TIP3    H175142   1.281   6.630  15.368  0.0731 -1.7281 -0.0445
17909TIP3    H275143   1.136   6.665  15.343  0.1773 -2.2498 -1.4703
17910TIP3   OH275144   0.745   5.037   1.801  0.6251  0.5285 -0.1833
17910TIP3    H175145   0.808   4.984   1.849  0.4974 -0.8276 -1.4183
17910TIP3    H275146   0.784   5.125   1.798  0.7584  0.6025  2.0598
17911TIP3   OH275147   0.858   2.551  17.230 -0.3589 -0.3434 -0.0838
17911TIP3    H175148   0.915   2.503  17.170 -1.3477 -0.1270 -1.2274
17911TIP3    H275149   0.769   2.531  17.200 -0.8460  0.6305  0.6487
17912TIP3   OH275150   3.385   1.832   2.157 -0.0972  0.1131 -0.7330
17912TIP3    H175151   3.331   1.911   2.161  0.5284  0.5717 -1.1228
17912TIP3    H275152   3.376   1.791   2.243 -1.1211  0.1396 -0.8239
17913TIP3   OH275153   0.567   1.617   3.656 -0.2764 -0.0311 -0.2228
17913TIP3    H175154   0.574   1.605   3.561 -0.4099 -1.1280 -0.1001
17913TIP3    H275155   0.645   1.667   3.679 -0.4428  0.5962 -0.9613
17914TIP3   OH275156   6.652   2.247   3.222 -0.1136  0.1671  0.3488
17914TIP3    H175157   6.653   2.309   3.295 -0.8406  0.1503  0.3772
17914TIP3    H275158   6.641   2.161   3.264  3.0564 -0.2742  0.4892
17915TIP3   OH275159   3.250   3.740  15.685  0.2554  0.3777  0.2935
17915TIP3    H175160   3.205   3.785  15.613 -1.0298 -1.0064  0.1639
17915TIP3    H275161   3.309   3.805  15.721  0.2305  1.4081 -1.4003
17916TIP3   OH275162   3.881   0.687  13.676  0.3063  0.1231 -0.3374
17916TIP3    H175163   3.892   0.756  13.741 -1.1980 -0.1287  0.2148
17916TIP3    H275164   3.899   0.606  13.724 -1.8144 -0.1452  0.0860
17917TIP3   OH275165   3.500   5.933  13.257 -0.1605 -0.1243 -0.1668
17917TIP3    H175166   3.494   5.968  13.346 -0.0127  0.2917 -0.3177
17917TIP3    H275167   3.577   5.976  13.219  0.9356 -1.7564  0.1279
17918TIP3   OH275168   1.228   1.489   3.831 -0.3593  0.2379 -0.3482
17918TIP3    H175169   1.262   1.409   3.871 -0.4516  0.4985  0.2696
17918TIP3    H275170   1.134   1.474   3.823 -0.5310  0.6601  0.6980
17919TIP3   OH275171   5.479   2.624   0.060  0.1128  0.1222 -0.2018
17919TIP3    H175172   5.445   2.557  -0.000  1.0886 -1.0548  0.5050
17919TIP3    H275173   5.511   2.574   0.135  1.3999  1.3382  0.1006
17920TIP3   OH275174   4.263   4.237   1.061  0.2041  0.5836 -0.4208
17920TIP3    H175175   4.311   4.307   1.106  0.4996  0.3939 -0.4357
17920TIP3    H275176   4.193   4.282   1.015  0.1714  0.8307 -0.1324
17921TIP3   OH275177   1.934   5.660  12.015 -0.7460  0.4714  0.3360
17921TIP3    H175178   1.962   5.569  12.006  0.1173  0.8565 -1.2910
17921TIP3    H275179   1.886   5.662  12.098 -0.2544 -1.3193  0.7182
17922TIP3   OH275180   6.492   1.968  11.513  0.1918  0.2058  0.1013
17922TIP3    H175181   6.501   2.051  11.465 -0.1853  0.3249  0.2304
17922TIP3    H275182   6.572   1.920  11.493  0.3679  0.5594 -0.0608
17923TIP3   OH275183   2.311   1.842   4.448 -0.4363  0.0823  0.5784
17923TIP3    H175184   2.284   1.838   4.356 -0.9693  3.3934  0.4697
17923TIP3    H275185   2.247   1.787   4.494 -1.9331  0.6634 -0.7278
17924TIP3   OH275186   3.270   4.554  11.406 -0.6462  0.2034  0.0218
17924TIP3    H175187   3.296   4.463  11.394  0.7638  0.2954  1.9265
17924TIP3    H275188   3.346   4.604  11.377 -0.1739  0.6253  1.8484
17925TIP3   OH275189   4.244   1.778  17.049 -0.1373 -0.1832  0.0752
17925TIP3    H175190   4.153   1.749  17.058 -1.4219  2.6345 -2.1219
17925TIP3    H275191   4.286   1.708  16.998 -2.5043  0.5551 -3.2445
17926TIP3   OH275192   4.601   3.871   4.755  0.0783 -0.0192  0.1537
17926TIP3    H175193   4.615   3.962   4.729  0.2134 -0.6994 -2.3279
17926TIP3    H275194   4.533   3.839   4.697  1.6046 -2.1375 -0.5789
17927TIP3   OH275195   5.025   3.092   4.655  0.6767 -0.1157 -0.0771
17927TIP3    H175196   5.102   3.149   4.654 -0.5997  1.7700  1.2502
17927TIP3    H275197   4.967   3.129   4.589 -1.4024  2.1655  2.7551
17928TIP3   OH275198   5.534   4.370  10.576 -0.3453 -0.4640 -0.2898
17928TIP3    H175199   5.574   4.285  10.596 -1.0186 -1.1063 -1.5747
17928TIP3    H275200   5.475   4.352  10.503  1.0968  1.5031 -2.0520
17929TIP3   OH275201   2.326   0.164   2.411  0.1004  0.5716 -0.3878
17929TIP3    H175202   2.282   0.247   2.433  0.6811  1.0299 -0.9126
17929TIP3    H275203   2.373   0.140   2.490 -0.0550  0.7500 -0.2376
17930TIP3   OH275204   6.538   1.719   5.507  0.0272 -0.0485 -0.2831
17930TIP3    H175205   6.543   1.700   5.600 -1.8342 -0.9319 -0.3224
17930TIP3    H275206   6.629   1.734   5.480  0.6364 -0.2675  1.5531
17931TIP3   OH275207   5.230   6.538   4.077 -0.2444  0.1145 -0.6002
17931TIP3    H175208   5.314   6.578   4.098 -0.1475  0.2449 -1.2136
17931TIP3    H275209   5.227   6.458   4.129 -0.3142  0.7570  0.4247
17932TIP3   OH275210   2.089   1.612  16.936  1.0348  0.2854 -0.4615
17932TIP3    H175211   2.097   1.543  17.002  0.9637  0.0075 -0.7392
17932TIP3    H275212   2.009   1.589  16.888  0.9509  0.6242 -0.4829
17933TIP3   OH275213   1.004   4.803  15.751  0.9224 -0.4670 -0.3686
17933TIP3    H175214   1.062   4.729  15.734  1.4733  0.0318 -0.6872
17933TIP3    H275215   0.950   4.774  15.824  2.5238 -0.4058  0.8766
17934TIP3   OH275216   5.920   5.586  12.696  0.5969  0.4091  0.0879
17934TIP3    H175217   5.936   5.642  12.620 -1.2374 -1.2840 -1.6805
17934TIP3    H275218   5.962   5.503  12.675 -0.5083 -0.3068  0.5728
17935TIP3   OH275219   5.129   5.107   3.730 -0.3297  0.0412  0.5608
17935TIP3    H175220   5.052   5.125   3.783  0.1559 -0.2854  1.3982
17935TIP3    H275221   5.097   5.052   3.659 -1.2693  1.7023 -0.3690
17936TIP3   OH275222   2.044   3.962   5.464 -0.1300  0.5358  0.1712
17936TIP3    H175223   2.071   4.048   5.434 -0.4368  0.0542 -1.6298
17936TIP3    H275224   1.961   3.977   5.508 -0.3622  1.1356 -0.4469
17937TIP3   OH275225   1.123   1.872  15.456 -0.1226  0.3390 -0.4099
17937TIP3    H175226   1.102   1.958  15.419 -0.4086  0.2448 -0.4728
17937TIP3    H275227   1.218   1.865  15.448 -0.3001 -0.4275 -2.8155
17938TIP3   OH275228   4.680   2.570   3.242  0.6170  0.2380 -0.5330
17938TIP3    H175229   4.750   2.636   3.235  0.0443  0.8011 -1.1432
17938TIP3    H275230   4.603   2.614   3.206 -0.3154 -0.0072  1.0938
17939TIP3   OH275231   5.619   6.611  14.670  0.2245  0.4178  0.2089
17939TIP3    H175232   5.621   6.550  14.744 -0.6559  1.7120  1.3446
17939TIP3    H275233   5.707   6.650  14.669  0.3739  0.0894  0.2938
17940TIP3   OH275234   2.183   1.164   4.248 -0.0194 -0.1146 -0.4368
17940TIP3    H175235   2.118   1.211   4.195 -0.9773 -0.8681  0.0353
17940TIP3    H275236   2.265   1.177   4.201 -0.4314  1.1795 -0.8510
17941TIP3   OH275237   1.757   4.593   5.681  0.3300 -0.3967  0.2609
17941TIP3    H175238   1.735   4.681   5.710  1.8276  1.1063 -2.6663
17941TIP3    H275239   1.721   4.587   5.592  0.7314 -2.5503  0.1746
17942TIP3   OH275240   4.785   2.097   5.666  0.0973  0.0346 -0.0390
17942TIP3    H175241   4.834   2.132   5.591 -0.0903 -2.3723 -1.3919
17942TIP3    H275242   4.847   2.100   5.738  1.0200  0.4325 -0.8267
17943TIP3   OH275243   0.380   5.392  15.626  0.5895 -0.8177  0.2379
17943TIP3    H175244   0.455   5.343  15.657  0.2207 -1.6677 -0.1658
17943TIP3    H275245   0.305   5.337  15.647 -0.0273  0.4370  1.4979
17944TIP3   OH275246   3.892   1.940   4.516  0.1158 -0.1286  0.4104
17944TIP3    H175247   3.955   1.868   4.514 -1.3872 -1.5696  1.8370
17944TIP3    H275248   3.815   1.906   4.473 -0.0900  1.2291 -0.3420
17945TIP3   OH275249   3.757   2.970  16.043  0.4261  0.2513 -0.2946
17945TIP3    H175250   3.819   2.898  16.056 -0.4801 -0.2963  1.3517
17945TIP3    H275251   3.671   2.928  16.049 -0.1227  1.4546  0.6925
17946TIP3   OH275252   0.490   2.043  16.075 -0.4920 -0.2113 -0.2640
17946TIP3    H175253   0.542   2.053  16.154  0.5112  0.4315 -0.9750
17946TIP3    H275254   0.415   2.102  16.088 -0.9598 -0.9869  0.6774
17947TIP3   OH275255   3.075   5.153  13.587 -0.3035 -0.2047  0.0526
17947TIP3    H175256   3.099   5.062  13.604  1.3648 -0.0296 -1.2222
17947TIP3    H275257   3.101   5.169  13.497 -0.5249  1.5688  0.2694
17948TIP3   OH275258   4.272   0.920   5.713  0.2167 -0.4744  0.0670
17948TIP3    H175259   4.313   1.000   5.746  0.7602 -0.5036 -0.5100
17948TIP3    H275260   4.234   0.878   5.790 -0.4944  0.5714  0.3209
17949TIP3   OH275261   2.645   0.130   5.858  0.2750  1.0793 -0.0800
17949TIP3    H175262   2.550   0.141   5.848 -0.1133  0.2328  2.0903
17949TIP3    H275263   2.677   0.219   5.875 -0.1935  1.3102 -0.3738
17950TIP3   OH275264   0.106   0.770  16.155 -0.1441  0.1794 -0.0994
17950TIP3    H175265   0.089   0.864  16.155 -0.9153  0.0509 -0.3477
17950TIP3    H275266   0.050   0.735  16.085  0.0764 -0.4682  0.0376
17951TIP3   OH275267   1.846   1.847  16.919 -0.0394 -0.7005  0.1639
17951TIP3    H175268   1.820   1.917  16.859 -1.2639 -0.5764  0.7909
17951TIP3    H275269   1.817   1.767  16.875 -1.1350 -0.5939  0.6622
17952TIP3   OH275270   4.969   5.810   1.889  0.3386  0.0599  0.2337
17952TIP3    H175271   5.009   5.893   1.914  1.6102 -0.6669  0.6928
17952TIP3    H275272   4.976   5.755   1.967 -0.9271 -0.3483  0.0941
17953TIP3   OH275273   3.516   5.017   5.087  0.3051  0.0640  0.7410
17953TIP3    H175274   3.433   5.012   5.039  0.2182 -0.0007  0.8965
17953TIP3    H275275   3.534   4.927   5.113  0.5341  0.0452  0.5256
17954TIP3   OH275276   2.590   3.696   1.731  0.0387  0.3814 -0.1962
17954TIP3    H175277   2.542   3.778   1.743 -0.5754  0.1579 -1.0096
17954TIP3    H275278   2.522   3.628   1.733  0.4267 -0.0200 -0.4617
17955TIP3   OH275279   0.980   1.747  14.009 -0.2181  0.4670  0.3238
17955TIP3    H175280   0.914   1.728  13.942  2.0043  1.4576 -2.3441
17955TIP3    H275281   0.954   1.693  14.084 -2.9417 -0.6270 -1.2512
17956TIP3   OH275282   0.984   2.250  12.048 -0.3349  0.0066 -0.2250
17956TIP3    H175283   0.975   2.197  11.969  1.2456 -0.5476 -0.0875
17956TIP3    H275284   1.071   2.227  12.082 -0.5634  0.9805  1.1203
17957TIP3   OH275285   4.773   1.896  14.847  0.2149  0.6336  1.2148
17957TIP3    H175286   4.856   1.861  14.816 -0.0411  1.5029 -0.6277
17957TIP3    H275287   4.770   1.986  14.814 -2.1741  0.0884 -0.3774
17958TIP3   OH275288   4.090   0.602  14.213 -0.0828 -0.1794  0.1973
17958TIP3    H175289   4.065   0.622  14.122 -2.8039  0.3001  0.9629
17958TIP3    H275290   4.175   0.560  14.205  1.0609  2.2623 -2.3724
17959TIP3   OH275291   5.208   5.490  14.826  0.1728 -0.6372  0.3974
17959TIP3    H175292   5.290   5.442  14.818 -0.0319 -1.1627  1.3237
17959TIP3    H275293   5.181   5.477  14.917  0.3647  1.6617  0.8405
17960TIP3   OH275294   6.160   6.038   3.908 -0.0936  0.1663 -0.2912
17960TIP3    H175295   6.142   5.952   3.870  2.9440 -0.4744 -0.5205
17960TIP3    H275296   6.144   6.027   4.002  2.1890 -1.3483 -0.0037
17961TIP3   OH275297   4.950   5.347   0.082 -0.1170 -0.3375  0.6036
17961TIP3    H175298   4.979   5.334   0.173  0.5034  0.3485  0.5130
17961TIP3    H275299   4.894   5.272   0.064  0.0095 -0.6501  1.4532
17962TIP3   OH275300   0.866   5.402  13.684  0.4344 -0.0138 -0.0169
17962TIP3    H175301   0.935   5.350  13.641  0.6556 -0.2522  0.6212
17962TIP3    H275302   0.859   5.481  13.629  1.8456  0.4341  0.3918
17963TIP3   OH275303   6.671   3.257   4.581  0.2829  0.6055  0.1215
17963TIP3    H175304   6.665   3.164   4.558 -0.1109  0.5985  0.2501
17963TIP3    H275305   6.637   3.262   4.670 -2.3103  1.2609 -0.8260
17964TIP3   OH275306   1.075   1.313  14.382 -0.1567 -0.2452  0.2715
17964TIP3    H175307   1.030   1.313  14.297  0.6802 -2.1482 -0.2141
17964TIP3    H275308   1.092   1.406  14.399 -0.7940  0.2223 -1.3843
17965TIP3   OH275309   1.492   4.927  16.772 -0.4602  0.3604 -0.3219
17965TIP3    H175310   1.406   4.931  16.730 -0.2066 -1.8249 -1.1800
17965TIP3    H275311   1.476   4.880  16.854  0.0033 -0.8685 -0.8999
17966TIP3   OH275312   5.129   6.230  16.492  0.1052  0.7217 -0.0287
17966TIP3    H175313   5.056   6.169  16.508 -1.5131  2.3328 -0.9162
17966TIP3    H275314   5.202   6.174  16.469 -1.1118 -0.9277 -0.0938
17967TIP3   OH275315   6.113   0.138   1.761 -0.1651  0.1117  0.0245
17967TIP3    H175316   6.142   0.056   1.720 -2.4254 -1.7610  1.8208
17967TIP3    H275317   6.153   0.136   1.848  0.0196  1.1140 -0.0274
17968TIP3   OH275318   6.437   3.511   2.361 -0.5502  0.0563 -0.2691
17968TIP3    H175319   6.399   3.531   2.447  1.0382  1.1192  0.2342
17968TIP3    H275320   6.416   3.588   2.308 -0.7765 -0.2135 -0.5703
17969TIP3   OH275321   2.937   6.320  13.977 -0.7013  0.2050 -0.2969
17969TIP3    H175322   2.862   6.284  13.929 -1.6143  0.2038  1.0603
17969TIP3    H275323   2.927   6.286  14.066 -0.0921  1.6465  0.3627
17970TIP3   OH275324   2.059   2.315   5.450 -0.0036 -0.2787  0.0422
17970TIP3    H175325   2.113   2.387   5.418  0.1989 -1.0118 -1.3330
17970TIP3    H275326   1.976   2.325   5.403 -0.3884 -0.2679  0.7166
17971TIP3   OH275327   6.202   5.421   0.645 -0.1634 -0.1447 -0.1835
17971TIP3    H175328   6.147   5.481   0.696  1.1698  1.1185 -0.1581
17971TIP3    H275329   6.159   5.416   0.559 -0.1511  1.1340 -0.2875
17972TIP3   OH275330   4.017   3.979   2.812  0.5016  0.1656 -0.0087
17972TIP3    H175331   4.003   3.966   2.718 -0.5819  0.8868  0.0424
17972TIP3    H275332   4.091   4.039   2.817 -0.7322  1.7997 -0.4869
17973TIP3   OH275333   4.745   3.320  12.552  0.9359 -0.3601 -0.0273
17973TIP3    H175334   4.675   3.345  12.613  1.6039 -2.7785  1.9221
17973TIP3    H275335   4.713   3.346  12.466 -1.7584 -0.1676  0.9347
17974TIP3   OH275336   2.710   4.724  15.530  0.2873 -0.0213 -0.0129
17974TIP3    H175337   2.759   4.774  15.596  0.5445 -0.1740 -0.0867
17974TIP3    H275338   2.627   4.771  15.520  0.4799  0.3227  0.0053
17975TIP3   OH275339   6.358   6.422   1.645 -0.2338 -0.3887  0.3473
17975TIP3    H175340   6.281   6.473   1.670 -0.4369 -0.0639 -0.8685
17975TIP3    H275341   6.385   6.378   1.725 -2.2603 -1.2867  0.5784
17976TIP3   OH275342   3.261   6.327  17.234 -0.1216 -0.0494 -0.1656
17976TIP3    H175343   3.279   6.261  17.167  1.6036  0.0498  0.1400
17976TIP3    H275344   3.280   6.282  17.317 -0.0483  0.4968  0.1156
17977TIP3   OH275345   1.135   4.069   2.743 -0.1375  0.2500  0.1273
17977TIP3    H175346   1.137   4.022   2.659 -0.8015 -0.4978  0.5264
17977TIP3    H275347   1.130   4.161   2.718 -1.3860 -0.0090 -0.6746
17978TIP3   OH275348   1.849   3.366  14.372 -0.5545  0.0526  0.1640
17978TIP3    H175349   1.890   3.349  14.457  0.2508 -1.3065 -0.4629
17978TIP3    H275350   1.916   3.412  14.322 -0.7788  0.2407  0.0368
17979TIP3   OH275351   4.212   5.590   5.148  0.4606  0.6284  0.7337
17979TIP3    H175352   4.127   5.551   5.128  0.5378  1.1296 -0.6526
17979TIP3    H275353   4.192   5.683   5.165  0.5325  0.4212  2.0745
17980TIP3   OH275354   5.855   2.471  16.622 -0.0011  0.1002 -0.0411
17980TIP3    H175355   5.897   2.530  16.684 -0.1890 -0.3500  0.5245
17980TIP3    H275356   5.768   2.509  16.608 -0.1382 -0.0596  0.3561
17981TIP3   OH275357   4.206   3.971  10.432  0.1118  0.1472  0.2027
17981TIP3    H175358   4.298   3.943  10.426  0.3376  0.4481  1.8756
17981TIP3    H275359   4.193   4.025  10.354  0.1923 -2.9452 -2.1643
17982TIP3   OH275360   2.361   5.112  16.598 -0.2724  0.1270  0.4188
17982TIP3    H175361   2.453   5.134  16.581 -0.6695  0.2072 -1.9104
17982TIP3    H275362   2.312   5.155  16.528 -1.9530 -1.0839  0.7784
17983TIP3   OH275363   0.818   0.779  14.766  0.3510 -0.4360 -0.3690
17983TIP3    H175364   0.782   0.697  14.731 -0.9749 -0.1381  0.2164
17983TIP3    H275365   0.894   0.752  14.817 -0.2415 -1.3486  0.0557
17984TIP3   OH275366   1.205   4.045   0.930 -0.0342  0.1368  0.2865
17984TIP3    H175367   1.197   4.137   0.907  0.8636  0.0181 -0.5660
17984TIP3    H275368   1.121   4.023   0.971 -0.7377  1.0175 -0.6284
17985TIP3   OH275369   6.504   2.173  13.603  0.0367  0.3764  0.4959
17985TIP3    H175370   6.487   2.218  13.520  2.9140 -0.7936 -0.9069
17985TIP3    H275371   6.423   2.180  13.652 -1.9473  0.8288 -2.5804
17986TIP3   OH275372   4.431   2.627   0.961  0.5928  0.1038  0.0078
17986TIP3    H175373   4.415   2.532   0.957  0.4808 -0.0362  2.4406
17986TIP3    H275374   4.473   2.640   1.046 -2.0112  2.5871  1.0462
17987TIP3   OH275375   1.055   3.567  12.531 -0.7873  0.6818 -0.0575
17987TIP3    H175376   1.057   3.656  12.496  2.4438  0.9019  0.4158
17987TIP3    H275377   1.121   3.567  12.600 -1.5767 -1.7970  0.8116
17988TIP3   OH275378   3.638   3.488   4.099 -0.4974 -0.0427 -0.5267
17988TIP3    H175379   3.675   3.400   4.093 -1.2521 -0.3900 -0.2335
17988TIP3    H275380   3.664   3.519   4.186  0.9119  0.5791 -1.1225
17989TIP3   OH275381   1.130   4.231   0.562  0.5363  0.3322  0.1728
17989TIP3    H175382   1.110   4.152   0.612  0.3339  0.3808  0.1691
17989TIP3    H275383   1.189   4.201   0.492  0.2611  0.1416  0.0238
17990TIP3   OH275384   2.534   0.915  16.059 -0.6753  0.6148  0.1224
17990TIP3    H175385   2.490   0.914  16.144  1.3496  1.7827  1.2578
17990TIP3    H275386   2.572   0.828  16.050 -1.4969  0.2532  0.0451
17991TIP3   OH275387   5.722   0.813   2.598 -0.3114  0.4479  0.4854
17991TIP3    H175388   5.808   0.832   2.561 -0.5034  1.6008  0.5889
17991TIP3    H275389   5.675   0.769   2.527 -0.3071  1.6480 -0.2941
17992TIP3   OH275390   6.573   1.664   6.435 -0.1464  1.0712 -0.1439
17992TIP3    H175391   6.576   1.734   6.370  0.6707  0.3112 -0.9588
17992TIP3    H275392   6.580   1.584   6.383  3.2503  0.4882  1.0204
17993TIP3   OH275393   3.393   0.229   4.777  0.3568 -0.2670  0.4807
17993TIP3    H175394   3.437   0.148   4.802  0.2682 -0.2454  0.7041
17993TIP3    H275395   3.375   0.273   4.860 -0.0023 -0.2293  0.3826
17994TIP3   OH275396   6.584   4.764   1.553  0.6594  0.1605 -0.2882
17994TIP3    H175397   6.534   4.682   1.556  0.8724  0.0380 -0.0813
17994TIP3    H275398   6.529   4.823   1.500 -1.2558  1.0463  2.4603
17995TIP3   OH275399   3.458   1.282   5.826 -0.5833 -0.0830  0.6241
17995TIP3    H175400   3.427   1.201   5.866  0.0093 -0.7744 -0.2843
17995TIP3    H275401   3.553   1.277   5.832 -0.2104 -1.7900 -3.6876
17996TIP3   OH275402   4.129   5.567  12.665 -0.1083  0.3377 -0.2182
17996TIP3    H175403   4.051   5.600  12.711 -0.9457  0.2228 -1.5206
17996TIP3    H275404   4.203   5.609  12.711 -0.9224  0.5447  0.9601
17997TIP3   OH275405   5.529   4.075  16.613  0.1127  0.0708  0.2413
17997TIP3    H175406   5.605   4.090  16.557  0.8968  2.2393  1.7447
17997TIP3    H275407   5.457   4.121  16.569  0.0687 -0.5142 -0.3105
17998TIP3   OH275408   3.007   2.610   2.648 -0.0339 -0.0291 -0.3555
17998TIP3    H175409   2.965   2.598   2.563 -0.1715  0.6326 -0.3898
17998TIP3    H275410   2.936   2.601   2.711 -0.2559  1.1026 -0.4142
17999TIP3   OH275411   4.444   4.473   1.023  0.2899  0.0191  0.2150
17999TIP3    H175412   4.471   4.393   1.068  3.1029 -0.0560 -1.3921
17999TIP3    H275413   4.510   4.538   1.047 -0.4318  1.1072 -0.6274
18000TIP3   OH275414   0.602   0.710  17.094  0.1268  0.1268 -0.1121
18000TIP3    H175415   0.687   0.753  17.078  1.3365 -2.6772 -1.9985
18000TIP3    H275416   0.614   0.664  17.177  1.9367 -3.1496 -1.9763
18001TIP3   OH275417   1.557   5.211  15.928  0.3907 -0.2835 -0.2457
18001TIP3    H175418   1.491   5.239  15.991  0.1323 -1.1463 -0.1220
18001TIP3    H275419   1.515   5.225  15.843  0.1055 -0.6812 -0.1722
18002TIP3   OH275420   5.010   1.293   4.667  0.3642 -0.1891 -0.4768
18002TIP3    H175421   4.936   1.347   4.640 -0.0861 -1.5354 -2.0777
18002TIP3    H275422   4.972   1.224   4.721  0.9916  1.2172  1.9156
18003TIP3   OH275423   4.589   0.354   4.240  0.1303 -0.4361 -0.4472
18003TIP3    H175424   4.620   0.406   4.166 -0.2307 -0.4152 -0.5822
18003TIP3    H275425   4.669   0.336   4.290  0.1859  0.7083 -0.0981
18004TIP3   OH275426   2.384   3.182  12.997 -0.4245 -0.1232 -0.0421
18004TIP3    H175427   2.474   3.198  13.023 -0.5775 -1.5199  1.5434
18004TIP3    H275428   2.361   3.255  12.939  0.7138  1.9355  1.9733
18005TIP3   OH275429   2.921   2.291  12.457 -0.4647  0.0359 -0.1429
18005TIP3    H175430   2.905   2.319  12.367  3.9463  1.6475 -0.6857
18005TIP3    H275431   2.977   2.359  12.494 -1.9954 -0.5912  3.9106
18006TIP3   OH275432   1.335   3.734   4.304 -0.3040 -0.1290  0.5586
18006TIP3    H175433   1.268   3.682   4.349  0.5004 -1.4118  0.3282
18006TIP3    H275434   1.340   3.696   4.217  2.1264 -1.4501  1.1824
18007TIP3   OH275435   3.369   2.719  15.191  0.1754 -0.1444 -0.0392
18007TIP3    H175436   3.359   2.637  15.241 -1.8671  0.6641  0.9854
18007TIP3    H275437   3.335   2.698  15.104  1.9712 -1.0257 -0.5809
18008TIP3   OH275438   1.327   4.742  12.535  0.2930  0.4864  0.8862
18008TIP3    H175439   1.232   4.755  12.539  0.3482  0.6941  1.8314
18008TIP3    H275440   1.359   4.775  12.619  1.1691  0.1119  0.7097
18009TIP3   OH275441   6.210   3.146  13.242  0.4595 -0.0966  0.2892
18009TIP3    H175442   6.147   3.085  13.204  0.8050 -0.9792  1.0830
18009TIP3    H275443   6.295   3.109  13.219  0.6704 -0.2427  1.2738
18010TIP3   OH275444   1.247   1.658   5.683  0.5401 -0.0136 -0.3121
18010TIP3    H175445   1.336   1.623   5.691 -0.1046 -1.4938  0.8693
18010TIP3    H275446   1.215   1.664   5.773 -0.7822 -0.1437 -0.7541
18011TIP3   OH275447   1.402   5.148  12.067 -0.3949  0.1713  0.2444
18011TIP3    H175448   1.408   5.157  12.162 -1.3047 -2.2323  0.6016
18011TIP3    H275449   1.339   5.077  12.054  2.7982 -2.6177 -1.9480
18012TIP3   OH275450   3.241   1.601   6.546  0.0042  0.5287 -0.2865
18012TIP3    H175451   3.195   1.662   6.488 -1.1113 -1.8820 -2.1307
18012TIP3    H275452   3.172   1.566   6.602  0.3426 -0.1275 -0.2743
18013TIP3   OH275453   5.347   1.476   5.577 -0.1697 -0.3688 -0.0101
18013TIP3    H175454   5.394   1.533   5.516  1.2612 -1.6300 -0.1660
18013TIP3    H275455   5.411   1.455   5.645 -0.8417 -1.2754  0.3682
18014TIP3   OH275456   6.414   3.811   1.548 -0.5086  0.0925  0.1978
18014TIP3    H175457   6.395   3.811   1.642 -0.8926  1.0306  0.1291
18014TIP3    H275458   6.377   3.894   1.516  0.1287  0.0470 -0.6787
18015TIP3   OH275459   4.365   3.619  13.234  0.2277  0.4800 -0.5021
18015TIP3    H175460   4.379   3.580  13.320  0.1118 -0.3028 -0.8243
18015TIP3    H275461   4.399   3.708  13.241 -2.2201  1.3830  1.1697
18016TIP3   OH275462   4.443   6.635   4.041  0.4086  0.1413 -0.1110
18016TIP3    H175463   4.512   6.690   4.005 -0.4697  1.1184 -0.3563
18016TIP3    H275464   4.393   6.605   3.965 -0.2410  0.5634  0.1309
18017TIP3   OH275465   0.567   3.126   0.069 -0.4710  0.1778  0.4655
18017TIP3    H175466   0.514   3.190   0.116 -1.9592 -0.5377 -0.1979
18017TIP3    H275467   0.657   3.157   0.080 -1.1201  2.1814  0.4518
18018TIP3   OH275468   3.230   6.550   3.614  0.5803 -0.0730 -0.1953
18018TIP3    H175469   3.151   6.544   3.667  0.3808 -0.3684 -0.5149
18018TIP3    H275470   3.199   6.543   3.524  0.9427  0.1146 -0.3400
18019TIP3   OH275471   6.287   0.135  13.296  0.2586  0.3494  0.7002
18019TIP3    H175472   6.291   0.230  13.287  0.5494  0.3797  1.0919
18019TIP3    H275473   6.339   0.117  13.374  0.8527 -0.2000  0.1883
18020TIP3   OH275474   3.870   5.754  13.934  0.7633 -0.0006 -0.2237
18020TIP3    H175475   3.942   5.727  13.876 -0.5647 -1.0175 -1.4659
18020TIP3    H275476   3.833   5.831  13.893  0.3613 -0.2126 -0.2666
18021TIP3   OH275477   3.637   0.503  16.616 -0.2520 -0.3444 -0.6967
18021TIP3    H175478   3.720   0.460  16.598  0.0869 -0.6163  1.3307
18021TIP3    H275479   3.649   0.593  16.583  0.7575 -0.4371 -0.6045
18022TIP3   OH275480   3.899   1.273  12.527 -0.2685  0.2383  0.0924
18022TIP3    H175481   3.937   1.275  12.439  0.3012  2.9984  0.3355
18022TIP3    H275482   3.969   1.239  12.583  0.2850  0.9533 -0.1499
18023TIP3   OH275483   6.184   1.640   1.144  0.0969  0.0764  0.0915
18023TIP3    H175484   6.108   1.635   1.086 -1.4454  1.5510  1.8437
18023TIP3    H275485   6.259   1.650   1.085 -1.2328  0.1746 -1.6635
18024TIP3   OH275486   2.874   0.614   1.493  0.0130 -0.1351  0.0702
18024TIP3    H175487   2.919   0.695   1.515  1.1173 -0.7101 -0.0040
18024TIP3    H275488   2.862   0.568   1.576  1.2702 -0.8272 -0.1033
18025TIP3   OH275489   4.501   1.817  13.754 -0.6659 -0.0940 -0.0213
18025TIP3    H175490   4.553   1.749  13.711 -1.1355 -0.2401 -0.3637
18025TIP3    H275491   4.448   1.770  13.817 -0.6336  0.0163  0.0887
18026TIP3   OH275492   0.875   5.209  11.032  0.2509 -0.2392  0.2514
18026TIP3    H175493   0.792   5.180  11.070  0.4676 -0.9973  0.1676
18026TIP3    H275494   0.942   5.179  11.093  0.6098 -1.5214 -0.7186
18027TIP3   OH275495   0.105   3.521  16.024 -0.1618  0.5013  0.2141
18027TIP3    H175496   0.132   3.436  15.989  2.3170  1.2514  0.1382
18027TIP3    H275497   0.039   3.500  16.090  0.1451 -1.4571 -0.0521
18028TIP3   OH275498   1.091   1.366  13.813 -0.4331  0.0428 -0.1811
18028TIP3    H175499   1.172   1.333  13.775 -0.7888  2.0710 -3.0500
18028TIP3    H275500   1.028   1.294  13.802  0.8789 -1.6452  2.3168
18029TIP3   OH275501   1.694   1.967   1.295 -0.7212 -1.1675 -0.0783
18029TIP3    H175502   1.780   1.974   1.253 -1.1938 -2.8964 -1.4706
18029TIP3    H275503   1.633   1.956   1.222 -1.9249 -1.5839  0.9644
18030TIP3   OH275504   0.870   4.098   4.975 -0.0986  0.6815 -0.5234
18030TIP3    H175505   0.797   4.115   5.036 -0.2070 -0.5797 -0.2733
18030TIP3    H275506   0.937   4.057   5.029 -0.4831 -1.1411 -1.3648
18031TIP3   OH275507   5.426   4.143  12.315 -0.0535 -0.4222 -0.3779
18031TIP3    H175508   5.455   4.125  12.225  0.5699 -1.5804  0.0273
18031TIP3    H275509   5.490   4.206  12.349  1.2262 -1.8629  0.0327
18032TIP3   OH275510   2.312   1.842   0.732  0.0357 -0.4798  0.2186
18032TIP3    H175511   2.309   1.897   0.653 -3.2303  0.9025  1.1323
18032TIP3    H275512   2.252   1.770   0.713  0.9151 -1.3481  0.6662
18033TIP3   OH275513   1.268   3.385  17.166 -0.4302 -0.0070 -1.1316
18033TIP3    H175514   1.195   3.388  17.105 -1.3765 -0.8883 -0.0867
18033TIP3    H275515   1.227   3.373  17.252  0.9839 -2.0899 -0.6873
18034TIP3   OH275516   2.380   2.080   0.210 -0.2641  0.1040  0.1870
18034TIP3    H175517   2.471   2.100   0.192 -0.4376  1.5445  0.8267
18034TIP3    H275518   2.332   2.116   0.135 -0.4699  1.0882  0.7778
18035TIP3   OH275519   1.783   5.234  10.723 -0.0260  0.1664  0.2396
18035TIP3    H175520   1.874   5.206  10.734  0.2512  0.3761 -1.1949
18035TIP3    H275521   1.778   5.318  10.770  1.1748  1.2657 -1.4510
18036TIP3   OH275522   1.735   2.527  17.114 -0.1289 -0.0115 -0.3731
18036TIP3    H175523   1.729   2.570  17.028 -2.0898 -0.0354 -0.2989
18036TIP3    H275524   1.807   2.571  17.158 -0.2783  1.2797 -1.3596
18037TIP3   OH275525   5.267   4.701   0.984 -0.2671 -0.5941 -0.5239
18037TIP3    H175526   5.360   4.723   0.976  0.0409 -1.0209  1.5429
18037TIP3    H275527   5.222   4.785   0.978  0.2879 -0.3090 -0.7942
18038TIP3   OH275528   1.394   3.147  10.636  0.7051 -0.5464  0.1245
18038TIP3    H175529   1.383   3.052  10.625  2.0313 -1.0333  2.3852
18038TIP3    H275530   1.330   3.185  10.576 -1.4755 -2.9004  0.7521
18039TIP3   OH275531   0.289   5.697   5.279  0.0245 -0.1648  0.0285
18039TIP3    H175532   0.198   5.710   5.252  0.7007  0.8443 -1.9198
18039TIP3    H275533   0.337   5.688   5.197  2.0669  1.9650  0.9023
18040TIP3   OH275534   3.363   6.282   1.870  0.0936 -0.0776 -0.4283
18040TIP3    H175535   3.337   6.320   1.786 -0.0052 -0.7015 -0.6869
18040TIP3    H275536   3.434   6.222   1.848 -0.2914 -0.6410 -0.1432
18041TIP3   OH275537   4.233   4.121  15.528 -0.1421 -0.3416 -0.6391
18041TIP3    H175538   4.174   4.148  15.457 -1.7281 -1.5346  0.1430
18041TIP3    H275539   4.188   4.046  15.569  0.0845  1.0098  2.3558
18042TIP3   OH275540   2.906   0.133   5.375  0.1084 -0.6413 -0.0999
18042TIP3    H175541   2.875   0.114   5.286 -0.2222 -1.4757  0.1853
18042TIP3    H275542   2.973   0.067   5.391 -0.0952 -0.7214  0.4133
18043TIP3   OH275543   6.233   4.908  15.492  0.6424  0.0932  0.1693
18043TIP3    H175544   6.269   4.877  15.409  0.8446 -0.3264  0.4063
18043TIP3    H275545   6.217   4.828  15.542 -2.3030  0.1318 -0.5695
18044TIP3   OH275546   5.432   0.702   4.550 -0.2780  0.2261  0.5283
18044TIP3    H175547   5.386   0.696   4.466  0.9831 -1.3948 -0.1014
18044TIP3    H275548   5.473   0.617   4.561  0.9589  0.9575  1.9977
18045TIP3   OH275549   3.371   3.169  12.914 -0.3521  0.1799  0.1208
18045TIP3    H175550   3.345   3.254  12.950 -0.6124 -0.7912  2.4495
18045TIP3    H275551   3.457   3.183  12.876 -0.2197  1.4065  0.8417
18046TIP3   OH275552   6.696   2.220  16.884 -0.1836 -0.3213  0.2677
18046TIP3    H175553   6.736   2.173  16.957  0.6207 -0.0984 -0.0216
18046TIP3    H275554   6.768   2.236  16.823 -0.9579 -1.1075 -0.9102
18047TIP3   OH275555   2.117   3.000   3.572 -0.5441 -0.5110 -0.3544
18047TIP3    H175556   2.203   3.030   3.544 -0.5495  1.3216  1.3329
18047TIP3    H275557   2.059   3.020   3.499  0.2932 -0.9573 -1.1584
18048TIP3   OH275558   3.218   0.341   1.800  0.5851 -0.1829  0.7656
18048TIP3    H175559   3.150   0.371   1.739  1.3103 -0.9984 -0.4916
18048TIP3    H275560   3.170   0.306   1.875 -0.4371 -1.3845 -0.3938
18049TIP3   OH275561   2.082   4.452   2.483 -0.0205 -0.3506 -0.2696
18049TIP3    H175562   2.023   4.486   2.416 -0.9342 -0.0504  0.6638
18049TIP3    H275563   2.043   4.369   2.511 -2.2065  1.5392  2.9992
18050TIP3   OH275564   3.861   3.382  11.808 -0.1036 -0.2252 -0.3354
18050TIP3    H175565   3.869   3.353  11.717  3.4681  1.0668 -0.6081
18050TIP3    H275566   3.947   3.365  11.846 -1.6240 -1.2196  3.0422
18051TIP3   OH275567   3.070   2.613  12.868 -0.3356 -0.5312 -0.2562
18051TIP3    H175568   3.144   2.673  12.856 -2.5329  2.5307  0.4499
18051TIP3    H275569   3.111   2.531  12.897  2.7298  1.3376  1.2276
18052TIP3   OH275570   5.059   4.073   6.141  0.1530 -0.0186  0.2894
18052TIP3    H175571   5.087   4.003   6.200 -0.8892 -0.9069 -0.2305
18052TIP3    H275572   5.082   4.042   6.053  0.5166  0.7053  0.1200
18053TIP3   OH275573   0.912   4.934  12.421  0.0712  0.0232  0.0884
18053TIP3    H175574   0.968   4.994  12.470 -1.1683  0.8654  0.5189
18053TIP3    H275575   0.823   4.959  12.445 -0.5399 -0.3453 -1.6554
18054TIP3   OH275576   6.562   0.810  12.355 -0.1521 -0.0335 -0.5942
18054TIP3    H175577   6.527   0.736  12.406 -1.8460  1.6306  0.7820
18054TIP3    H275578   6.651   0.821  12.387  0.0892 -1.3668 -0.7325
18055TIP3   OH275579   2.470   3.223  12.718  0.0857  0.3688  0.1281
18055TIP3    H175580   2.462   3.298  12.778  1.6747  0.7628 -0.1144
18055TIP3    H275581   2.424   3.251  12.639  3.0216  2.3728 -1.0720
18056TIP3   OH275582   1.607   2.123  14.669  0.0020 -0.0594  0.3238
18056TIP3    H175583   1.659   2.110  14.748  0.0404 -1.0604  0.1559
18056TIP3    H275584   1.664   2.171  14.610  0.2884 -0.0645  0.5930
18057TIP3   OH275585   2.787   5.146  12.422  0.0102  0.0735  0.1113
18057TIP3    H175586   2.800   5.164  12.515 -1.8786  0.9621  0.2633
18057TIP3    H275587   2.768   5.231  12.383 -0.2476 -0.4200 -0.8871
18058TIP3   OH275588   2.561   4.036  14.156  0.3674 -0.9384  0.4700
18058TIP3    H175589   2.558   4.034  14.060  0.7828 -0.8658  0.4536
18058TIP3    H275590   2.644   3.993  14.178  0.2067 -1.0842  0.8041
18059TIP3   OH275591   6.258   4.739   4.959  0.4549 -0.3192  0.2034
18059TIP3    H175592   6.292   4.731   5.048 -0.2988  0.8433  0.6283
18059TIP3    H275593   6.334   4.724   4.902  0.9786 -0.8995  1.0437
18060TIP3   OH275594   3.921   5.562   1.462  0.1448 -0.7620  0.3213
18060TIP3    H175595   3.855   5.566   1.532  0.2438  1.6994  0.3485
18060TIP3    H275596   3.912   5.474   1.426 -1.7172 -1.2005  1.7119
18061TIP3   OH275597   3.501   4.818   5.299  0.3995 -0.3612  0.1383
18061TIP3    H175598   3.482   4.726   5.278 -0.6340 -0.0499 -0.3596
18061TIP3    H275599   3.427   4.846   5.353 -1.2341  1.1787 -2.6912
18062TIP3   OH275600   3.775   1.153   1.382 -0.2821  0.2450  0.1750
18062TIP3    H175601   3.771   1.233   1.435  0.9267 -0.6641  1.7519
18062TIP3    H275602   3.782   1.083   1.447  1.7153 -0.9102 -1.1869
18063TIP3   OH275603   0.024   2.579   0.179 -0.1752  0.2805  0.0976
18063TIP3    H175604   0.074   2.636   0.121 -0.6915 -0.3757 -1.0343
18063TIP3    H275605   0.072   2.496   0.179  0.3792  0.5771  1.4524
18064TIP3   OH275606   3.773   5.436  10.290  0.3481 -0.3548  0.2427
18064TIP3    H175607   3.780   5.343  10.310  0.8662 -0.7753 -1.6551
18064TIP3    H275608   3.842   5.477  10.342 -0.6932 -0.8082  2.0785
18065TIP3   OH275609   1.652   0.298  12.584 -0.3511 -0.5517  0.3182
18065TIP3    H175610   1.712   0.311  12.657 -1.6271 -0.6589  1.4238
18065TIP3    H275611   1.638   0.203  12.581  0.9488 -0.7385 -1.1398
18066TIP3   OH275612   3.259   1.499  15.165 -0.1333 -0.1300  0.0675
18066TIP3    H175613   3.181   1.481  15.217  0.7510 -0.1947  1.4052
18066TIP3    H275614   3.332   1.479  15.223  0.8912  1.8564 -0.4529
18067TIP3   OH275615   2.562   1.329   0.711  0.0633  0.1927 -0.0072
18067TIP3    H175616   2.506   1.340   0.788  0.9157  0.4682  0.5910
18067TIP3    H275617   2.556   1.413   0.665  2.3172  1.3939  1.6766
18068TIP3   OH275618   3.972   2.104  14.241  0.3925  1.0010 -0.5246
18068TIP3    H175619   3.937   2.016  14.247 -2.0564  2.0097  3.0956
18068TIP3    H275620   4.043   2.106  14.305  0.9626  1.4647 -1.1605
18069TIP3   OH275621   5.970   3.936   4.439  0.1442  0.3421 -0.4192
18069TIP3    H175622   5.900   3.983   4.484 -1.1686 -1.4545 -0.4804
18069TIP3    H275623   5.946   3.942   4.346 -0.1057 -0.4767 -0.4215
18070TIP3   OH275624   1.656   4.932   1.891 -0.0494  0.0528  0.7609
18070TIP3    H175625   1.658   4.836   1.901  1.1750 -0.0919 -0.5200
18070TIP3    H275626   1.689   4.966   1.974 -0.6085 -0.6276  1.2750
18071TIP3   OH275627   5.601   3.207   1.880  0.6518  0.0100 -0.0810
18071TIP3    H175628   5.634   3.198   1.969  0.9163  0.0193 -0.1750
18071TIP3    H275629   5.680   3.221   1.827  0.4800  0.2112 -0.2871
18072TIP3   OH275630   0.122   6.175   2.824 -0.0171 -0.1000 -0.1522
18072TIP3    H175631   0.169   6.221   2.894  0.5849 -0.4004 -0.3490
18072TIP3    H275632   0.067   6.242   2.784 -0.4329  0.0523  0.6593
18073TIP3   OH275633   3.495   2.155   0.903  0.3076  0.1526  0.0357
18073TIP3    H175634   3.439   2.096   0.853 -0.3144 -0.2460  1.1815
18073TIP3    H275635   3.437   2.193   0.969  1.2415  0.2416  0.8176
18074TIP3   OH275636   6.591   4.936   4.156 -0.0773  0.5977 -0.1147
18074TIP3    H175637   6.508   4.981   4.140 -0.8162 -0.1993  1.3041
18074TIP3    H275638   6.631   4.984   4.228 -0.9289 -0.9737  1.4956
18075TIP3   OH275639   0.508   5.265   1.049 -0.0030 -0.3090  0.2090
18075TIP3    H175640   0.415   5.256   1.073  0.4490  2.0474  3.5951
18075TIP3    H275641   0.513   5.349   1.004  0.6686  0.4286  1.6049
18076TIP3   OH275642   1.141   0.994   2.989  0.1158  0.2321  0.5469
18076TIP3    H175643   1.148   0.992   3.085  0.5684  1.3119  0.5527
18076TIP3    H275644   1.189   0.915   2.961  0.0378 -0.0601  1.2036
18077TIP3   OH275645   6.584   6.591  12.981 -0.1303  0.0875 -0.2103
18077TIP3    H175646   6.666   6.579  13.028 -0.8677  1.0937  1.3938
18077TIP3    H275647   6.515   6.577  13.046 -1.3063 -1.2918 -1.6238
18078TIP3   OH275648   5.892   2.050  15.002  0.0644  0.6010 -0.2513
18078TIP3    H175649   5.816   2.108  14.994  0.0390  0.6785  0.4787
18078TIP3    H275650   5.887   1.992  14.926 -1.3472 -0.1163  0.3578
18079TIP3   OH275651   0.494   6.502   4.756  0.4242  0.7531 -0.1949
18079TIP3    H175652   0.550   6.512   4.833  1.6610  1.5566 -1.1609
18079TIP3    H275653   0.474   6.592   4.729 -0.3692  0.4774 -0.5551
18080TIP3   OH275654   4.123   4.083  14.252 -0.5677 -0.5187  0.0876
18080TIP3    H175655   4.034   4.109  14.275  0.5809  1.6513  2.6748
18080TIP3    H275656   4.158   4.046  14.333  1.0335 -0.8964 -0.7315
18081TIP3   OH275657   0.636   6.640   1.912 -0.3698  0.3253  0.3924
18081TIP3    H175658   0.694   6.573   1.875 -0.5912 -0.0628  0.7348
18081TIP3    H275659   0.651   6.718   1.858 -0.0272  0.0315  0.0583
18082TIP3   OH275660   3.784   2.722  15.442 -0.2059  0.7119 -0.3465
18082TIP3    H175661   3.756   2.728  15.351  0.6159 -0.0791 -0.6644
18082TIP3    H275662   3.739   2.794  15.486 -0.4475  1.2269 -1.4170
18083TIP3   OH275663   4.966   6.713   0.891 -0.3389  0.4095 -0.1064
18083TIP3    H175664   4.915   6.638   0.861 -0.0804 -0.3073  1.2003
18083TIP3    H275665   5.055   6.679   0.900  0.2848  1.4768 -1.7080
18084TIP3   OH275666   3.751   6.469  15.040 -0.2971  0.5148  0.1382
18084TIP3    H175667   3.821   6.406  15.057  0.0018  0.1138 -2.1677
18084TIP3    H275668   3.793   6.536  14.985 -1.4955  0.7510 -0.5185
18085TIP3   OH275669   2.681   4.778  11.325  0.2802 -0.5423 -0.2511
18085TIP3    H175670   2.695   4.699  11.378 -1.1202 -0.3603  0.4375
18085TIP3    H275671   2.622   4.832  11.377  2.0363  1.4799 -0.2294
18086TIP3   OH275672   5.334   1.380  11.658  0.0873 -0.0072 -0.1077
18086TIP3    H175673   5.281   1.446  11.613 -1.4571 -0.7707  0.5247
18086TIP3    H275674   5.295   1.296  11.632  1.8023 -0.6779 -0.6260
18087TIP3   OH275675   4.388   2.880  13.151  0.3278  0.1650  0.4719
18087TIP3    H175676   4.316   2.923  13.198  0.0424  0.9617 -0.6713
18087TIP3    H275677   4.457   2.946  13.149  1.0236 -0.5192  1.3653
18088TIP3   OH275678   2.639   5.657   4.564 -0.4760 -0.3275  0.5190
18088TIP3    H175679   2.691   5.659   4.644  2.7764  1.4091 -1.4116
18088TIP3    H275680   2.667   5.576   4.520  0.1502  0.3020 -0.2536
18089TIP3   OH275681   4.025   4.619   5.625 -0.2438  0.0371 -0.0211
18089TIP3    H175682   3.963   4.548   5.641 -1.2942  1.1028  0.8818
18089TIP3    H275683   4.042   4.655   5.712 -0.0423  1.1282 -0.4957
18090TIP3   OH275684   1.154   3.055  10.936 -0.1189  0.4756  0.1186
18090TIP3    H175685   1.083   2.994  10.920  0.1686  0.1715 -0.0149
18090TIP3    H275686   1.224   3.027  10.876  0.4437  0.2196  0.8770
18091TIP3   OH275687   4.088   0.490  11.727 -0.1408  0.4081  0.4187
18091TIP3    H175688   4.139   0.478  11.806  0.3379  0.6638  0.1541
18091TIP3    H275689   4.018   0.425  11.733  1.3327 -1.3360 -0.1452
18092TIP3   OH275690   6.618   2.410   0.575  0.7327  0.0811  0.4965
18092TIP3    H175691   6.554   2.341   0.555  0.9716 -0.5998  1.9757
18092TIP3    H275692   6.684   2.367   0.629  1.9860  0.9995 -0.2329
18093TIP3   OH275693   1.077   2.603  14.440  0.1992 -0.2803 -0.0318
18093TIP3    H175694   1.100   2.686  14.398 -3.0661  1.0763  0.6013
18093TIP3    H275695   1.078   2.622  14.533  0.1795 -1.1883  0.1634
18094TIP3   OH275696   5.444   0.762  13.025 -0.2415  0.2521  0.1828
18094TIP3    H175697   5.386   0.793  12.955 -1.4163  1.5734  1.6586
18094TIP3    H275698   5.387   0.713  13.084  0.9285 -1.7203 -0.2527
18095TIP3   OH275699   3.306   6.587   5.200  0.3953  0.5303 -0.2033
18095TIP3    H175700   3.262   6.522   5.255 -0.0168  0.1032 -1.0137
18095TIP3    H275701   3.264   6.670   5.224 -2.0187 -0.0405 -1.9867
18096TIP3   OH275702   4.680   0.937   0.872 -0.6428  0.3189 -0.1031
18096TIP3    H175703   4.671   0.921   0.778 -1.9398  0.1950  0.0223
18096TIP3    H275704   4.694   0.850   0.910 -2.6239  0.0325  0.0548
18097TIP3   OH275705   0.216   5.508  16.200 -0.6630  0.4103  0.1811
18097TIP3    H175706   0.242   5.582  16.254 -1.8106  0.9694 -0.0032
18097TIP3    H275707   0.120   5.505  16.208 -0.6671 -0.8041 -0.1345
18098TIP3   OH275708   0.722   6.583   3.617 -0.7997  0.2939  0.1548
18098TIP3    H175709   0.687   6.514   3.673  1.2990 -0.0583  1.1239
18098TIP3    H275710   0.736   6.542   3.532  0.8444 -0.6788  0.8404
18099TIP3   OH275711   5.764   3.288  11.873  0.1568 -0.1898 -0.2525
18099TIP3    H175712   5.830   3.227  11.906  0.3204 -0.7333 -1.5162
18099TIP3    H275713   5.778   3.290  11.778 -0.2105  1.4096 -0.3015
18100TIP3   OH275714   1.046   4.812   6.007 -0.4365 -0.5877 -0.0616
18100TIP3    H175715   0.968   4.816   6.063  0.5172 -2.6738  1.5647
18100TIP3    H275716   1.014   4.775   5.924 -1.2836 -0.8771  0.3776
18101TIP3   OH275717   4.876   6.247   6.642  0.4245 -0.5048 -0.0232
18101TIP3    H175718   4.783   6.251   6.620  0.9164 -0.0469 -2.2428
18101TIP3    H275719   4.879   6.259   6.737 -1.6427  1.3169 -0.1271
18102TIP3   OH275720   2.427   2.641  13.246 -0.2823 -0.0609  0.5181
18102TIP3    H175721   2.336   2.617  13.264 -1.4371  3.6067  0.3432
18102TIP3    H275722   2.474   2.619  13.327 -1.5174 -1.0734  0.9874
18103TIP3   OH275723   0.892   3.903   5.637 -0.2991 -0.1211 -0.0676
18103TIP3    H175724   0.805   3.868   5.620  0.5869 -2.0803 -0.9072
18103TIP3    H275725   0.951   3.829   5.621  1.6529  1.5640 -1.0853
18104TIP3   OH275726   4.504   0.290  14.124  0.1825 -0.3198 -0.0323
18104TIP3    H175727   4.585   0.289  14.175 -0.1801 -4.4216  0.7725
18104TIP3    H275728   4.526   0.244  14.043 -0.8693  0.4176 -0.7745
18105TIP3   OH275729   3.040   2.713   4.393 -0.9735  0.3051 -0.7720
18105TIP3    H175730   3.048   2.767   4.315  0.0270  0.7123 -0.4072
18105TIP3    H275731   3.027   2.776   4.464 -1.5021 -0.0389 -0.5585
18106TIP3   OH275732   5.176   4.697   5.089  0.1162  0.2433 -0.4513
18106TIP3    H175733   5.213   4.639   5.156 -2.9071 -0.6836  0.5666
18106TIP3    H275734   5.139   4.770   5.138 -0.7416  0.3560 -1.2311
18107TIP3   OH275735   4.850   4.877   2.021 -0.7250  0.1571  0.2545
18107TIP3    H175736   4.795   4.798   2.015 -0.6248  0.1355 -0.4681
18107TIP3    H275737   4.936   4.844   2.049 -0.1971 -0.2408 -1.6667
18108TIP3   OH275738   1.524   0.602   1.572  0.6307 -0.0283 -0.6944
18108TIP3    H175739   1.564   0.654   1.502  1.4404 -0.5588 -0.6349
18108TIP3    H275740   1.519   0.514   1.537  1.4962 -0.4044  0.0727
18109TIP3   OH275741   4.241   2.104  14.746 -0.0002 -0.0630 -0.0214
18109TIP3    H175742   4.156   2.103  14.788  0.1571 -2.0335  0.3133
18109TIP3    H275743   4.279   2.019  14.765  2.3239  0.9914  0.3693
18110TIP3   OH275744   3.492   2.296  11.496  0.4478  0.0437 -0.2507
18110TIP3    H175745   3.490   2.362  11.427  0.1992  0.0762 -0.2118
18110TIP3    H275746   3.411   2.247  11.485 -0.4734  1.2001  1.1346
18111TIP3   OH275747   3.799   4.858  15.986  0.9557  1.3645  0.3893
18111TIP3    H175748   3.730   4.904  16.035  0.5595  0.7135  0.4573
18111TIP3    H275749   3.815   4.913  15.909  0.0777  1.3244  0.1685
18112TIP3   OH275750   5.462   6.226   5.348  0.1726  0.6218  0.7098
18112TIP3    H175751   5.543   6.219   5.399  0.8919 -2.6182 -0.6458
18112TIP3    H275752   5.491   6.260   5.263  0.3247 -1.3698 -0.0734
18113TIP3   OH275753   0.452   1.214   4.817  0.2799  0.5342 -0.1697
18113TIP3    H175754   0.388   1.144   4.819 -0.4822  1.1741 -1.1951
18113TIP3    H275755   0.464   1.239   4.909  0.5299 -0.8815  0.1997
18114TIP3   OH275756   6.698   6.039   5.147 -0.1348 -0.1840 -0.5509
18114TIP3    H175757   6.624   6.099   5.151  0.3429  0.3865  0.1359
18114TIP3    H275758   6.708   6.008   5.237 -1.2055 -2.3640 -1.1126
18115TIP3   OH275759   0.641   6.296  16.520 -0.4115 -0.3949 -0.3715
18115TIP3    H175760   0.577   6.367  16.513 -1.1436 -1.0655 -0.5664
18115TIP3    H275761   0.590   6.222  16.552  0.0812 -1.1881 -1.3895
18116TIP3   OH275762   1.811   5.417   4.174 -0.4684 -0.1721  0.1106
18116TIP3    H175763   1.800   5.373   4.089 -2.8193  0.1106  0.1946
18116TIP3    H275764   1.736   5.477   4.179  1.1184  1.8358  1.2197
18117TIP3   OH275765   4.387   3.212  15.163 -0.3581  0.5531 -0.1122
18117TIP3    H175766   4.477   3.178  15.171 -0.7724 -0.7106 -0.6736
18117TIP3    H275767   4.369   3.251  15.249 -0.0072 -1.0567  0.7333
18118TIP3   OH275768   4.681   3.137  12.256 -0.6335 -0.3702 -0.4381
18118TIP3    H175769   4.649   3.099  12.337  1.9714  0.2119  0.9693
18118TIP3    H275770   4.754   3.081  12.230  0.7377  1.3425 -0.4701
18119TIP3   OH275771   1.317   3.763   0.318  0.2933 -0.0722  0.3588
18119TIP3    H175772   1.255   3.834   0.335  0.7422  0.9811 -1.9447
18119TIP3    H275773   1.269   3.683   0.341 -1.9059  0.7157 -1.1071
18120TIP3   OH275774   0.340   4.246   1.317  0.2290 -0.8679 -0.0753
18120TIP3    H175775   0.404   4.260   1.247 -0.9135  0.3032 -0.9314
18120TIP3    H275776   0.353   4.319   1.377 -1.7651  0.7333 -1.4507
18121TIP3   OH275777   1.562   5.202  17.023 -0.5088 -0.4613  0.2849
18121TIP3    H175778   1.604   5.274  17.069 -2.1820 -1.1063  3.0399
18121TIP3    H275779   1.471   5.228  17.014 -0.2494 -0.2520 -3.1121
18122TIP3   OH275780   4.472   5.485  13.400  0.9649  0.3869 -0.3485
18122TIP3    H175781   4.518   5.543  13.461 -0.4597  0.6505  0.5256
18122TIP3    H275782   4.470   5.400  13.445 -0.0376  0.5669 -0.0165
18123TIP3   OH275783   3.156   6.194  13.810 -0.1943  0.4806  0.7565
18123TIP3    H175784   3.098   6.220  13.881  0.8837  1.5991  1.2658
18123TIP3    H275785   3.154   6.268  13.749  0.2866  0.3153  0.5310
18124TIP3   OH275786   3.420   1.816   6.555 -0.2972 -0.3405  0.0459
18124TIP3    H175787   3.370   1.738   6.579 -0.2525 -0.1475  0.8233
18124TIP3    H275788   3.354   1.881   6.534 -0.3484 -0.4309 -0.0729
18125TIP3   OH275789   6.721   4.725  17.326  0.7728 -0.4540  0.6238
18125TIP3    H175790   6.695   4.786  17.258 -1.0527  0.4019  2.0175
18125TIP3    H275791   6.814   4.709  17.310  0.8423  1.2284 -0.8759
18126TIP3   OH275792   1.674   4.790  13.711  0.2228  0.1174 -0.3070
18126TIP3    H175793   1.601   4.771  13.652  0.6919 -0.5350 -0.6936
18126TIP3    H275794   1.636   4.786  13.799  0.0888 -1.7682 -0.4074
18127TIP3   OH275795   5.921   0.274   1.629 -0.2079  0.3344 -0.4753
18127TIP3    H175796   5.995   0.227   1.667  0.3680  1.3152 -0.3483
18127TIP3    H275797   5.850   0.261   1.692 -0.4376 -1.3716 -1.0345
18128TIP3   OH275798   3.521   4.226  15.881 -0.8198 -0.4285 -0.3660
18128TIP3    H175799   3.541   4.262  15.967 -2.0006 -1.9952  0.6094
18128TIP3    H275800   3.605   4.194  15.848  0.0535  2.0275 -0.7781
18129TIP3   OH275801   2.897   2.435  16.509 -0.3811 -0.2157 -0.4969
18129TIP3    H175802   2.985   2.465  16.488 -0.8978  1.3141 -0.6051
18129TIP3    H275803   2.898   2.420  16.604 -0.1819  0.4889 -0.3808
18130TIP3   OH275804   0.596   0.362  11.787  0.3417 -0.1852 -0.0995
18130TIP3    H175805   0.568   0.316  11.707  2.0702  0.3399 -1.0592
18130TIP3    H275806   0.691   0.369  11.778  0.7408 -1.1803  2.6157
18131TIP3   OH275807   2.316   3.884   2.398  0.1015 -0.2260 -0.3305
18131TIP3    H175808   2.358   3.959   2.440  1.6628  0.3529 -2.7263
18131TIP3    H275809   2.350   3.808   2.445  0.2123  0.4483  0.7134
18132TIP3   OH275810   3.171   3.573   0.527  0.5209 -0.2445 -0.2377
18132TIP3    H175811   3.081   3.546   0.545  0.8572 -0.8805  0.5735
18132TIP3    H275812   3.223   3.493   0.539  1.3420  0.3895  0.5870
18133TIP3   OH275813   6.361   3.110  11.978 -0.0808  0.0044 -0.0307
18133TIP3    H175814   6.338   3.082  11.890 -0.8873  0.3087  0.0726
18133TIP3    H275815   6.394   3.199  11.968 -1.2474  0.4607  0.1016
18134TIP3   OH275816   0.713   0.263  14.207 -0.0884  0.6943  0.0027
18134TIP3    H175817   0.656   0.312  14.147  0.1606  2.2648  0.9872
18134TIP3    H275818   0.664   0.261  14.290 -1.0085 -2.5457 -0.4728
18135TIP3   OH275819   5.593   0.756   1.118  0.2192  0.4654 -0.5596
18135TIP3    H175820   5.658   0.692   1.148 -0.2500  0.0894 -0.3433
18135TIP3    H275821   5.635   0.799   1.043  0.2912 -0.5223 -1.0993
18136TIP3   OH275822   6.119   0.946   0.734  0.6938  0.5964  0.3207
18136TIP3    H175823   6.151   1.036   0.730 -1.4082  1.6434  3.2231
18136TIP3    H275824   6.029   0.951   0.701  0.6574 -0.4936  0.2247
18137TIP3   OH275825   0.076   3.863  16.009 -0.1404  0.0395  0.4051
18137TIP3    H175826   0.122   3.938  16.047 -0.7107  1.3051 -1.2696
18137TIP3    H275827   0.122   3.846  15.926 -1.3875  0.0053 -0.3113
18138TIP3   OH275828   5.051   2.837   4.719  0.3779  0.3596  0.0217
18138TIP3    H175829   5.026   2.924   4.688 -0.3565  0.7340  1.5603
18138TIP3    H275830   5.056   2.846   4.815  0.9061 -1.1365  0.1620
18139TIP3   OH275831   0.313   6.214   1.930  0.0328  0.4679 -0.1762
18139TIP3    H175832   0.225   6.194   1.961  0.1495  1.6011  0.9616
18139TIP3    H275833   0.367   6.141   1.959 -0.1681  0.7392  0.9091
18140TIP3   OH275834   0.961   2.616   0.180 -0.4485  0.1958 -0.5468
18140TIP3    H175835   0.869   2.637   0.166 -0.6586 -1.3148 -1.8410
18140TIP3    H275836   0.979   2.547   0.116  1.4977  0.2192 -0.0885
18141TIP3   OH275837   2.003   2.649  12.162  0.5947  0.3013 -0.3183
18141TIP3    H175838   2.071   2.696  12.113  0.4938 -0.5686 -1.3052
18141TIP3    H275839   2.048   2.572  12.197  0.0842 -0.3871 -1.1478
18142TIP3   OH275840   4.683   6.079  14.862 -0.7113  0.2938 -0.1590
18142TIP3    H175841   4.685   5.983  14.863 -0.9802  0.2468 -1.5837
18142TIP3    H275842   4.603   6.102  14.908 -0.0914 -0.1134  1.1651
18143TIP3   OH275843   0.792   1.380  16.818 -0.4952 -0.0520 -0.6778
18143TIP3    H175844   0.802   1.473  16.797 -0.0669 -0.1851 -1.0570
18143TIP3    H275845   0.714   1.377  16.875  0.4673  0.7435  0.7496
18144TIP3   OH275846   2.195   2.080  15.397  0.1974  0.0930  0.2997
18144TIP3    H175847   2.197   2.066  15.492 -0.8274 -1.8603  0.0717
18144TIP3    H275848   2.274   2.036  15.365  2.3053  3.4039  0.4525
18145TIP3   OH275849   4.474   1.899   4.187 -0.4496  0.2810 -0.0802
18145TIP3    H175850   4.527   1.957   4.242 -0.2313 -1.0776  1.1891
18145TIP3    H275851   4.412   1.958   4.144 -0.6313  1.4105  1.6194
18146TIP3   OH275852   5.306   2.398   0.176 -0.1958 -0.0697 -0.4380
18146TIP3    H175853   5.220   2.368   0.146 -0.8686  1.0840  0.2498
18146TIP3    H275854   5.310   2.368   0.267 -0.4664  1.0418 -0.0476
18147TIP3   OH275855   5.998   5.150  11.967 -0.1392  0.0850 -0.2306
18147TIP3    H175856   5.917   5.183  11.927 -0.8388 -0.2030  0.9142
18147TIP3    H275857   6.066   5.210  11.936 -0.9061  0.7919 -0.5894
18148TIP3   OH275858   0.095   0.136  11.840 -0.9243 -0.8399  0.1018
18148TIP3    H175859   0.052   0.161  11.922 -1.0195 -0.6695 -0.0007
18148TIP3    H275860   0.150   0.211  11.818 -1.0097 -0.8277 -0.0676
18149TIP3   OH275861   5.374   1.521  14.941 -0.3751  0.9389  0.0810
18149TIP3    H175862   5.402   1.437  14.904  1.6929  2.1087 -1.2224
18149TIP3    H275863   5.377   1.508  15.036 -0.5054 -0.5613 -0.0909
18150TIP3   OH275864   0.057   6.200   3.281  0.2141  0.0719 -0.4716
18150TIP3    H175865  -0.002   6.126   3.294  0.0951  0.2654  0.1188
18150TIP3    H275866   0.139   6.160   3.251  0.1383 -0.2920 -0.2027
18151TIP3   OH275867   5.356   5.395   4.138  0.1967  0.6041 -0.4711
18151TIP3    H175868   5.312   5.382   4.222 -1.1841 -1.3316 -1.4182
18151TIP3    H275869   5.440   5.349   4.147  0.4265  1.1121  0.0828
18152TIP3   OH275870   5.257   6.662   4.516 -0.3067 -1.1132 -0.2691
18152TIP3    H175871   5.330   6.619   4.471 -0.6323 -1.9194 -0.0475
18152TIP3    H275872   5.297   6.709   4.589 -0.0887 -2.2596  0.3695
18153TIP3   OH275873   0.838   5.260  14.523  0.3980  0.0250 -0.1352
18153TIP3    H175874   0.764   5.295  14.573  2.0907  1.8213  1.2847
18153TIP3    H275875   0.803   5.244  14.436 -1.8898 -0.1374  0.7545
18154TIP3   OH275876   0.761   6.159   1.607  0.3514  0.0541 -0.0737
18154TIP3    H175877   0.825   6.095   1.638  0.0716 -1.1633 -1.8396
18154TIP3    H275878   0.761   6.150   1.512 -0.2558  2.1949 -0.3359
18155TIP3   OH275879   3.461   3.269  12.116  0.2426 -0.6852 -0.2361
18155TIP3    H175880   3.528   3.201  12.122  0.4944 -0.4770 -0.7149
18155TIP3    H275881   3.465   3.314  12.200  1.5194  0.1008 -0.7022
18156TIP3   OH275882   4.256   6.209  11.149 -0.4757 -0.5276 -0.5453
18156TIP3    H175883   4.266   6.232  11.057 -2.9856 -1.1222 -1.0320
18156TIP3    H275884   4.239   6.114  11.148  1.8069 -1.0232  0.7626
18157TIP3   OH275885   0.992   4.880  12.160 -0.4775  0.1630  0.0148
18157TIP3    H175886   1.080   4.849  12.180 -0.5059  0.2091  0.2120
18157TIP3    H275887   0.948   4.885  12.245 -1.0449 -1.0023 -0.1889
18158TIP3   OH275888   1.757   2.838   4.346 -0.3614  0.0293 -0.3231
18158TIP3    H175889   1.698   2.903   4.310 -0.5247 -1.6235 -3.3753
18158TIP3    H275890   1.839   2.850   4.298  0.7292  0.0626  1.4208
18159TIP3   OH275891   0.161   6.275   2.289  0.4627 -0.1811  0.6080
18159TIP3    H175892   0.244   6.228   2.295  0.3525 -0.4808 -0.0932
18159TIP3    H275893   0.094   6.209   2.304  0.3315 -0.0714  0.5122
18160TIP3   OH275894   5.588   2.693  10.513  0.6085  0.1357 -0.1408
18160TIP3    H175895   5.618   2.780  10.539  1.2956  0.5629 -2.1696
18160TIP3    H275896   5.642   2.671  10.437 -1.3330 -0.9326 -1.2878
18161TIP3   OH275897   0.372   0.787   4.792 -0.3440  1.2111 -0.3381
18161TIP3    H175898   0.278   0.802   4.788 -0.7072 -0.9084 -0.9844
18161TIP3    H275899   0.384   0.725   4.864  0.3759  0.4715 -1.0577
18162TIP3   OH275900   5.024   6.723  16.297  0.1816  0.0622  0.2730
18162TIP3    H175901   5.077   6.659  16.251 -0.4302  0.6114 -1.2538
18162TIP3    H275902   4.935   6.710  16.265  0.1019  1.9017 -0.3916
18163TIP3   OH275903   3.103   1.389   0.390  0.0797 -0.2559  0.6140
18163TIP3    H175904   3.064   1.476   0.401 -0.2891 -0.2519 -0.6378
18163TIP3    H275905   3.178   1.389   0.450 -0.2440  0.7169  1.0422
18164TIP3   OH275906   1.366   6.640  16.932  0.1753 -0.3545  0.1470
18164TIP3    H175907   1.353   6.546  16.922 -0.7847 -0.2065 -0.0292
18164TIP3    H275908   1.387   6.671  16.843 -1.1285 -0.1577 -0.1021
18165TIP3   OH275909   2.223   1.559  11.501 -0.2007 -0.1874  0.6570
18165TIP3    H175910   2.152   1.526  11.445 -0.6907 -0.2995  1.3376
18165TIP3    H275911   2.299   1.507  11.475 -0.2742  0.1534 -0.3103
18166TIP3   OH275912   4.835   1.071  12.253 -0.7224 -0.2226  0.4291
18166TIP3    H175913   4.758   1.105  12.207 -0.0794  1.6767  0.6414
18166TIP3    H275914   4.832   0.977  12.240 -2.9172 -0.1681  0.1894
18167TIP3   OH275915   6.684   2.590   1.888 -0.1484  0.6756 -0.0426
18167TIP3    H175916   6.751   2.658   1.893 -1.6390  2.3542 -1.4633
18167TIP3    H275917   6.612   2.631   1.839 -1.3101 -1.7817 -0.5231
18168TIP3   OH275918   0.966   0.463   1.439  0.2950  0.2964 -1.2206
18168TIP3    H175919   0.921   0.514   1.506 -0.0994 -0.9648 -0.4773
18168TIP3    H275920   1.013   0.396   1.489 -0.2545 -0.8586 -2.2135
18169TIP3   OH275921   5.347   2.299  15.120  0.2253  0.1538  0.3392
18169TIP3    H175922   5.261   2.279  15.157 -0.8339 -0.2529 -2.1261
18169TIP3    H275923   5.356   2.237  15.047  2.8743 -0.1672  0.8449
18170TIP3   OH275924   1.196   3.602   5.199 -0.8104 -0.2613 -0.1451
18170TIP3    H175925   1.182   3.510   5.176 -1.6826 -0.4709  1.1288
18170TIP3    H275926   1.286   3.605   5.232 -0.7666 -0.6459 -0.2261
18171TIP3   OH275927   5.930   0.618   2.720  0.0797 -0.2365  0.1556
18171TIP3    H175928   5.932   0.582   2.808  1.3559  2.7174  1.4791
18171TIP3    H275929   5.859   0.682   2.722  0.3139  0.0705 -0.8685
18172TIP3   OH275930   6.239   5.020   5.027 -0.5590 -0.3202 -0.1415
18172TIP3    H175931   6.263   5.052   5.113  0.0855  0.6963 -0.6809
18172TIP3    H275932   6.321   4.987   4.989 -0.3957  1.1129 -1.1295
18173TIP3   OH275933   5.304   5.647  16.202  0.0949  0.1247  0.2798
18173TIP3    H175934   5.282   5.683  16.288  1.3994  0.2399  0.5846
18173TIP3    H275935   5.266   5.560  16.201  2.3455 -0.9865  2.0820
18174TIP3   OH275936   6.483   3.258  15.050  0.0929  0.3197 -0.3531
18174TIP3    H175937   6.515   3.283  14.963 -0.7240 -0.3448 -0.8578
18174TIP3    H275938   6.405   3.310  15.063 -0.3017 -0.2470 -0.4155
18175TIP3   OH275939   3.841   0.631  11.384  0.6667  0.2568  0.3379
18175TIP3    H175940   3.849   0.725  11.368  1.5596  0.2151  0.4691
18175TIP3    H275941   3.793   0.598  11.308  3.0318  0.3674 -1.3403
18176TIP3   OH275942   1.347   2.030   0.634 -0.2535 -0.2139 -0.9488
18176TIP3    H175943   1.344   1.970   0.559  1.8859 -1.1939 -0.3353
18176TIP3    H275944   1.336   2.117   0.596 -3.0831 -0.8840 -1.9100
18177TIP3   OH275945   4.084   5.251  15.758  0.3019  0.2168 -0.5768
18177TIP3    H175946   4.107   5.159  15.751 -0.3598  0.0365 -0.4687
18177TIP3    H275947   4.168   5.297  15.762  0.7272 -0.6211  2.8764
18178TIP3   OH275948   2.769   4.489   2.026  0.4862 -0.3972 -0.0937
18178TIP3    H175949   2.814   4.405   2.015 -0.3036 -0.8866  0.3727
18178TIP3    H275950   2.839   4.550   2.051  1.1797 -0.7443 -1.0952
18179TIP3   OH275951   5.695   4.850  12.441  0.1113 -0.0923 -0.4757
18179TIP3    H175952   5.755   4.916  12.406  2.7095 -1.4646  1.0605
18179TIP3    H275953   5.637   4.899  12.499  2.4009  0.8834  1.1680
18180TIP3   OH275954   6.012   4.873  17.055  0.3169  0.1758 -0.1650
18180TIP3    H175955   5.944   4.940  17.052  0.6748  0.5210 -0.6603
18180TIP3    H275956   6.094   4.921  17.045  0.5789 -0.3314 -0.4724
18181TIP3   OH275957   0.792   4.396   6.412  0.0870 -0.1166  0.3578
18181TIP3    H175958   0.704   4.429   6.432  0.7491  1.0367  1.5631
18181TIP3    H275959   0.796   4.310   6.452 -1.1090 -1.0105 -1.3498
18182TIP3   OH275960   2.324   0.631   6.325 -0.0079  0.1719 -0.3396
18182TIP3    H175961   2.371   0.668   6.400 -1.3510 -0.2998  0.7610
18182TIP3    H275962   2.373   0.663   6.249  0.5213  1.8754  0.6635
18183TIP3   OH275963   5.639   5.498   1.922  0.1973  0.4904 -0.0703
18183TIP3    H175964   5.598   5.421   1.962  1.9060 -0.9916 -1.0448
18183TIP3    H275965   5.715   5.516   1.978  0.6757  0.5120 -0.7261
18184TIP3   OH275966   2.122   5.241  15.706  0.0409 -0.3070  0.1449
18184TIP3    H175967   2.177   5.163  15.703  0.4352 -0.0130 -0.8339
18184TIP3    H275968   2.050   5.218  15.765  0.9555 -0.8641  1.0804
18185TIP3   OH275969   3.954   4.434  10.720  0.3987  0.3420 -0.0461
18185TIP3    H175970   3.959   4.523  10.754 -0.1492  1.7453 -3.2994
18185TIP3    H275971   3.869   4.402  10.748  1.3657 -0.0342  2.8291
18186TIP3   OH275972   4.061   3.832  16.573 -0.1003 -0.2013  0.0076
18186TIP3    H175973   3.973   3.864  16.553 -1.1092 -2.7555  0.0104
18186TIP3    H275974   4.078   3.765  16.507  1.8484  0.2039  0.0505
18187TIP3   OH275975   6.065   3.100  16.359 -0.9345  0.5910 -0.2089
18187TIP3    H175976   5.971   3.097  16.339 -0.9924 -0.3819  0.1869
18187TIP3    H275977   6.092   3.009  16.364  0.0840  0.8672 -0.5047
18188TIP3   OH275978   2.174   5.663   0.838 -0.5851  0.0596 -0.0898
18188TIP3    H175979   2.085   5.692   0.814 -1.5530 -1.5565  1.3646
18188TIP3    H275980   2.207   5.733   0.895 -2.1296 -0.6655  1.7952
18189TIP3   OH275981   0.838   3.987  12.107  0.0004  0.0496 -0.3842
18189TIP3    H175982   0.865   4.064  12.057  0.6973  0.9794  1.3462
18189TIP3    H275983   0.917   3.961  12.154 -0.9227 -0.0563  1.1631
18190TIP3   OH275984   2.052   3.739  16.447  0.6432  0.3531  0.5467
18190TIP3    H175985   2.024   3.721  16.537  2.5187  0.3560  1.1912
18190TIP3    H275986   1.975   3.722  16.394  0.2759 -2.6975  1.8256
18191TIP3   OH275987   1.708   5.660  15.469  0.7040  0.2748  0.5931
18191TIP3    H175988   1.752   5.582  15.502 -0.3977  0.0034  1.4771
18191TIP3    H275989   1.616   5.648  15.492  0.2377  1.0923 -0.7050
18192TIP3   OH275990   3.019   2.742   3.877 -0.0708 -0.1270  0.2405
18192TIP3    H175991   2.925   2.724   3.884 -0.6629  2.6749  0.7215
18192TIP3    H275992   3.024   2.828   3.834  2.1038  1.2117  2.8544
18193TIP3   OH275993   6.681   5.022   5.072  0.1603  0.4742  0.0311
18193TIP3    H175994   6.704   5.103   5.118 -1.4163  1.0220 -0.0422
18193TIP3    H275995   6.685   4.954   5.139 -0.0023  0.8885  0.4719
18194TIP3   OH275996   2.639   5.429  14.406  0.3121  0.5292 -0.2750
18194TIP3    H175997   2.636   5.525  14.408  4.1777  0.8021  2.2105
18194TIP3    H275998   2.708   5.408  14.343 -1.1791 -0.8055 -1.5851
18195TIP3   OH275999   4.829   1.780   4.288  0.1056 -0.0705  0.3865
18195TIP3    H176000   4.857   1.767   4.198  0.7882 -0.8318  0.6984
18195TIP3    H276001   4.747   1.732   4.296 -0.8379  1.3740 -0.2687
18196TIP3   OH276002   6.200   5.704  14.456 -0.0005 -0.1866  0.6146
18196TIP3    H176003   6.216   5.757  14.535 -1.1999  1.3066 -0.0984
18196TIP3    H276004   6.287   5.674  14.430  0.3053 -2.0535  3.3538
18197TIP3   OH276005   6.321   4.452  14.220 -0.0790  0.1820  0.4987
18197TIP3    H176006   6.390   4.445  14.286  1.3922  1.8787 -0.7484
18197TIP3    H276007   6.350   4.393  14.150 -0.3378  0.2409  0.3423
18198TIP3   OH276008   4.376   4.538  13.539 -0.0638  0.1473  0.6212
18198TIP3    H176009   4.340   4.519  13.452  0.1925  2.1151  0.0332
18198TIP3    H276010   4.354   4.630  13.554  0.1462 -0.0806  2.5380
18199TIP3   OH276011   1.318   1.852  11.265  0.4350 -0.3394 -0.7007
18199TIP3    H176012   1.335   1.769  11.311 -0.0759 -0.4759 -0.7507
18199TIP3    H276013   1.275   1.826  11.184  1.1454 -0.0802 -1.1610
18200TIP3   OH276014   3.720   5.463   2.712 -0.4713 -0.4481  0.2651
18200TIP3    H176015   3.748   5.400   2.645  1.3395  0.5271  0.0367
18200TIP3    H276016   3.802   5.498   2.747 -1.3785 -0.5648  2.6768
18201TIP3   OH276017   5.772   2.632  14.866 -0.4887 -0.0089 -0.0476
18201TIP3    H176018   5.741   2.612  14.778  0.7651  1.0417 -0.7598
18201TIP3    H276019   5.834   2.562  14.887 -0.4874 -0.0406 -0.1589
18202TIP3   OH276020   2.633   3.020   6.085  0.3216  0.3060  0.3793
18202TIP3    H176021   2.644   3.021   6.180 -1.8763 -0.3830  0.6896
18202TIP3    H276022   2.573   3.092   6.067  0.0960 -0.0640 -0.3761
18203TIP3   OH276023   2.101   3.339   1.966 -0.0550 -0.0119  0.2959
18203TIP3    H176024   2.177   3.324   1.909  0.2642 -0.3422  0.8086
18203TIP3    H276025   2.026   3.317   1.911  0.2786 -0.9470  0.1960
18204TIP3   OH276026   3.286   2.609  14.956  0.2807  0.1299  0.6842
18204TIP3    H176027   3.267   2.602  14.862  1.9941 -0.6175  0.3499
18204TIP3    H276028   3.283   2.519  14.988  3.2740 -0.1163  0.5264
18205TIP3   OH276029   3.595   5.163   0.742  0.1077 -0.1782  0.4899
18205TIP3    H176030   3.578   5.174   0.835  2.7687 -0.9380  1.1380
18205TIP3    H276031   3.576   5.249   0.704 -1.5411 -0.0049  1.5838
18206TIP3   OH276032   4.758   1.297  16.150 -0.1419 -0.1883  0.3327
18206TIP3    H176033   4.787   1.222  16.202  0.4411 -0.2039  0.0036
18206TIP3    H276034   4.663   1.298  16.158 -0.0299  0.2838  2.0438
18207TIP3   OH276035   0.361   3.923   0.723  0.2758  0.6493  0.2640
18207TIP3    H176036   0.354   3.840   0.772 -2.0189  1.0375  0.7221
18207TIP3    H276037   0.393   3.897   0.637  0.6482 -0.5607  0.7333
18208TIP3   OH276038   3.357   1.807   2.423 -0.3040  0.0612 -0.0973
18208TIP3    H176039   3.448   1.826   2.442 -0.2539  1.0650 -1.2149
18208TIP3    H276040   3.311   1.824   2.505  0.4911 -0.3624  0.4465
18209TIP3   OH276041   0.824   4.520   3.316 -0.8081 -0.2593 -0.3101
18209TIP3    H176042   0.804   4.576   3.391 -1.2519  1.0093 -1.3461
18209TIP3    H276043   0.741   4.478   3.295 -0.8898  0.0511 -0.6172
18210TIP3   OH276044   5.383   2.940   2.551 -0.0708  0.4353 -0.3442
18210TIP3    H176045   5.326   3.015   2.565 -0.1017  0.0779  1.8695
18210TIP3    H276046   5.364   2.882   2.625  1.2816 -0.8796 -0.9855
18211TIP3   OH276047   3.450   3.780  13.633 -0.1700 -0.1863 -0.1214
18211TIP3    H176048   3.403   3.847  13.585  0.4267 -0.4666 -1.1193
18211TIP3    H276049   3.415   3.785  13.722 -0.5231  1.0591 -0.3142
18212TIP3   OH276050   4.798   6.348   0.171  0.1183  0.2232  0.4905
18212TIP3    H176051   4.844   6.385   0.096  0.4582 -0.6408  0.2658
18212TIP3    H276052   4.828   6.257   0.175 -1.5485 -0.3575  0.3545
18213TIP3   OH276053   0.629   4.932  15.632  0.1221  0.5303 -0.1254
18213TIP3    H176054   0.586   5.016  15.644 -0.2073  0.2978  0.3364
18213TIP3    H276055   0.612   4.884  15.713  0.2263 -0.0152 -0.4198
18214TIP3   OH276056   4.269   5.445  12.996  0.1656 -0.3084  0.8715
18214TIP3    H176057   4.192   5.471  13.047 -0.0548  1.7355 -0.3961
18214TIP3    H276058   4.250   5.356  12.968 -1.4330 -0.0891  1.1627
18215TIP3   OH276059   6.207   5.355  14.391  0.2265 -0.3057  0.1199
18215TIP3    H176060   6.236   5.446  14.385  0.7002 -0.3514  1.4087
18215TIP3    H276061   6.120   5.361  14.432 -0.7343 -0.3119 -1.8165
18216TIP3   OH276062   1.668   2.383  10.268  0.1900  0.0610 -0.3216
18216TIP3    H176063   1.743   2.324  10.258  0.2845 -0.1903  1.5520
18216TIP3    H276064   1.676   2.417  10.357 -0.7449  1.7014 -0.8272
18217TIP3   OH276065   3.728   4.007  16.253 -0.0950 -0.4177 -0.1625
18217TIP3    H176066   3.732   4.082  16.194  0.2003  0.6527  1.1900
18217TIP3    H276067   3.816   3.998  16.288 -0.4413 -0.5725  0.6916
18218TIP3   OH276068   3.780   3.865  13.535 -0.2050 -0.0445  0.4633
18218TIP3    H176069   3.816   3.809  13.604 -0.7343 -0.9617  0.0162
18218TIP3    H276070   3.693   3.829  13.517 -1.0018  1.5732  0.8831
18219TIP3   OH276071   6.294   2.164  14.170  0.0965  0.6551  0.4580
18219TIP3    H176072   6.359   2.230  14.146  0.3669  0.4352  0.5796
18219TIP3    H276073   6.300   2.158  14.266 -0.8644  1.4166  0.5713
18220TIP3   OH276074   0.555   5.460  16.085  0.1043 -0.0770 -0.4705
18220TIP3    H176075   0.619   5.526  16.059 -0.4438 -0.0377 -1.7897
18220TIP3    H276076   0.543   5.474  16.179 -0.5555  2.1962 -0.8378
18221TIP3   OH276077   4.965   2.522  11.515  0.3771 -0.1198  0.4147
18221TIP3    H176078   4.896   2.583  11.541  1.6690  2.0809 -1.0164
18221TIP3    H276079   4.928   2.474  11.441  0.0044  0.2857  0.3332
18222TIP3   OH276080   6.217   1.018  14.762  0.1106 -0.2937  0.2741
18222TIP3    H176081   6.204   1.095  14.707  1.3998  0.4295  0.9376
18222TIP3    H276082   6.248   0.951  14.701  0.6865  0.2414 -0.0339
18223TIP3   OH276083   1.596   6.232  12.348  0.6180 -0.5449  0.9868
18223TIP3    H176084   1.590   6.298  12.416  1.0037 -1.9917  2.4748
18223TIP3    H276085   1.648   6.274  12.278 -2.5225  2.1361  0.0373
18224TIP3   OH276086   1.197   3.621   3.197  0.0280  0.1080 -0.5988
18224TIP3    H176087   1.224   3.686   3.262 -2.3428  0.2900  0.2887
18224TIP3    H276088   1.111   3.592   3.226  0.6776 -2.9550 -1.3575
18225TIP3   OH276089   2.002   5.803   0.643 -0.4000  0.4793  0.4542
18225TIP3    H176090   2.029   5.876   0.587 -1.6966  0.8684  0.3033
18225TIP3    H276091   1.921   5.771   0.603  1.1354 -2.3954 -0.6795
18226TIP3   OH276092   4.079   1.381  17.033  0.1486 -0.0418  0.1524
18226TIP3    H176093   4.131   1.338  17.101 -0.9019 -1.5973  0.0176
18226TIP3    H276094   3.997   1.404  17.077 -0.4327 -0.8231 -0.5033
18227TIP3   OH276095   4.079   5.851  11.970 -0.0372  0.1728 -0.5266
18227TIP3    H176096   4.055   5.759  11.959  1.0543 -0.1904 -0.0392
18227TIP3    H276097   4.026   5.898  11.905 -1.6710 -0.6129  0.1946
18228TIP3   OH276098   5.457   3.813  11.344 -0.3667  0.6861 -0.0837
18228TIP3    H176099   5.479   3.901  11.374  1.0617  0.5544 -0.6591
18228TIP3    H276100   5.480   3.756  11.417 -0.0960  0.6785 -0.1732
18229TIP3   OH276101   5.165   3.010  14.145  0.2497  0.3530  0.5237
18229TIP3    H176102   5.083   2.963  14.131  0.1664  0.5000  0.5149
18229TIP3    H276103   5.232   2.953  14.108  0.0614  0.6166 -0.2482
18230TIP3   OH276104   2.487   6.742  12.964 -0.7903  0.4095 -0.4453
18230TIP3    H176105   2.490   6.745  12.868  2.1888 -2.7254 -0.6341
18230TIP3    H276106   2.571   6.778  12.992 -0.6693 -0.7744  0.8129
18231TIP3   OH276107   1.117   5.997   3.353  0.0318 -0.1626  0.4407
18231TIP3    H176108   1.080   5.935   3.290  3.8800 -1.0891 -1.2181
18231TIP3    H276109   1.133   5.945   3.432 -1.8122  0.1917  1.0845
18232TIP3   OH276110   4.650   4.864   4.007  0.1336  0.8075  0.3907
18232TIP3    H176111   4.568   4.814   4.011  0.9804 -0.7543 -0.9355
18232TIP3    H276112   4.629   4.938   3.950  0.0897 -0.5472 -1.4117
18233TIP3   OH276113   4.316   5.381  12.572 -0.3170  0.5475  0.0695
18233TIP3    H176114   4.394   5.429  12.601 -1.2772  1.2409  1.5908
18233TIP3    H276115   4.243   5.437  12.597 -1.3592 -0.4934 -0.5675
18234TIP3   OH276116   3.601   0.264  14.362 -0.1505  1.0693 -0.2960
18234TIP3    H176117   3.657   0.222  14.427 -0.0062 -0.2925 -1.2581
18234TIP3    H276118   3.652   0.262  14.281 -1.7055 -0.7067 -1.3252
18235TIP3   OH276119   5.560   2.088  14.901  0.2250  0.2878  0.1747
18235TIP3    H176120   5.578   2.054  14.814  0.8970  2.8445 -0.7679
18235TIP3    H276121   5.483   2.040  14.931 -0.1014 -0.5392 -1.8704
18236TIP3   OH276122   5.610   0.461  14.188 -0.2505 -0.3231  0.4056
18236TIP3    H176123   5.614   0.417  14.103 -0.0442 -0.4164  0.4617
18236TIP3    H276124   5.701   0.484  14.208 -0.2525 -0.5838  0.7432
18237TIP3   OH276125   4.951   4.909   3.028  0.2745 -0.2576 -0.1657
18237TIP3    H176126   4.963   4.885   2.936 -0.9672 -0.2125 -0.3489
18237TIP3    H276127   5.036   4.945   3.054  0.4069  0.4455 -1.4998
18238TIP3   OH276128   5.388   4.399   4.362 -0.3282 -0.2362 -0.0392
18238TIP3    H176129   5.481   4.403   4.387 -0.3896 -0.6735  0.2631
18238TIP3    H276130   5.376   4.311   4.326 -0.6996 -0.2926  0.2199
18239TIP3   OH276131   5.456   6.289   3.251  0.2659  0.2472 -0.0027
18239TIP3    H176132   5.490   6.318   3.336  0.2459  0.2442  0.0063
18239TIP3    H276133   5.498   6.347   3.187 -0.0153  0.5074  0.0406
18240TIP3   OH276134   5.130   1.796  14.489  0.0161  0.1475  0.0871
18240TIP3    H176135   5.097   1.775  14.576  0.0642 -0.2206  0.0204
18240TIP3    H276136   5.201   1.859  14.504 -0.5312  0.7348  0.2464
18241TIP3   OH276137   4.290   3.311  17.257 -0.1750 -0.3489 -0.3723
18241TIP3    H176138   4.344   3.283  17.331  0.9896  1.5176 -0.4535
18241TIP3    H276139   4.281   3.406  17.268  0.9651  0.1684 -3.1742
18242TIP3   OH276140   5.505   2.056  13.025  0.0840 -0.3913  0.2847
18242TIP3    H176141   5.528   2.044  12.933 -0.1973 -0.6352  0.2449
18242TIP3    H276142   5.488   2.149  13.034 -2.7888 -0.7385 -0.6011
18243TIP3   OH276143   1.245   0.320   6.217  0.0009 -0.4233  0.4519
18243TIP3    H176144   1.324   0.295   6.169 -0.5253  0.7685 -1.1108
18243TIP3    H276145   1.278   0.358   6.299  1.0473  0.0246 -0.1597
18244TIP3   OH276146   1.423   2.285   2.695 -0.6575 -0.0037  0.0696
18244TIP3    H176147   1.466   2.276   2.780  0.1325  0.8227 -0.2266
18244TIP3    H276148   1.495   2.303   2.634 -1.4150  1.6227 -0.4066
18245TIP3   OH276149   3.086   6.556  11.822 -0.4345  0.6146  0.2572
18245TIP3    H176150   3.114   6.465  11.805 -1.2789  0.0260  1.8184
18245TIP3    H276151   3.161   6.609  11.794  0.1466 -0.5711 -0.5465
18246TIP3   OH276152   4.398   4.129  12.409 -0.3191 -0.0926  0.3662
18246TIP3    H176153   4.371   4.133  12.501 -0.3777 -0.7640  0.3828
18246TIP3    H276154   4.481   4.082  12.410 -0.1946  0.1166  0.0983
18247TIP3   OH276155   5.889   4.937   1.319 -0.3783  0.0050  0.5614
18247TIP3    H176156   5.971   4.892   1.337 -0.4509  0.7552  3.0469
18247TIP3    H276157   5.898   5.023   1.360 -1.2619  1.3373 -1.7972
18248TIP3   OH276158   1.330   3.807   1.205  0.1814  0.4018 -0.8101
18248TIP3    H176159   1.330   3.767   1.119 -0.3091  1.2381 -1.2133
18248TIP3    H276160   1.250   3.775   1.247  0.7208 -0.4802 -0.4204
18249TIP3   OH276161   0.144   3.965  13.855  0.2436  0.3588  0.0424
18249TIP3    H176162   0.141   3.881  13.808 -0.0759  1.7111 -2.5780
18249TIP3    H276163   0.089   3.951  13.932  0.4880 -1.9338 -0.1293
18250TIP3   OH276164   6.382   5.087  11.771  0.1978 -0.3746  0.1980
18250TIP3    H176165   6.329   5.010  11.753  1.6033 -1.2536 -0.3096
18250TIP3    H276166   6.453   5.084  11.707  1.0096  0.6255  1.0055
18251TIP3   OH276167   0.666   6.550   2.189  0.1195  0.6968  0.4068
18251TIP3    H176168   0.577   6.572   2.217 -0.0253  0.3776  0.2046
18251TIP3    H276169   0.671   6.580   2.098  0.0634  0.2940  0.2679
18252TIP3   OH276170   1.598   5.783   3.748  0.3571 -0.3436  0.0345
18252TIP3    H176171   1.532   5.713   3.752 -0.2637  0.1002 -1.5279
18252TIP3    H276172   1.547   5.863   3.736  1.1293  0.1683  0.1129
18253TIP3   OH276173   1.159   4.583  15.678  0.1250  0.1788  0.0284
18253TIP3    H176174   1.100   4.563  15.606 -0.7544  0.8600  0.5295
18253TIP3    H276175   1.240   4.613  15.636 -0.5895  1.1706 -0.6912
18254TIP3   OH276176   4.929   4.567  13.425  0.2519  0.0129 -0.5490
18254TIP3    H176177   4.964   4.493  13.474 -1.2208 -0.3587  0.0075
18254TIP3    H276178   4.849   4.533  13.384  0.8420  0.6281 -2.3092
18255TIP3   OH276179   0.841   4.303  12.502 -0.0189  0.3542  0.1072
18255TIP3    H176180   0.887   4.249  12.566  0.2643 -0.3928 -0.7153
18255TIP3    H276181   0.756   4.260  12.492 -1.2377  2.0843  2.1096
18256TIP3   OH276182   5.723   4.331   5.640  0.0716 -0.1608 -0.1681
18256TIP3    H176183   5.792   4.295   5.695  0.7602 -0.1376 -1.0103
18256TIP3    H276184   5.674   4.389   5.699  1.4672  0.7224  0.1657
18257TIP3   OH276185   5.488   5.101   4.571 -0.3200  0.4171  0.6271
18257TIP3    H176186   5.477   5.065   4.659 -0.0772  1.4054  1.0736
18257TIP3    H276187   5.401   5.095   4.531  0.0520 -2.3358 -0.0112
18258TIP3   OH276188   3.601   4.980  11.360 -0.0490  0.3514 -0.0181
18258TIP3    H176189   3.648   4.916  11.306  0.2146 -0.4820  1.1615
18258TIP3    H276190   3.670   5.027  11.407 -0.3133  0.1033  0.6379
18259TIP3   OH276191   3.547   2.661   4.298  0.4156  0.5724 -0.1423
18259TIP3    H176192   3.613   2.727   4.282  2.4982 -1.4990 -0.5843
18259TIP3    H276193   3.533   2.663   4.392  0.6482  1.4353 -0.1206
18260TIP3   OH276194   0.391   1.805  14.951  0.7359  0.2826 -0.5744
18260TIP3    H176195   0.436   1.738  14.900  0.2575 -0.5197  0.0178
18260TIP3    H276196   0.301   1.803  14.919 -0.2915 -2.1624  2.0186
18261TIP3   OH276197   6.327   3.638  11.779  0.2905 -0.1673  0.4758
18261TIP3    H176198   6.359   3.687  11.704  1.0105  1.0747  1.5627
18261TIP3    H276199   6.344   3.546  11.758  0.6666  0.1829 -0.7710
18262TIP3   OH276200   0.288   1.051  16.637 -0.1492  0.3727 -0.3004
18262TIP3    H176201   0.356   1.095  16.687 -0.8053  0.9712  0.0896
18262TIP3    H276202   0.240   1.000  16.702  0.3149 -0.5628 -0.6779
18263TIP3   OH276203   4.928   5.050  15.938 -0.0164  0.2506  0.0158
18263TIP3    H176204   4.900   5.081  16.024 -0.0608 -1.0859  0.5046
18263TIP3    H276205   4.935   4.955  15.947  0.4547  0.1268 -1.3233
18264TIP3   OH276206   3.206   6.735  14.172 -0.3707 -0.1007  0.2758
18264TIP3    H176207   3.219   6.661  14.231 -0.1887  0.4481  0.9314
18264TIP3    H276208   3.186   6.809  14.230  0.9940  0.7161 -0.2563
18265TIP3   OH276209   0.897   0.947   0.414 -0.0547 -0.0425 -0.1815
18265TIP3    H176210   0.877   1.041   0.414  0.4949  0.0883 -0.8835
18265TIP3    H276211   0.834   0.909   0.475 -1.5070  0.5360 -1.2246
18266TIP3   OH276212   3.848   4.333  15.240 -0.3886  0.0228  0.2473
18266TIP3    H176213   3.842   4.344  15.145  0.5291  0.3129  0.2125
18266TIP3    H276214   3.855   4.423  15.274 -0.0716 -0.1131  0.5401
18267TIP3   OH276215   4.259   1.415  14.036 -0.2990 -0.0147 -0.0067
18267TIP3    H176216   4.265   1.363  13.956 -0.3186  1.6663 -1.1679
18267TIP3    H276217   4.257   1.351  14.107 -0.2263 -1.5585 -1.3427
18268TIP3   OH276218   5.578   2.628   0.461  0.0168  0.3704  0.0860
18268TIP3    H176219   5.551   2.606   0.550 -0.7416 -1.6978 -0.5999
18268TIP3    H276220   5.498   2.616   0.408  0.4248  1.6470 -0.8784
18269TIP3   OH276221   5.850   2.665  14.033  0.4443  0.1139  0.8202
18269TIP3    H176222   5.879   2.598  14.095  0.8507 -0.7140 -0.2462
18269TIP3    H276223   5.760   2.641  14.013  1.1406 -1.2071 -0.9371
18270TIP3   OH276224   6.725   0.883   2.262 -0.0981 -0.1720 -0.1988
18270TIP3    H176225   6.664   0.896   2.190 -1.3405 -1.7610  0.5076
18270TIP3    H276226   6.784   0.958   2.258 -0.4820  0.0628 -2.4989
18271TIP3   OH276227   6.178   1.250  14.476 -0.0512  0.5604 -0.0728
18271TIP3    H176228   6.128   1.173  14.450  0.5952  0.5865 -1.4970
18271TIP3    H276229   6.113   1.320  14.484 -1.0042 -0.5153  3.4425
18272TIP3   OH276230   4.872   4.288   1.227 -0.1169 -0.2881  0.1148
18272TIP3    H176231   4.814   4.222   1.265 -1.3873  0.7773  0.0821
18272TIP3    H276232   4.880   4.263   1.135 -1.0786 -0.0880 -0.0383
18273TIP3   OH276233   5.336   2.783   3.830  0.1304 -0.5305  0.1322
18273TIP3    H176234   5.426   2.750   3.828  1.0581  1.7959  0.7728
18273TIP3    H276235   5.329   2.839   3.752 -1.8687 -3.1256 -1.7535
18274TIP3   OH276236   3.099   2.038   2.848  0.1464 -0.0582 -0.2301
18274TIP3    H176237   3.049   1.960   2.871 -1.3869  1.4179  1.8494
18274TIP3    H276238   3.040   2.089   2.793  0.9002 -0.0657 -1.0612
18275TIP3   OH276239   6.217   5.866   2.784  0.3053 -0.3767  0.2531
18275TIP3    H176240   6.284   5.816   2.830  0.2818  0.3329  1.0920
18275TIP3    H276241   6.138   5.812   2.789  0.2144 -0.1571  1.3744
18276TIP3   OH276242   4.279   0.197   2.609 -0.7331 -0.6274  0.0969
18276TIP3    H176243   4.311   0.167   2.693 -0.5935 -2.1396 -0.4609
18276TIP3    H276244   4.330   0.276   2.590  1.3518 -1.9176  0.0891
18277TIP3   OH276245   3.041   3.838   3.111 -0.6274 -0.3378  0.3297
18277TIP3    H176246   3.136   3.841   3.115 -0.6403 -0.5100  0.8609
18277TIP3    H276247   3.017   3.903   3.045 -0.1357 -0.4154  0.0738
18278TIP3   OH276248   5.254   3.491  11.515  0.2745 -0.0524  0.0673
18278TIP3    H176249   5.183   3.546  11.548  1.2377  2.2757 -1.4116
18278TIP3    H276250   5.212   3.408  11.493 -1.2288 -0.0716  2.5998
18279TIP3   OH276251   0.661   4.952   2.226 -0.4147 -0.0049 -0.3629
18279TIP3    H176252   0.662   4.990   2.313  1.8852 -0.7069 -0.0100
18279TIP3    H276253   0.586   4.893   2.226 -1.5859  1.4068  0.4457
18280TIP3   OH276254   0.831   1.788  13.560 -0.3415 -0.1627 -0.4341
18280TIP3    H176255   0.844   1.726  13.632 -2.8411 -0.4382 -0.1058
18280TIP3    H276256   0.814   1.871  13.603 -1.3223 -0.2135 -0.7010
18281TIP3   OH276257   3.862   1.232   4.219  0.8206 -0.0703 -0.5772
18281TIP3    H176258   3.955   1.215   4.208  0.3935 -2.6340 -0.9668
18281TIP3    H276259   3.827   1.150   4.256 -1.2637  0.8435 -0.3663
18282TIP3   OH276260   5.468   2.969  13.124  1.1349 -0.6048 -0.3553
18282TIP3    H176261   5.409   2.972  13.048  2.0700 -0.9159 -1.1170
18282TIP3    H276262   5.544   2.920  13.093  2.6231  1.3583 -0.0010
18283TIP3   OH276263   5.918   3.089  16.929  0.1575  0.0306  0.3977
18283TIP3    H176264   5.853   3.110  16.995  0.6878  0.4954  0.7778
18283TIP3    H276265   5.937   2.996  16.943  0.2138  0.1085  0.8555
18284TIP3   OH276266   0.337   5.408  14.574  0.0840  0.0131 -0.0391
18284TIP3    H176267   0.329   5.472  14.645 -1.9018 -1.3250  1.0406
18284TIP3    H276268   0.247   5.380  14.557  0.8110 -1.8884 -1.0453
18285TIP3   OH276269   4.386   4.433  12.805  0.0652 -0.0685  0.0341
18285TIP3    H176270   4.448   4.463  12.872 -0.2111  1.5983 -0.4139
18285TIP3    H276271   4.386   4.503  12.740  0.1758 -1.5580 -1.6344
18286TIP3   OH276272   2.074   4.520  12.993 -0.2909 -0.2208  0.3157
18286TIP3    H176273   2.109   4.586  13.052  1.1887  1.1328 -1.9321
18286TIP3    H276274   2.151   4.471  12.964 -1.1972 -2.0485  0.8270
18287TIP3   OH276275   5.812   2.849   3.597  0.4932  0.2101  0.4686
18287TIP3    H176276   5.906   2.849   3.581  0.1848 -1.2069 -1.7502
18287TIP3    H276277   5.773   2.828   3.512 -1.9880  3.0613  0.7424
18288TIP3   OH276278   1.364   6.066  14.286 -0.3818 -0.9270 -0.2149
18288TIP3    H176279   1.277   6.096  14.311 -0.4665 -1.9869  0.8617
18288TIP3    H276280   1.395   6.016  14.361  0.5043 -1.9260 -1.1999
18289TIP3   OH276281   4.780   3.893   4.093 -0.7465  0.1111  0.4487
18289TIP3    H176282   4.804   3.847   4.013  1.3387  0.6221  0.7195
18289TIP3    H276283   4.729   3.830   4.144 -2.1050 -0.2117 -1.2541
18290TIP3   OH276284   5.366   4.264   0.421  0.3491  0.0774  0.6149
18290TIP3    H176285   5.352   4.182   0.374  0.9956  0.3763 -0.1223
18290TIP3    H276286   5.427   4.313   0.366  0.8526  0.5886  1.5939
18291TIP3   OH276287   3.210   4.950  15.278 -0.1901  0.6060  0.2615
18291TIP3    H176288   3.254   5.023  15.323  0.8135  0.2553 -0.1320
18291TIP3    H276289   3.143   4.921  15.340 -0.3004  1.5636  0.6142
18292TIP3   OH276290   4.112   2.342  16.519 -0.4653 -0.2531  0.2575
18292TIP3    H176291   4.114   2.413  16.584 -0.9427 -0.0074  0.0105
18292TIP3    H276292   4.059   2.377  16.448 -0.5863 -0.8100  0.0734
18293TIP3   OH276293   6.335   6.261  12.735  0.1630  0.1392  0.6767
18293TIP3    H176294   6.297   6.222  12.656 -0.3236  0.7568  0.5959
18293TIP3    H276295   6.374   6.343  12.704  0.0571  0.3325  1.0548
18294TIP3   OH276296   4.473   2.754  16.093  0.3769  0.2813 -0.1047
18294TIP3    H176297   4.529   2.769  16.169  1.7742 -1.4073 -0.7424
18294TIP3    H276298   4.402   2.818  16.103  1.2459  1.0254  1.8716
18295TIP3   OH276299   3.979   3.875   4.141  0.2655  0.3787  0.2173
18295TIP3    H176300   4.063   3.881   4.095  0.4649  1.0139  0.6511
18295TIP3    H276301   3.934   3.802   4.099  1.9812 -1.5543  1.5597
18296TIP3   OH276302   4.872   0.370   6.071  0.2057 -0.4510  0.4059
18296TIP3    H176303   4.955   0.350   6.028 -0.3668 -0.9843 -0.4723
18296TIP3    H276304   4.896   0.430   6.141  1.0440  1.2053 -1.2175
18297TIP3   OH276305   4.222   6.131  14.125  0.3187  0.0417  0.2152
18297TIP3    H176306   4.295   6.185  14.154  3.6761 -2.7929 -2.1055
18297TIP3    H276307   4.220   6.058  14.187 -1.7844  0.8831  1.2322
18298TIP3   OH276308   2.616   0.305  16.092  0.0283  0.0123  0.2224
18298TIP3    H176309   2.532   0.291  16.047 -0.7173  0.2496  1.4797
18298TIP3    H276310   2.595   0.369  16.160  1.1919 -0.1272  0.7191
18299TIP3   OH276311   0.622   3.257   5.870 -0.8120  0.7096  0.6642
18299TIP3    H176312   0.615   3.245   5.775 -0.3298  3.7206  0.1408
18299TIP3    H276313   0.539   3.225   5.904 -1.7041  1.1070 -1.0077
18300TIP3   OH276314   2.174   6.145   3.614 -0.6918 -0.1247 -0.6488
18300TIP3    H176315   2.212   6.078   3.670 -0.1827 -1.4988 -2.5370
18300TIP3    H276316   2.171   6.224   3.669 -0.2666 -1.3788  1.2762
18301TIP3   OH276317   6.335   2.441  17.206 -0.1601 -0.0437  0.1679
18301TIP3    H176318   6.278   2.410  17.277 -0.7962  0.7562  0.0229
18301TIP3    H276319   6.418   2.461  17.249 -0.4399  0.1250  0.6383
18302TIP3   OH276320   3.561   5.221  12.672  0.2119  0.1703  0.2494
18302TIP3    H176321   3.646   5.203  12.632 -0.1272  0.2250 -0.5057
18302TIP3    H276322   3.524   5.134  12.690  0.1353  0.1386 -0.0557
18303TIP3   OH276323   4.244   3.019  13.499  0.0881  0.0745  0.4774
18303TIP3    H176324   4.250   3.008  13.594 -0.0479  1.7209  0.7071
18303TIP3    H276325   4.317   3.077  13.478 -0.6283  0.7231 -0.2367
18304TIP3   OH276326   0.340   0.872  11.778  0.1146  0.3998  0.0314
18304TIP3    H176327   0.299   0.935  11.720  2.1775  0.7353 -1.1355
18304TIP3    H276328   0.393   0.816  11.721 -0.4835 -1.4850  1.2019
18305TIP3   OH276329   6.707   5.705   3.783 -0.1057  0.1096  0.0240
18305TIP3    H176330   6.750   5.647   3.846  1.5468  1.7770  0.4894
18305TIP3    H276331   6.718   5.661   3.699 -0.8085 -1.2906  0.6326
18306TIP3   OH276332   1.414   2.774   4.740 -0.0438 -0.2078  0.8408
18306TIP3    H176333   1.465   2.854   4.728 -1.3826  0.7017  0.9917
18306TIP3    H276334   1.437   2.720   4.665 -0.9087  1.3311 -0.6101
18307TIP3   OH276335   2.017   0.950   0.758  1.0714 -0.0095  0.3392
18307TIP3    H176336   2.093   0.935   0.815 -0.0960 -1.2722  1.6646
18307TIP3    H276337   1.958   0.877   0.778 -1.0315  1.5864  0.2880
18308TIP3   OH276338   3.224   4.530   1.118 -0.4199 -0.0612 -0.4920
18308TIP3    H176339   3.273   4.448   1.113 -0.8243 -0.3498  0.1088
18308TIP3    H276340   3.225   4.553   1.211 -1.1867  0.0700 -0.5077
18309TIP3   OH276341   0.292   1.331   3.853 -0.2506 -0.5494 -0.4066
18309TIP3    H176342   0.295   1.412   3.800  1.0959 -0.8181 -0.7852
18309TIP3    H276343   0.228   1.350   3.921 -0.7248  0.4645 -1.0947
18310TIP3   OH276344   2.619   3.710  15.871  0.6044 -0.2735  0.1235
18310TIP3    H176345   2.547   3.664  15.915  0.0412 -0.1280 -0.6366
18310TIP3    H276346   2.645   3.779  15.933 -1.1702  0.8758 -0.3453
18311TIP3   OH276347   5.614   5.342   0.834  0.0756 -0.1921  0.0424
18311TIP3    H176348   5.615   5.429   0.875  1.0343  0.1553 -0.6760
18311TIP3    H276349   5.521   5.324   0.819 -0.1048  1.0605 -0.5247
18312TIP3   OH276350   2.390   1.708  11.769  0.6319 -0.0291  0.3013
18312TIP3    H176351   2.453   1.754  11.715  1.7995 -0.1990  1.4744
18312TIP3    H276352   2.409   1.615  11.756 -0.8394 -0.1928 -1.0202
18313TIP3   OH276353   0.394   2.661  16.380 -0.4943 -0.7604  0.8195
18313TIP3    H176354   0.389   2.756  16.366 -2.1505 -0.9357 -0.0555
18313TIP3    H276355   0.445   2.651  16.460 -0.0786  0.8557  0.7893
18314TIP3   OH276356   6.484   5.021  17.131 -0.1370 -0.0041 -0.1434
18314TIP3    H176357   6.450   4.945  17.084  0.8372 -1.1518  0.9357
18314TIP3    H276358   6.574   5.030  17.100 -0.7842  1.9118 -1.6575
18315TIP3   OH276359   4.240   3.639   1.285  0.5075  0.1532 -0.8206
18315TIP3    H176360   4.296   3.691   1.343  0.8470 -0.0042 -1.0024
18315TIP3    H276361   4.301   3.600   1.222  0.1187  0.5239 -1.4432
18316TIP3   OH276362   6.728   0.969  13.847  0.0906  0.4461  0.5938
18316TIP3    H176363   6.789   0.933  13.912  0.6976  1.4249  0.5794
18316TIP3    H276364   6.641   0.948  13.883  0.4140 -0.6240  0.8029
18317TIP3   OH276365   1.427   1.523   6.270 -0.6443  0.5851  0.1734
18317TIP3    H176366   1.417   1.448   6.330  1.1489 -1.8076 -2.2350
18317TIP3    H276367   1.338   1.544   6.244 -1.2159 -0.8257  0.8261
18318TIP3   OH276368   5.095   2.046  11.715 -0.5144  0.6224  0.3103
18318TIP3    H176369   5.126   2.105  11.784 -1.5855  1.6541 -0.0679
18318TIP3    H276370   5.043   1.981  11.762  2.8398 -1.7700  1.1104
18319TIP3   OH276371   5.318   2.026  17.200  0.4440 -0.3858  0.1227
18319TIP3    H176372   5.250   2.075  17.153  0.5919  0.8593  1.1547
18319TIP3    H276373   5.375   1.993  17.131 -1.4077 -1.8537 -0.8118
18320TIP3   OH276374   2.108   5.526   5.374  0.2859  0.0664 -0.0837
18320TIP3    H176375   2.167   5.577   5.429 -0.5142  0.8006  0.1080
18320TIP3    H276376   2.110   5.570   5.289  1.1288 -0.7687 -0.5117
18321TIP3   OH276377   4.566   6.047   6.099  0.8746  0.5832  0.0002
18321TIP3    H176378   4.550   5.961   6.061  0.8597  0.6410 -0.1260
18321TIP3    H276379   4.621   6.030   6.175  0.6930  0.4411  0.0999
18322TIP3   OH276380   5.656   0.846  17.031 -0.0999  0.3699 -0.1634
18322TIP3    H176381   5.631   0.847  16.939  0.1293 -1.1651 -0.2722
18322TIP3    H276382   5.738   0.894  17.034 -0.3234  0.7944 -0.6908
18323TIP3   OH276383   3.546   0.710  14.422  0.0991 -0.0922 -0.6575
18323TIP3    H176384   3.506   0.627  14.397 -1.7975 -0.0514  1.9138
18323TIP3    H276385   3.475   0.774  14.418  1.0493  1.0013 -0.6311
18324TIP3   OH276386   3.938   0.235  13.536  0.0878 -0.3451  0.0319
18324TIP3    H176387   3.846   0.218  13.516  0.2023 -0.5022 -0.3596
18324TIP3    H276388   3.957   0.178  13.611 -0.0156 -0.6210 -0.1510
18325TIP3   OH276389   6.631   3.515  16.172  0.3168  0.7627 -0.2261
18325TIP3    H176390   6.610   3.544  16.083  0.4381  0.6719 -0.2851
18325TIP3    H276391   6.551   3.472  16.202 -1.4640  4.6651  1.4019
18326TIP3   OH276392   4.963   1.908  15.119 -0.7099 -0.1871  0.1407
18326TIP3    H176393   5.037   1.855  15.150 -0.6184  0.6347  1.4061
18326TIP3    H276394   4.965   1.899  15.024  1.3392  0.2335  0.1079
18327TIP3   OH276395   0.002   1.758  13.475 -0.0316 -0.2306 -0.2296
18327TIP3    H176396   0.046   1.722  13.551  1.2671 -0.4522 -1.0477
18327TIP3    H276397   0.023   1.852  13.477 -1.6671  0.1518  0.7518
18328TIP3   OH276398   3.032   6.404   5.959 -0.9006 -0.1112 -0.1455
18328TIP3    H176399   3.045   6.325   6.012 -0.7282 -0.9180 -1.3366
18328TIP3    H276400   3.090   6.469   5.999 -0.0825 -0.9700  0.1192
18329TIP3   OH276401   1.310   0.212  11.640 -0.3632 -0.1657 -0.4284
18329TIP3    H176402   1.300   0.269  11.564  2.0650  0.0423 -0.7009
18329TIP3    H276403   1.245   0.243  11.703 -2.0766 -0.0102 -2.2086
18330TIP3   OH276404   6.286   4.183   1.707 -0.3980 -0.0142  0.4580
18330TIP3    H176405   6.228   4.116   1.672 -1.0744  1.0024 -0.4205
18330TIP3    H276406   6.356   4.190   1.642  0.9305 -1.4373  1.6455
18331TIP3   OH276407   0.947   0.802  15.754 -0.9669  0.0847  0.7129
18331TIP3    H176408   0.882   0.858  15.796 -1.3238 -1.9346  3.1085
18331TIP3    H276409   0.905   0.715  15.752  0.7427 -0.7687  0.0948
18332TIP3   OH276410   4.196   5.098  10.953  0.0235 -0.0622 -0.1437
18332TIP3    H176411   4.100   5.105  10.961  0.1613  2.2198  0.1900
18332TIP3    H276412   4.214   5.005  10.963 -2.1410 -0.4996  0.1866
18333TIP3   OH276413   6.373   1.049  13.036  0.1173 -0.0556  0.2753
18333TIP3    H176414   6.448   1.018  13.087 -1.7104 -1.5892  2.1892
18333TIP3    H276415   6.411   1.081  12.954  3.1504  1.9496  2.2731
18334TIP3   OH276416   2.058   5.434  11.953  0.1331 -0.1677  0.2545
18334TIP3    H176417   2.137   5.392  11.987 -0.7019  0.2728  2.9820
18334TIP3    H276418   1.989   5.369  11.965 -0.3630  0.3630  0.3416
18335TIP3   OH276419   0.996   3.926   1.602 -0.2776 -0.0484  0.3810
18335TIP3    H176420   0.907   3.961   1.598  0.0404  0.8488  0.7241
18335TIP3    H276421   0.985   3.833   1.622 -1.1306  0.2022  1.1626
18336TIP3   OH276422   3.451   3.306   3.343 -0.5401  0.3235 -0.0957
18336TIP3    H176423   3.470   3.213   3.327  0.3929  0.9470 -3.3203
18336TIP3    H276424   3.458   3.315   3.438  1.8036 -2.4110  0.1655
18337TIP3   OH276425   4.745   3.871   0.109  0.0693 -0.6230 -0.1504
18337TIP3    H176426   4.835   3.892   0.085  0.4608 -1.0686  0.8981
18337TIP3    H276427   4.722   3.939   0.173  0.0379 -1.1542  0.4022
18338TIP3   OH276428   5.187   5.633   5.399 -0.2172 -0.8007  0.2131
18338TIP3    H176429   5.094   5.618   5.416 -0.2129  0.7975  1.9488
18338TIP3    H276430   5.189   5.709   5.341 -0.0150  0.7378  2.1267
18339TIP3   OH276431   5.466   5.163  11.617 -0.2857  0.5758 -0.1098
18339TIP3    H176432   5.398   5.225  11.589 -3.0022 -0.2858  3.6899
18339TIP3    H276433   5.420   5.079  11.624  2.0109 -0.7749 -0.2120
18340TIP3   OH276434   3.012   2.208  16.763 -0.3107  0.9834  0.1088
18340TIP3    H176435   2.971   2.293  16.776 -0.4209  1.3565 -2.1458
18340TIP3    H276436   2.956   2.146  16.811  0.5219  2.2654  2.9002
18341TIP3   OH276437   1.694   4.079  17.337  0.3068  0.5155  0.4467
18341TIP3    H176438   1.710   4.159  17.387  1.2739  0.4441  0.2691
18341TIP3    H276439   1.649   4.021  17.399 -0.4072  1.1892  0.5749
18342TIP3   OH276440   6.173   5.260  14.101 -0.5013 -0.5827 -0.5006
18342TIP3    H176441   6.148   5.169  14.118 -1.6106 -0.7927 -2.8055
18342TIP3    H276442   6.102   5.312  14.136 -1.4473 -0.8444 -1.9302
18343TIP3   OH276443   2.414   0.830   3.367 -0.1231  0.2555 -0.0128
18343TIP3    H176444   2.351   0.860   3.432 -1.0046  0.1449 -0.7852
18343TIP3    H276445   2.373   0.853   3.283  0.3061 -0.9127 -0.5566
18344TIP3   OH276446   2.078   3.465  12.387 -0.3553  0.3421 -0.1691
18344TIP3    H176447   2.008   3.485  12.449 -1.4070  0.0535 -1.2381
18344TIP3    H276448   2.049   3.385  12.343  1.0691 -0.2897 -0.0183
18345TIP3   OH276449   1.029   3.425  13.029 -0.1643 -0.0312 -0.3124
18345TIP3    H176450   1.074   3.444  12.947  0.9702  1.2716  0.5604
18345TIP3    H276451   1.004   3.511  13.063 -1.6752 -0.6243  0.1344
18346TIP3   OH276452   3.290   1.392   1.716 -0.1071  0.2959 -0.0819
18346TIP3    H176453   3.212   1.363   1.670  0.1823  1.1495 -1.1507
18346TIP3    H276454   3.316   1.316   1.769 -2.2839  0.3717  1.2007
18347TIP3   OH276455   3.862   1.640   0.828  0.1435  0.5565  0.1789
18347TIP3    H176456   3.948   1.602   0.844 -0.0957 -0.7299 -1.3314
18347TIP3    H276457   3.841   1.686   0.909  2.8748  2.1948  0.0841
18348TIP3   OH276458   6.217   2.139   3.559  0.6035 -0.3403  0.0503
18348TIP3    H176459   6.228   2.078   3.486  0.6122  0.2616 -0.4571
18348TIP3    H276460   6.177   2.086   3.628  1.4968 -1.1648 -0.0313
18349TIP3   OH276461   5.990   6.006  14.523  0.0262 -0.2331 -0.5556
18349TIP3    H176462   5.987   6.094  14.485  1.4153  1.0720  2.0663
18349TIP3    H276463   6.054   5.959  14.469  1.6199  1.4102 -0.2140
18350TIP3   OH276464   3.989   1.247  14.166  0.4436  0.0408  0.5306
18350TIP3    H176465   3.996   1.183  14.236 -0.3819  1.0223  1.5596
18350TIP3    H276466   3.939   1.203  14.098  1.0752 -0.8595  0.6403
18351TIP3   OH276467   1.991   4.880   2.111  0.1638  0.4038  0.0283
18351TIP3    H176468   2.041   4.902   2.189 -0.3838 -0.3271  0.6003
18351TIP3    H276469   2.033   4.801   2.077  1.3588  1.5825 -1.3098
18352TIP3   OH276470   5.235   2.037  12.969  0.6517 -0.1245 -0.1868
18352TIP3    H176471   5.323   2.022  13.004  0.2158 -1.4378  0.4336
18352TIP3    H276472   5.180   2.050  13.046  0.1652 -0.1278 -0.5263
18353TIP3   OH276473   1.702   3.249   1.540  0.3302 -0.2113 -0.4728
18353TIP3    H176474   1.703   3.225   1.448 -1.2929 -1.0841 -0.2883
18353TIP3    H276475   1.617   3.290   1.554  0.2218 -0.8213  0.8039
18354TIP3   OH276476   1.066   3.279   0.782  0.3921  0.1423 -0.2109
18354TIP3    H176477   1.023   3.328   0.712 -2.5128 -3.6371 -1.4395
18354TIP3    H276478   1.027   3.314   0.863 -1.8190 -0.1610 -1.0606
18355TIP3   OH276479   3.526   6.581  13.726 -0.2486 -0.1604 -0.2072
18355TIP3    H176480   3.474   6.617  13.798  0.6405  0.0402  0.3580
18355TIP3    H276481   3.536   6.489  13.748  0.1459 -0.0680  0.0076
18356TIP3   OH276482   4.459   6.616  11.782 -0.5392 -0.3013  0.6575
18356TIP3    H176483   4.486   6.640  11.694 -1.3457 -0.5834  0.3205
18356TIP3    H276484   4.541   6.603  11.830 -0.0694 -1.4306 -0.3973
18357TIP3   OH276485   3.949   1.264  16.488  0.1177  0.4103  0.0923
18357TIP3    H176486   4.023   1.316  16.456 -0.5730  1.5432  0.2651
18357TIP3    H276487   3.979   1.174  16.483  1.1556  0.7799 -0.7678
18358TIP3   OH276488   0.012   0.009   2.413  0.1067  0.4866 -0.3156
18358TIP3    H176489   0.091   0.055   2.441 -0.9318  0.5292  3.0979
18358TIP3    H276490   0.044  -0.067   2.366  2.1324  1.1793 -0.1633
18359TIP3   OH276491   6.320   3.026   4.748 -0.2434 -0.5501 -0.1246
18359TIP3    H176492   6.304   2.955   4.686  1.2855  0.1915 -1.4591
18359TIP3    H276493   6.394   2.995   4.801  0.4735  0.0309 -0.7562
18360TIP3   OH276494   1.687   3.680   2.853 -0.0455  0.4489 -0.0235
18360TIP3    H176495   1.685   3.695   2.947 -0.4355  0.7198 -0.0730
18360TIP3    H276496   1.687   3.767   2.814 -0.0416  0.3369 -0.2792
18361TIP3   OH276497   3.146   5.992  11.390  0.0627  0.2878 -0.7759
18361TIP3    H176498   3.238   5.992  11.362  0.3525  0.3844  0.1314
18361TIP3    H276499   3.113   6.077  11.363  0.4952  0.6055 -0.3170
18362TIP3   OH276500   2.944   4.966  13.281 -0.1651  0.0042  0.0952
18362TIP3    H176501   2.941   4.987  13.375 -1.2112  1.1301 -0.1671
18362TIP3    H276502   3.014   5.021  13.246 -1.4427  1.5546 -0.1918
18363TIP3   OH276503   1.312   5.134   3.245  0.2878  0.4736 -0.2901
18363TIP3    H176504   1.375   5.066   3.269  0.5061  0.5761 -0.5725
18363TIP3    H276505   1.230   5.087   3.230  0.5366  0.2211 -0.8817
18364TIP3   OH276506   0.630   2.406   0.986  0.3469  0.6372 -0.1973
18364TIP3    H176507   0.647   2.327   0.934 -0.8001 -0.1239  0.5248
18364TIP3    H276508   0.567   2.456   0.933 -0.8318 -0.1436  0.4217
18365TIP3   OH276509   5.980   4.157   3.179  0.4746 -0.1883 -0.0126
18365TIP3    H176510   6.060   4.167   3.127 -0.2705  0.9666 -0.9613
18365TIP3    H276511   5.916   4.121   3.118 -0.1286  0.2303  0.3626
18366TIP3   OH276512   5.742   1.723  14.564 -0.0142 -0.2978 -0.1686
18366TIP3    H176513   5.764   1.693  14.476  0.5963 -0.2400 -0.0384
18366TIP3    H276514   5.662   1.676  14.586 -0.1244 -0.3791 -0.7190
18367TIP3   OH276515   1.045   1.140  12.816  0.3209 -0.6394  0.3986
18367TIP3    H176516   1.087   1.118  12.733 -0.4410 -1.1762  0.1428
18367TIP3    H276517   1.072   1.231  12.833 -0.7282  0.0256 -1.2116
18368TIP3   OH276518   3.941   6.515   2.795  0.5829 -0.4043 -0.3878
18368TIP3    H176519   3.979   6.475   2.716 -1.1896  0.2749 -1.6339
18368TIP3    H276520   4.013   6.517   2.857  1.9546 -1.2824 -1.8710
18369TIP3   OH276521   1.299   0.623  12.317 -0.4735  0.3272  0.4467
18369TIP3    H176522   1.227   0.564  12.297 -0.7154  0.9359 -0.5390
18369TIP3    H276523   1.371   0.565  12.343 -0.6799 -0.4175 -0.5582
18370TIP3   OH276524   3.517   5.505   0.900  0.0028 -0.3191  0.2384
18370TIP3    H176525   3.559   5.585   0.930 -0.3590 -0.2768  0.6432
18370TIP3    H276526   3.559   5.486   0.816 -0.4970  0.7529 -0.2697
18371TIP3   OH276527   0.661   0.512   2.607  0.0410 -0.0209 -0.1058
18371TIP3    H176528   0.662   0.536   2.700  0.5396 -2.0175  0.4504
18371TIP3    H276529   0.570   0.488   2.589  0.4007 -2.1139  0.6061
18372TIP3   OH276530   0.656   2.524   6.688 -0.0501 -0.1664  0.2599
18372TIP3    H176531   0.605   2.566   6.618 -0.8478 -0.8921  0.3846
18372TIP3    H276532   0.604   2.448   6.712  1.2114 -1.0582  0.2579
18373TIP3   OH276533   1.684   5.057   2.695  0.0610  0.0589  0.1481
18373TIP3    H176534   1.647   4.969   2.707  2.6095 -0.8640  2.2896
18373TIP3    H276535   1.674   5.099   2.781 -0.8241  1.7804 -0.7629
18374TIP3   OH276536   3.717   5.056   0.193 -0.0622 -0.1469  0.0028
18374TIP3    H176537   3.730   5.016   0.279 -2.5342 -3.0217 -0.7676
18374TIP3    H276538   3.805   5.070   0.159  0.9690 -1.3986  1.9801
18375TIP3   OH276539   1.423   3.356   2.001  0.1819 -0.2391  0.2524
18375TIP3    H176540   1.457   3.383   2.086 -0.3117  0.2691  0.2987
18375TIP3    H276541   1.500   3.337   1.948  0.5189  0.3919  0.5133
18376TIP3   OH276542   3.790   5.049   6.734 -0.5251 -0.5593 -0.1489
18376TIP3    H176543   3.855   5.119   6.727 -1.2744  0.3918  1.7151
18376TIP3    H276544   3.842   4.972   6.757 -0.0721  0.5802  3.2592
18377TIP3   OH276545   1.850   6.583  15.822 -1.0167 -0.4491 -0.0584
18377TIP3    H176546   1.891   6.541  15.747 -1.8479  1.3766 -1.6289
18377TIP3    H276547   1.844   6.675  15.798 -2.4891 -0.0106  1.7189
18378TIP3   OH276548   1.170   3.497  12.804 -0.1205 -0.8641 -0.6007
18378TIP3    H176549   1.135   3.586  12.805  1.3136 -0.2714 -0.3731
18378TIP3    H276550   1.262   3.507  12.826 -0.1198 -2.5116  0.3490
18379TIP3   OH276551   2.216   2.531   4.684 -0.0135  0.5070  0.1303
18379TIP3    H176552   2.230   2.456   4.626 -0.7166  2.1048 -2.2742
18379TIP3    H276553   2.155   2.499   4.751 -2.4133 -0.4587 -2.3270
18380TIP3   OH276554   2.345   1.393  15.225 -0.6081  0.1630  0.3584
18380TIP3    H176555   2.409   1.322  15.228  0.2655  0.9528  2.6172
18380TIP3    H276556   2.363   1.438  15.142  1.5915  0.1661  0.7731
18381TIP3   OH276557   5.679   0.332   2.904 -0.2740  0.1420 -0.0449
18381TIP3    H176558   5.663   0.399   2.837  0.0390  0.2946  0.0278
18381TIP3    H276559   5.654   0.250   2.862 -1.2564  0.3619  0.0775
18382TIP3   OH276560   5.870   4.548   1.518  0.0664 -0.0014  0.0729
18382TIP3    H176561   5.808   4.604   1.566  1.6472 -0.1068  2.4328
18382TIP3    H276562   5.948   4.604   1.507  0.0300 -0.2675 -1.7240
18383TIP3   OH276563   4.129   5.395  15.118  0.6455  0.0370  0.3367
18383TIP3    H176564   4.219   5.395  15.085  0.0562  0.5900 -1.3925
18383TIP3    H276565   4.105   5.488  15.121 -0.8878 -0.1467 -2.4002
18384TIP3   OH276566   4.580   2.329   2.398 -0.5541  0.0808  0.1414
18384TIP3    H176567   4.567   2.277   2.477 -2.0875  0.9881  0.5420
18384TIP3    H276568   4.633   2.274   2.341 -0.6404 -1.1842  1.2284
18385TIP3   OH276569   2.542   2.720   2.198 -0.0664 -0.0901  0.6110
18385TIP3    H176570   2.525   2.753   2.286 -0.2205 -0.1523  0.6047
18385TIP3    H276571   2.615   2.658   2.209 -0.9869 -1.1575  0.9267
18386TIP3   OH276572   3.420   1.614   0.875 -0.8494  0.3139  0.4462
18386TIP3    H176573   3.409   1.522   0.902 -2.9194  0.6260  0.8536
18386TIP3    H276574   3.508   1.618   0.839 -1.0264 -2.0641 -0.4590
18387TIP3   OH276575   4.758   1.086  13.187  0.2090 -0.0622 -0.6531
18387TIP3    H176576   4.822   1.086  13.259 -0.6808 -1.8122  0.2073
18387TIP3    H276577   4.774   1.004  13.141  0.3849  0.7742 -2.1580
18388TIP3   OH276578   1.333   5.572  15.743 -0.6432  0.0765  0.2103
18388TIP3    H176579   1.366   5.601  15.658 -2.0800  0.3302 -0.2978
18388TIP3    H276580   1.411   5.558  15.796  0.2140  2.1621 -0.4091
18389TIP3   OH276581   0.459   3.509   2.238  0.2778 -0.2914 -0.5233
18389TIP3    H176582   0.426   3.576   2.297 -2.2542 -2.8095  1.1899
18389TIP3    H276583   0.539   3.477   2.280  0.8743  0.8160 -0.7778
18390TIP3   OH276584   2.224   2.323  10.787  0.0488  0.3375 -0.4605
18390TIP3    H176585   2.268   2.385  10.847 -0.0585  0.9174 -0.9716
18390TIP3    H276586   2.219   2.370  10.704 -1.6783  0.3459 -0.3802
18391TIP3   OH276587   1.376   5.799   1.564  0.0131  0.4306 -0.1161
18391TIP3    H176588   1.322   5.862   1.612 -0.3568 -0.2637  0.3937
18391TIP3    H276589   1.323   5.720   1.559  0.3733  0.2294 -0.9752
18392TIP3   OH276590   1.113   1.503   3.508  0.5963 -0.1439  0.3872
18392TIP3    H176591   1.124   1.596   3.528  1.5609  0.1202 -1.1763
18392TIP3    H276592   1.203   1.469   3.505  0.2842 -0.9626  0.2206
18393TIP3   OH276593   5.620   1.595   5.938  0.0809  0.6331 -0.4391
18393TIP3    H176594   5.701   1.632   5.971  0.9118 -1.4104 -0.1105
18393TIP3    H276595   5.560   1.596   6.013  0.0666  1.3271 -0.4524
18394TIP3   OH276596   4.153   5.074   2.191 -0.3854  0.5989 -0.1629
18394TIP3    H176597   4.078   5.033   2.234 -0.1521 -2.3238 -2.2553
18394TIP3    H276598   4.118   5.109   2.109  0.1981  0.9670 -0.2592
18395TIP3   OH276599   4.221   3.627   3.829  0.2191  0.0450  0.3066
18395TIP3    H176600   4.162   3.578   3.772  0.8092  0.4102 -0.6361
18395TIP3    H276601   4.306   3.584   3.819  0.5659  0.7656  0.0733
18396TIP3   OH276602   2.046   4.262  16.015  0.1162 -0.4834 -0.0346
18396TIP3    H176603   2.119   4.278  15.955  0.3142  0.7866  0.4987
18396TIP3    H276604   1.980   4.326  15.988 -0.0330 -0.3287  0.6833
18397TIP3   OH276605   4.531   6.376   0.109 -0.2771  0.1578 -0.4673
18397TIP3    H176606   4.541   6.382   0.014 -0.6407  0.6192 -0.4792
18397TIP3    H276607   4.616   6.346   0.141 -0.6241 -1.6067 -1.0810
18398TIP3   OH276608   3.141   5.402   5.260 -0.5688  0.7227  0.2520
18398TIP3    H176609   3.105   5.423   5.174  1.3332  2.1167 -0.2769
18398TIP3    H276610   3.153   5.307   5.258 -0.4422  0.7428 -1.0966
18399TIP3   OH276611   5.951   3.035   0.834  0.1165 -0.2635  0.2311
18399TIP3    H176612   5.919   3.100   0.772  0.5290 -0.4254 -0.1610
18399TIP3    H276613   6.003   2.975   0.781 -1.0131 -1.4613  0.4242
18400TIP3   OH276614   6.432   1.073   2.289 -0.2156 -0.2113 -0.3347
18400TIP3    H176615   6.490   1.149   2.285 -1.0137  0.5215  1.0845
18400TIP3    H276616   6.455   1.029   2.370  0.0293 -1.3348 -0.9980
18401TIP3   OH276617   2.444   2.317   1.160 -0.3852  0.6081 -0.4125
18401TIP3    H176618   2.395   2.398   1.176 -2.0356  0.0031 -1.9827
18401TIP3    H276619   2.482   2.329   1.072 -0.1672 -0.0865 -0.4207
18402TIP3   OH276620   0.084   4.952   4.648 -0.1192  0.3170 -0.1217
18402TIP3    H176621   0.049   5.040   4.658  0.4206  0.5290 -0.1147
18402TIP3    H276622   0.038   4.900   4.714 -0.5484  0.5568 -0.2298
18403TIP3   OH276623   3.185   5.738  15.489  0.3591 -0.6429  0.5382
18403TIP3    H176624   3.223   5.651  15.501 -0.7469 -1.4314 -1.2139
18403TIP3    H276625   3.226   5.771  15.409 -0.7846 -0.4903 -0.0125
18404TIP3   OH276626   0.207   0.272   4.525  0.0468  0.0301 -0.7141
18404TIP3    H176627   0.229   0.283   4.618 -1.7612  2.0654 -0.4264
18404TIP3    H276628   0.273   0.212   4.491  0.8737 -0.6370  1.8425
18405TIP3   OH276629   5.258   5.094   0.517 -0.3371  0.2041  0.1834
18405TIP3    H176630   5.169   5.112   0.488  0.1184 -0.8568 -2.1503
18405TIP3    H276631   5.249   5.033   0.590 -1.5195  0.9743  0.7108
18406TIP3   OH276632   5.926   1.261   3.132  0.4411 -0.2488  0.0429
18406TIP3    H176633   5.880   1.344   3.146  0.4660 -0.0321 -1.0784
18406TIP3    H276634   5.867   1.210   3.077 -0.4375 -1.7621  2.2505
18407TIP3   OH276635   6.204   2.055  12.179  0.5929 -0.3000  0.5319
18407TIP3    H176636   6.264   2.094  12.114  0.4972  0.2247  0.7526
18407TIP3    H276637   6.161   2.130  12.220 -0.2781 -0.6740  0.3264
18408TIP3   OH276638   1.887   3.392   4.350 -0.1564  0.0187 -0.3120
18408TIP3    H176639   1.952   3.422   4.413 -0.9199 -0.8095  0.9374
18408TIP3    H276640   1.830   3.467   4.335  1.6222  1.0802 -2.2330
18409TIP3   OH276641   3.675   1.069   4.626 -0.3485 -0.0330  0.4882
18409TIP3    H176642   3.592   1.023   4.630 -0.3989 -0.2602 -1.7477
18409TIP3    H276643   3.653   1.160   4.643 -1.1163 -0.0659 -0.2522
18410TIP3   OH276644   4.769   6.079  12.144 -0.0189 -0.0361  0.1602
18410TIP3    H176645   4.717   6.155  12.170  1.0458  0.1959  1.7877
18410TIP3    H276646   4.708   6.025  12.093 -0.6232  2.1629 -1.6254
18411TIP3   OH276647   5.296   6.682   1.130  0.4115 -0.2512  0.1866
18411TIP3    H176648   5.277   6.771   1.160  0.8839 -0.0530 -0.0810
18411TIP3    H276649   5.348   6.643   1.200  2.2895  0.5142 -0.7003
18412TIP3   OH276650   2.964   4.422  16.232 -0.0776 -0.7184  0.1651
18412TIP3    H176651   3.043   4.413  16.286  0.9239  0.0597 -1.1280
18412TIP3    H276652   2.992   4.397  16.144 -1.2257 -0.2057 -0.3626
18413TIP3   OH276653   4.400   5.861   1.575  0.3019 -0.6184 -0.3685
18413TIP3    H176654   4.328   5.803   1.601  1.1438 -2.1917 -1.3524
18413TIP3    H276655   4.440   5.889   1.657 -0.0196 -1.6035  0.1410
18414TIP3   OH276656   6.414   6.758  12.582 -0.3341 -0.1135  0.5515
18414TIP3    H176657   6.442   6.719  12.665 -0.1606 -0.0079  0.5437
18414TIP3    H276658   6.343   6.818  12.606  1.0452  1.4428  0.9018
18415TIP3   OH276659   1.079   4.228  16.674 -0.1648 -0.1298 -0.0057
18415TIP3    H176660   1.084   4.193  16.763  0.0038 -0.9417 -0.3255
18415TIP3    H276661   1.030   4.310  16.683  3.4661  2.1127  1.5086
18416TIP3   OH276662   4.297   0.217   5.452  0.2818 -0.1240  0.4420
18416TIP3    H176663   4.298   0.221   5.357 -0.3659  0.1530  0.4432
18416TIP3    H276664   4.304   0.123   5.472  1.3381 -0.1218  0.1521
18417TIP3   OH276665   4.968   1.209  13.977 -0.3267  0.1530 -0.2905
18417TIP3    H176666   4.906   1.259  14.030  1.9478  0.7575  2.0234
18417TIP3    H276667   5.052   1.252  13.992  0.7557 -0.7451 -3.1042
18418TIP3   OH276668   1.265   4.656   1.536 -0.0004 -0.1552  0.2691
18418TIP3    H176669   1.341   4.658   1.595 -0.4018  1.0711  0.7602
18418TIP3    H276670   1.215   4.734   1.558 -0.9298 -0.4564 -0.7017
18419TIP3   OH276671   3.269   5.651   5.026  0.5740 -0.0974 -0.1871
18419TIP3    H176672   3.334   5.699   4.975 -0.5484  2.2935  0.4703
18419TIP3    H276673   3.212   5.611   4.960  0.7340  0.6484 -0.7912
18420TIP3   OH276674   4.944   0.607   3.448  0.3097  0.2665  0.0287
18420TIP3    H176675   4.999   0.613   3.526  0.1490  0.9574  0.0948
18420TIP3    H276676   4.973   0.679   3.392  0.8164 -0.5615 -0.8098
18421TIP3   OH276677   6.684   5.354   4.567 -0.0828  0.2024 -0.1286
18421TIP3    H176678   6.640   5.377   4.485  1.8407 -0.7933 -1.5347
18421TIP3    H276679   6.768   5.317   4.539  1.5497  1.7057  2.3613
18422TIP3   OH276680   3.311   2.272   5.539  0.0063 -0.3769  0.5328
18422TIP3    H176681   3.381   2.236   5.593  0.6238  0.1706  0.1147
18422TIP3    H276682   3.355   2.301   5.459 -0.5395  0.8839  0.6740
18423TIP3   OH276683   1.615   0.532   3.187  0.2259  0.0088  0.5879
18423TIP3    H176684   1.614   0.571   3.274 -1.3242  1.0972  0.1285
18423TIP3    H276685   1.708   0.528   3.164  0.5434  2.0259  1.3002
18424TIP3   OH276686   4.275   2.663  12.373  0.4155  0.2620  0.3737
18424TIP3    H176687   4.300   2.739  12.319 -2.0396  0.4648 -0.6087
18424TIP3    H276688   4.326   2.591  12.336  1.3310  1.0397  0.0404
18425TIP3   OH276689   4.552   2.829   6.293 -0.1853  0.3070  0.1771
18425TIP3    H176690   4.499   2.877   6.357 -1.5118 -2.5372  1.3779
18425TIP3    H276691   4.490   2.802   6.226  0.1618 -1.0417  0.3676
18426TIP3   OH276692   6.578   2.466  16.194  0.1422 -0.7307  0.2948
18426TIP3    H176693   6.644   2.408  16.233  0.7418  0.0741  0.4981
18426TIP3    H276694   6.629   2.531  16.147 -0.5574 -1.5527 -1.7051
18427TIP3   OH276695   3.012   0.738  12.572 -0.0621  0.4845 -0.7234
18427TIP3    H176696   3.058   0.790  12.507  0.2025 -0.5599 -1.3913
18427TIP3    H276697   2.935   0.791  12.595 -0.2367  0.8143 -1.9922
18428TIP3   OH276698   5.198   3.974   6.655  0.7198 -1.1177 -0.7394
18428TIP3    H176699   5.150   3.905   6.700 -0.5140 -1.8393 -2.9740
18428TIP3    H276700   5.130   4.033   6.622  1.1767 -2.1641 -3.9951
18429TIP3   OH276701   5.813   6.048  15.396  0.4557 -0.3942 -0.2279
18429TIP3    H176702   5.763   6.107  15.453  3.0307  0.9793  0.8073
18429TIP3    H276703   5.804   5.962  15.436 -0.3240 -0.0151  0.4341
18430TIP3   OH276704   0.943   0.788   2.646 -0.0763 -0.8681  0.0865
18430TIP3    H176705   1.032   0.818   2.666 -0.2061 -1.4829  1.6931
18430TIP3    H276706   0.928   0.818   2.556  1.3914  0.0713  0.1150
18431TIP3   OH276707   1.119   2.260  16.407  0.4736  0.2137 -0.5489
18431TIP3    H176708   1.175   2.214  16.470  0.1008 -1.1945 -1.1965
18431TIP3    H276709   1.114   2.201  16.331 -3.7491 -0.9534  0.3329
18432TIP3   OH276710   3.336   0.929  12.958  0.1220  0.7668 -0.2621
18432TIP3    H176711   3.261   0.879  12.926  1.1733 -1.3917  0.4826
18432TIP3    H276712   3.395   0.933  12.883  0.9785 -1.0989  0.2441
18433TIP3   OH276713   2.934   6.094   1.725 -0.0723 -0.0292 -0.1758
18433TIP3    H176714   2.922   6.030   1.795 -2.4953 -0.3015 -0.7462
18433TIP3    H276715   3.029   6.104   1.717  0.3453  0.5883  3.6282
18434TIP3   OH276716   5.170   5.982  12.977  0.6678 -0.3519 -0.1794
18434TIP3    H176717   5.249   5.935  12.949  0.6448 -0.5519  0.0798
18434TIP3    H276718   5.201   6.040  13.047  0.6163 -0.3147 -0.1873
18435TIP3   OH276719   1.213   6.507   0.280 -0.1789  0.1994  0.0872
18435TIP3    H176720   1.230   6.584   0.227  0.2119  0.6658  0.8769
18435TIP3    H276721   1.117   6.502   0.284 -0.2065  0.9048  0.4012
18436TIP3   OH276722   3.462   4.895   0.363 -0.0227 -0.0128 -0.5674
18436TIP3    H176723   3.529   4.885   0.296 -1.1008 -1.1698 -1.5160
18436TIP3    H276724   3.492   4.969   0.416  2.0979 -0.6198 -0.8240
18437TIP3   OH276725   5.948   1.945   1.248 -0.0911  0.2001  0.0621
18437TIP3    H176726   5.907   1.996   1.318 -0.7406 -0.8249  0.4512
18437TIP3    H276727   5.995   1.876   1.293 -1.1647 -0.9469 -0.5262
18438TIP3   OH276728   0.297   6.421  16.274 -0.4617  0.2110  0.3735
18438TIP3    H176729   0.340   6.395  16.356  0.9055  0.0966 -0.3500
18438TIP3    H276730   0.351   6.382  16.205 -3.8408 -3.3094 -0.6482
18439TIP3   OH276731   4.741   0.360   1.504  0.7701  0.0308 -0.1838
18439TIP3    H176732   4.649   0.337   1.489  0.2265  1.1693  1.1410
18439TIP3    H276733   4.751   0.446   1.463  1.4785 -0.4280 -0.9991
18440TIP3   OH276734   3.078   1.350   5.157  0.3035  0.3219 -0.1502
18440TIP3    H176735   3.063   1.401   5.236 -0.7093 -0.1900  0.0079
18440TIP3    H276736   2.993   1.313   5.135  1.2573 -2.7373  0.7477
18441TIP3   OH276737   0.289   3.519  15.243  0.3625 -0.2175  0.5322
18441TIP3    H176738   0.212   3.574  15.255  0.2156  0.1843 -1.7454
18441TIP3    H276739   0.259   3.431  15.262 -0.4360  0.0490  0.5320
18442TIP3   OH276740   2.692   6.163  15.054  0.0805 -0.4594  0.2539
18442TIP3    H176741   2.655   6.237  15.103  1.0746  0.7495 -0.7377
18442TIP3    H276742   2.738   6.111  15.121 -2.2907 -1.3369  1.2956
18443TIP3   OH276743   1.862   5.895   1.217 -0.3888 -0.1694  0.5159
18443TIP3    H176744   1.854   5.942   1.134 -2.0345 -0.6405  0.3623
18443TIP3    H276745   1.846   5.962   1.284 -0.8143 -0.1245  0.3739
18444TIP3   OH276746   5.125   6.434  15.634 -0.6734  1.1863 -1.1211
18444TIP3    H176747   5.089   6.444  15.545 -0.1648  1.0537 -1.3442
18444TIP3    H276748   5.114   6.341  15.653 -1.2486  1.3048 -0.8363
18445TIP3   OH276749   1.763   3.082  14.408  0.2334 -0.0326  0.0488
18445TIP3    H176750   1.772   3.176  14.425  0.4577 -0.2054  0.9173
18445TIP3    H276751   1.821   3.040  14.472  0.6693 -0.7379 -0.7927
18446TIP3   OH276752   4.013   1.808  14.762  0.1126  0.1499  0.5205
18446TIP3    H176753   4.015   1.873  14.692  1.9323  0.1145  0.4890
18446TIP3    H276754   4.101   1.810  14.799  1.9601 -5.4117 -2.4582
18447TIP3   OH276755   2.272   2.483   5.682 -0.0816  0.1702  0.1873
18447TIP3    H176756   2.315   2.413   5.732  2.0290  0.0264 -1.6648
18447TIP3    H276757   2.303   2.564   5.724  0.4796  0.0269  0.0669
18448TIP3   OH276758   4.257   6.669  11.384  0.6599 -0.0800  0.4868
18448TIP3    H176759   4.220   6.612  11.317  0.0377  0.1902  0.5970
18448TIP3    H276760   4.322   6.614  11.428  0.7439 -0.4032 -0.0276
18449TIP3   OH276761   5.563   4.618   3.142 -0.8997  0.0498  0.4459
18449TIP3    H176762   5.623   4.692   3.133 -0.3524 -0.3254  0.9328
18449TIP3    H276763   5.530   4.625   3.232 -0.5510 -0.5088  0.6252
18450TIP3   OH276764   0.151   2.147   4.417  0.0383 -0.3947 -0.2172
18450TIP3    H176765   0.089   2.195   4.362 -0.0226  0.1326  0.3066
18450TIP3    H276766   0.231   2.142   4.364 -0.4648 -1.1671 -0.9380
18451TIP3   OH276767   3.906   3.709   5.186  0.2457 -0.5509  0.3529
18451TIP3    H176768   3.979   3.704   5.248  0.3424  0.7217  0.3610
18451TIP3    H276769   3.909   3.799   5.153 -1.4794 -0.3826  0.5616
18452TIP3   OH276770   6.569   4.313   5.267  0.1161 -0.3163 -0.2954
18452TIP3    H176771   6.530   4.378   5.208 -0.6178 -0.2356  0.2642
18452TIP3    H276772   6.599   4.243   5.210  0.2122  0.1630 -0.8383
18453TIP3   OH276773   0.590   5.118  14.253 -0.6342  0.6258  0.1585
18453TIP3    H176774   0.646   5.192  14.278 -0.7185  1.2500 -1.3729
18453TIP3    H276775   0.501   5.153  14.256 -0.9378 -0.2005  2.0181
18454TIP3   OH276776   6.035   1.674   3.806  0.1176 -0.3355 -0.0225
18454TIP3    H176777   6.113   1.654   3.754  0.8909 -0.4980  1.1527
18454TIP3    H276778   5.963   1.668   3.744  1.2091  1.8971 -1.6578
18455TIP3   OH276779   4.647   6.246  16.409 -0.4594 -0.2009 -0.2019
18455TIP3    H176780   4.700   6.237  16.330 -0.0064 -0.0167  0.0697
18455TIP3    H276781   4.557   6.242  16.379 -0.3008 -1.6796 -0.5462
18456TIP3   OH276782   3.145   3.854   2.811 -0.2218 -0.0536 -0.2195
18456TIP3    H176783   3.199   3.794   2.760  0.6134  0.6757 -0.2161
18456TIP3    H276784   3.197   3.873   2.889 -0.7290  0.2174  0.0597
18457TIP3   OH276785   1.331   3.735   4.015 -0.6194  0.3340  0.1867
18457TIP3    H176786   1.421   3.764   4.000 -0.2959  0.1114  1.5714
18457TIP3    H276787   1.277   3.794   3.962  0.4203 -0.7122 -2.2024
18458TIP3   OH276788   0.647   2.929  13.499  0.2837 -0.4385 -0.5638
18458TIP3    H176789   0.620   2.838  13.483 -0.3038 -0.1079 -1.5406
18458TIP3    H276790   0.607   2.951  13.583  1.4280 -1.4585  0.2779
18459TIP3   OH276791   6.425   6.146   3.746  0.2348 -0.0802 -0.2378
18459TIP3    H176792   6.455   6.058   3.724  0.5639 -0.4488  1.5612
18459TIP3    H276793   6.338   6.134   3.784  0.6348  0.2526  0.8257
18460TIP3   OH276794   4.613   5.869   0.481 -0.6712  0.0884 -0.4927
18460TIP3    H176795   4.553   5.907   0.546  1.5049 -0.0340  1.7126
18460TIP3    H276796   4.593   5.917   0.401 -1.8943  1.9193  0.7981
18461TIP3   OH276797   4.608   1.624   2.432  0.1405 -0.6713 -0.4421
18461TIP3    H176798   4.614   1.670   2.515 -0.8837 -1.7413  0.2506
18461TIP3    H276799   4.516   1.626   2.409 -0.0362 -2.7363 -0.1337
18462TIP3   OH276800   2.869   0.773  15.660  0.5861  0.0083 -0.0182
18462TIP3    H176801   2.805   0.717  15.704  0.2759  0.6445  0.3466
18462TIP3    H276802   2.884   0.730  15.575  3.4518 -2.9123  1.7469
18463TIP3   OH276803   0.331   0.391   3.600  0.6571 -0.1054  0.1202
18463TIP3    H176804   0.320   0.479   3.636 -0.4532 -0.6388  1.1843
18463TIP3    H276805   0.381   0.344   3.667  0.4865 -0.5138 -0.0338
18464TIP3   OH276806   4.584   4.736   2.053 -0.3088  0.2238 -0.0124
18464TIP3    H176807   4.638   4.707   2.126  0.1205  0.7817 -0.1056
18464TIP3    H276808   4.505   4.683   2.059  0.6693 -1.3741 -0.4936
18465TIP3   OH276809   5.348   3.393  14.260 -0.2628 -0.2176  0.2173
18465TIP3    H176810   5.329   3.309  14.302 -1.1058 -0.1210  0.0472
18465TIP3    H276811   5.433   3.419  14.296 -0.8691 -0.2267  1.7415
18466TIP3   OH276812   2.635   5.089  12.942  0.2175  0.7074  0.0522
18466TIP3    H176813   2.594   5.087  12.855  0.9628  0.4977 -0.3076
18466TIP3    H276814   2.690   5.010  12.944  1.0545  1.2872  0.2854
18467TIP3   OH276815   4.136   4.838  11.621  0.3364  0.0644  0.2013
18467TIP3    H176816   4.131   4.885  11.704 -1.1002 -0.7399  0.6111
18467TIP3    H276817   4.089   4.756  11.637  0.9173 -0.5569 -1.1137
18468TIP3   OH276818   2.509   6.027   1.937 -0.5485 -0.0405  0.1573
18468TIP3    H176819   2.457   6.099   1.900 -1.3467  0.0112  1.3043
18468TIP3    H276820   2.447   5.955   1.948 -0.3491 -0.0670  1.3054
18469TIP3   OH276821   5.360   4.012  16.829  0.3070 -0.1278  1.0022
18469TIP3    H176822   5.409   3.958  16.890 -0.4685 -2.3189 -0.1939
18469TIP3    H276823   5.419   4.023  16.754  0.4317  0.6577  1.2063
18470TIP3   OH276824   0.182   0.640   2.025 -0.7624 -0.2012  0.6153
18470TIP3    H176825   0.189   0.569   2.089 -1.1993  0.9800  2.0365
18470TIP3    H276826   0.090   0.667   2.029 -0.6581  0.2731 -0.0760
18471TIP3   OH276827   2.434   5.958   5.711 -0.1582  0.5625 -0.0625
18471TIP3    H176828   2.427   5.984   5.619 -0.5291 -1.0800 -0.5379
18471TIP3    H276829   2.349   5.919   5.731  0.8664 -1.7204  0.0781
18472TIP3   OH276830   3.753   6.636   5.196 -0.7676  0.3739  0.7847
18472TIP3    H176831   3.728   6.722   5.228 -1.4268  0.5703 -0.2132
18472TIP3    H276832   3.810   6.654   5.120 -0.6062 -0.0707  0.7963
18473TIP3   OH276833   4.879   2.420  12.399  0.3226  0.1221  0.3830
18473TIP3    H176834   4.949   2.454  12.454  1.5248 -1.4869 -0.0627
18473TIP3    H276835   4.837   2.352  12.452  1.5118 -1.4654 -0.6025
18474TIP3   OH276836   1.058   2.355   2.819  0.8340  0.2952 -0.1325
18474TIP3    H176837   1.027   2.394   2.900 -0.6581  0.1123 -0.5838
18474TIP3    H276838   0.980   2.314   2.780  1.2331  1.3651 -2.2258
18475TIP3   OH276839   5.961   0.701  15.094  0.3519 -0.1383 -0.0391
18475TIP3    H176840   5.979   0.782  15.047  2.0595 -1.3146 -1.5539
18475TIP3    H276841   5.976   0.722  15.186  2.0845  0.9559 -0.5303
18476TIP3   OH276842   6.470   5.967   2.442  0.3074 -0.1153 -0.5566
18476TIP3    H176843   6.413   5.899   2.478  0.1865 -0.2127 -0.9264
18476TIP3    H276844   6.558   5.943   2.472  0.1229  0.2132  0.2861
18477TIP3   OH276845   0.824   5.706   4.867 -0.1827 -0.2137 -0.2531
18477TIP3    H176846   0.758   5.658   4.818 -1.7665  2.4164 -0.8866
18477TIP3    H276847   0.826   5.664   4.953 -0.9314 -1.8146 -0.9836
18478TIP3   OH276848   4.283   0.177   1.878 -0.0309  0.5924  0.2407
18478TIP3    H176849   4.337   0.103   1.850 -1.2264 -0.2012 -0.0738
18478TIP3    H276850   4.244   0.210   1.797 -0.6615  0.6086  0.5434
18479TIP3   OH276851   0.086   2.666  11.252 -0.0456  0.5794  0.4608
18479TIP3    H176852   0.063   2.697  11.165 -0.6250  2.3945  1.2076
18479TIP3    H276853   0.001   2.646  11.293  0.0963  1.1892  1.0824
18480TIP3   OH276854   3.115   5.747   6.296  0.0229  0.5064 -0.3553
18480TIP3    H176855   3.198   5.716   6.330 -0.1260  1.8071  1.3455
18480TIP3    H276856   3.087   5.680   6.234  1.3858 -0.9110  0.5103
18481TIP3   OH276857   1.370   4.017   4.463 -0.3782  0.1203 -0.0586
18481TIP3    H176858   1.439   3.975   4.514  0.5938  0.3294 -1.1640
18481TIP3    H276859   1.396   4.005   4.372 -0.0065  3.1225 -0.4506
18482TIP3   OH276860   1.697   1.689   4.723  0.3193  0.9966  0.2187
18482TIP3    H176861   1.654   1.734   4.796 -2.0042  0.1198 -0.5068
18482TIP3    H276862   1.625   1.656   4.669  1.9031 -1.2992 -0.6820
18483TIP3   OH276863   4.499   0.024  17.112 -0.1418 -0.3868 -0.4534
18483TIP3    H176864   4.452   0.009  17.194 -1.3571 -1.0942 -1.2587
18483TIP3    H276865   4.572  -0.037  17.115 -0.3533 -0.6212 -0.0314
18484TIP3   OH276866   2.027   3.196  16.959  0.7783  0.2902  0.4349
18484TIP3    H176867   2.111   3.236  16.982  1.1821 -0.1036 -0.3165
18484TIP3    H276868   2.039   3.165  16.869 -0.2505  0.4370  0.2351
18485TIP3   OH276869   6.402   2.271  12.091 -0.0978  0.4297  0.4095
18485TIP3    H176870   6.425   2.279  11.998 -1.5209  0.0560  0.0029
18485TIP3    H276871   6.479   2.230  12.131 -0.1290 -1.0046 -0.9326
18486TIP3   OH276872   5.224   0.010   1.500  0.0120  0.3516  0.3190
18486TIP3    H176873   5.152   0.001   1.563 -0.4138  0.6188 -0.1221
18486TIP3    H276874   5.257   0.099   1.513 -0.0234  0.3792  0.2248
18487TIP3   OH276875   3.682   0.658   2.865  0.0762 -0.2446  0.2095
18487TIP3    H176876   3.747   0.588   2.858  0.4073 -0.0228  0.9713
18487TIP3    H276877   3.725   0.725   2.918 -0.1561  0.6378 -0.7032
18488TIP3   OH276878   5.388   1.734   1.486 -0.3943 -0.5789  0.4583
18488TIP3    H176879   5.301   1.759   1.518 -0.0892  0.4375  0.5182
18488TIP3    H276880   5.411   1.657   1.538 -1.4837 -1.1878  0.0678
18489TIP3   OH276881   6.703   2.370   4.247 -0.3297 -0.4218  0.1690
18489TIP3    H176882   6.790   2.411   4.254 -0.3373 -0.5035  0.7154
18489TIP3    H276883   6.661   2.418   4.176 -0.1138  0.1171  0.3963
18490TIP3   OH276884   5.332   1.343  12.695 -0.3710 -0.0940  0.1113
18490TIP3    H176885   5.390   1.268  12.712  0.1164  0.6634  2.0816
18490TIP3    H276886   5.245   1.304  12.683  0.0981 -1.0640 -0.2522
18491TIP3   OH276887   0.615   6.358  13.116  0.0655  0.8274  0.6366
18491TIP3    H176888   0.698   6.337  13.074  0.6033  2.0498  1.0192
18491TIP3    H276889   0.604   6.452  13.102  0.7472  1.5406  3.8879
18492TIP3   OH276890   0.773   3.801  13.003 -0.0271 -0.0643 -0.5497
18492TIP3    H176891   0.712   3.765  12.938 -1.3774  2.4227 -0.7846
18492TIP3    H276892   0.824   3.866  12.955 -0.5113  1.2578  0.6624
18493TIP3   OH276893   2.740   3.501  14.336 -0.4390  0.3683  0.1964
18493TIP3    H176894   2.659   3.514  14.386 -0.5260 -1.4527  0.6270
18493TIP3    H276895   2.738   3.407  14.314  1.2875  0.4221 -0.2751
18494TIP3   OH276896   5.367   6.322   1.477 -0.2479 -0.1404  0.0228
18494TIP3    H176897   5.292   6.379   1.461 -0.9498 -0.8884  0.6036
18494TIP3    H276898   5.353   6.286   1.564  0.0754 -1.3516 -0.4021
18495TIP3   OH276899   1.640   0.164   4.439 -0.4527 -0.2237  0.2447
18495TIP3    H176900   1.580   0.090   4.449 -1.0490 -0.2037 -2.4250
18495TIP3    H276901   1.587   0.241   4.461 -0.6098 -0.4012  0.4912
18496TIP3   OH276902   5.274   2.075   4.523 -0.3817  0.4542  0.4888
18496TIP3    H176903   5.231   2.105   4.603  1.0946 -0.6646  1.7492
18496TIP3    H276904   5.303   1.986   4.542  0.9752  0.5520 -0.8974
18497TIP3   OH276905   0.385   2.438  14.996  0.0193  0.1867  0.2194
18497TIP3    H176906   0.289   2.445  15.000  0.1664  1.7623  2.2367
18497TIP3    H276907   0.401   2.376  14.924 -2.5652 -2.2187  1.5222
18498TIP3   OH276908   5.885   1.121   0.867  0.1950  0.1488 -0.5093
18498TIP3    H176909   5.937   1.110   0.946  0.9551  2.0339 -0.6840
18498TIP3    H276910   5.929   1.192   0.819 -1.1260  0.1074 -1.8664
18499TIP3   OH276911   0.366   4.477   5.117 -0.5295 -0.5035  0.2974
18499TIP3    H176912   0.289   4.426   5.093  0.6013 -2.1586  0.0533
18499TIP3    H276913   0.372   4.545   5.049 -1.8961 -0.1934  0.4687
18500TIP3   OH276914   1.178   5.512  14.745  0.1081 -0.2648 -0.1817
18500TIP3    H176915   1.147   5.488  14.832  1.2947 -0.4283  0.2113
18500TIP3    H276916   1.099   5.535  14.697 -0.7371 -1.7729  0.4300
18501TIP3   OH276917   3.230   0.555   0.548 -0.3900  0.1074  0.8898
18501TIP3    H176918   3.228   0.638   0.595 -0.0495  2.0103 -2.2008
18501TIP3    H276919   3.322   0.542   0.525 -0.4591 -1.0811  1.2091
18502TIP3   OH276920   2.068   0.692   3.197  0.5109  0.0530  0.2810
18502TIP3    H176921   2.058   0.680   3.291 -1.1645 -2.3927 -0.1252
18502TIP3    H276922   1.984   0.729   3.168  0.6872 -0.0440 -0.3870
18503TIP3   OH276923   4.060   4.050  13.819 -0.0142 -0.0230  0.0706
18503TIP3    H176924   4.099   3.962  13.818 -1.5605 -0.7300 -0.0200
18503TIP3    H276925   4.116   4.100  13.879 -0.0866 -1.5392  1.4646
18504TIP3   OH276926   5.219   5.526   5.102  0.1595 -0.2804  0.2987
18504TIP3    H176927   5.196   5.487   5.186 -2.0722 -1.1869 -0.6480
18504TIP3    H276928   5.143   5.507   5.046  1.8599 -0.3299 -2.1120
18505TIP3   OH276929   2.077   6.754  17.187 -0.5246  0.1400  0.1471
18505TIP3    H176930   2.095   6.798  17.104 -1.1058 -2.2971 -1.3445
18505TIP3    H276931   2.163   6.749  17.230 -0.1345  1.0264 -0.5009
18506TIP3   OH276932   3.328   4.482  17.154 -0.3538  0.3025  0.3076
18506TIP3    H176933   3.269   4.420  17.111 -1.5323  0.5046  1.5762
18506TIP3    H276934   3.301   4.568  17.122  1.5932  0.2264 -1.8301
18507TIP3   OH276935   1.107   6.457  16.140  0.2864 -0.1255  0.5285
18507TIP3    H176936   1.103   6.364  16.163  2.2857 -0.0705  1.2481
18507TIP3    H276937   1.091   6.459  16.046 -0.8568 -1.0602  0.6678
18508TIP3   OH276938   1.199   4.868  15.284 -0.0898 -0.5273  0.8082
18508TIP3    H176939   1.233   4.844  15.198  1.2946 -1.7451  1.6500
18508TIP3    H276940   1.109   4.835  15.284 -0.2048 -0.2507 -0.2581
18509TIP3   OH276941   1.269   5.870   0.478  0.2120 -0.3199 -0.5189
18509TIP3    H176942   1.186   5.912   0.501  1.1672  1.4387 -0.1562
18509TIP3    H276943   1.244   5.800   0.417 -1.5498  0.0399 -0.2606
18510TIP3   OH276944   5.687   6.236   0.313 -0.0855  0.0608  0.5457
18510TIP3    H176945   5.654   6.153   0.278  0.1880 -0.1204  0.7052
18510TIP3    H276946   5.777   6.216   0.339 -0.1570  0.2969  0.9808
18511TIP3   OH276947   1.663   3.255   5.581 -0.1854  0.5663 -0.1665
18511TIP3    H176948   1.712   3.182   5.618  1.8568  1.6110 -0.6407
18511TIP3    H276949   1.716   3.332   5.600 -1.6868  1.7908 -0.6964
18512TIP3   OH276950   3.773   5.202   5.409 -0.5370 -0.4159 -0.1163
18512TIP3    H176951   3.706   5.221   5.474  0.5026  2.8285  0.1622
18512TIP3    H276952   3.768   5.274   5.346  1.2656 -1.2206 -1.2791
18513TIP3   OH276953   4.694   2.077  11.752  0.0130 -0.0263 -0.3766
18513TIP3    H176954   4.619   2.075  11.812 -1.4733 -0.6783 -2.1653
18513TIP3    H276955   4.739   2.159  11.772 -2.5947  1.6375 -0.8776
18514TIP3   OH276956   4.114   5.656   4.369  0.3145 -0.0227 -0.2587
18514TIP3    H176957   4.058   5.734   4.365 -1.1492 -0.8941  1.5199
18514TIP3    H276958   4.204   5.691   4.365 -0.2477  1.9401  1.8347
18515TIP3   OH276959   1.306   2.834  13.470  0.3354 -0.3346  0.6503
18515TIP3    H176960   1.333   2.920  13.438  1.7051 -0.5917  1.0541
18515TIP3    H276961   1.369   2.773  13.433 -0.0995 -1.0661  1.0766
18516TIP3   OH276962   1.901   6.117   0.305  0.2848 -0.1021  0.3896
18516TIP3    H176963   1.968   6.125   0.237 -2.4516  0.3734 -2.5186
18516TIP3    H276964   1.898   6.203   0.346  0.9484  0.0929  0.0408
18517TIP3   OH276965   6.306   4.556   3.248  0.0210 -1.0974  0.0268
18517TIP3    H176966   6.388   4.520   3.214 -0.2074 -0.8981 -0.7467
18517TIP3    H276967   6.275   4.491   3.311  0.9410 -1.0138  0.5759
18518TIP3   OH276968   2.523   1.751   1.779  0.1522  0.1567  0.4630
18518TIP3    H176969   2.492   1.664   1.806 -0.2328 -0.2929 -1.3083
18518TIP3    H276970   2.475   1.770   1.699 -0.2198  2.3080  1.1360
18519TIP3   OH276971   4.222   4.160  11.639  0.2688  0.1669 -0.9479
18519TIP3    H176972   4.242   4.117  11.556  0.2953  0.3644 -1.0441
18519TIP3    H276973   4.267   4.244  11.634 -0.2816  0.4661 -1.0182
18520TIP3   OH276974   5.052   3.021  15.483  0.6178 -0.0867  0.2345
18520TIP3    H176975   4.993   2.974  15.542  1.4609  0.8765  1.9001
18520TIP3    H276976   5.139   3.010  15.521  1.4945 -0.9849 -1.8581
18521TIP3   OH276977   0.588   3.186  14.248  0.5889  0.2367 -0.1652
18521TIP3    H176978   0.540   3.263  14.279  1.9163  1.2228 -0.4753
18521TIP3    H276979   0.651   3.167  14.318  0.4434 -0.4082 -0.2040
18522TIP3   OH276980   4.616   1.374   2.598 -0.0029 -0.2579 -0.5598
18522TIP3    H176981   4.621   1.426   2.518  1.0107 -0.5700 -0.7092
18522TIP3    H276982   4.706   1.367   2.629 -0.3993  0.0183  0.7271
18523TIP3   OH276983   5.665   6.375   6.264  0.2345  0.1357 -0.0323
18523TIP3    H176984   5.709   6.311   6.319 -1.1006 -1.4594 -0.7377
18523TIP3    H276985   5.654   6.452   6.320 -1.8472 -1.7148  2.2759
18524TIP3   OH276986   0.833   4.992  15.401  0.4407  0.4585  0.7570
18524TIP3    H176987   0.813   5.017  15.311  0.4343  0.9226  0.8854
18524TIP3    H276988   0.758   5.021  15.452  0.6050  0.5256  0.9636
18525TIP3   OH276989   0.372   5.901   0.199  0.1729 -0.1470 -0.6456
18525TIP3    H176990   0.363   5.805   0.194  0.7550 -0.2311 -0.1398
18525TIP3    H276991   0.284   5.931   0.222  0.3912 -0.7160  1.1035
18526TIP3   OH276992   5.349   1.860  12.659  0.1870  0.6386  0.9328
18526TIP3    H176993   5.292   1.930  12.627  0.2279 -0.2798 -1.3373
18526TIP3    H276994   5.422   1.905  12.701 -0.0671  1.9279  0.0263
18527TIP3   OH276995   5.742   2.824  12.122 -0.0707 -0.1354  0.0280
18527TIP3    H176996   5.811   2.817  12.187 -0.0623  0.0244  0.0373
18527TIP3    H276997   5.728   2.734  12.092  2.5854  0.1435 -2.5380
18528TIP3   OH276998   6.695   6.134   1.357 -0.2114  0.0720  0.6614
18528TIP3    H176999   6.609   6.172   1.339  0.1369  0.1161 -1.0762
18528TIP3    H277000   6.690   6.045   1.320  0.2198 -0.2248  1.3007
18529TIP3   OH277001   5.982   5.643  13.299 -0.5637  0.2146  1.3478
18529TIP3    H177002   5.892   5.670  13.280 -0.4657  0.2646  0.9277
18529TIP3    H277003   5.986   5.551  13.271 -0.1233  0.5965  0.0778
18530TIP3   OH277004   5.255   2.982  11.591  0.6335  0.2251  0.2643
18530TIP3    H177005   5.164   3.000  11.614  0.8503  2.9974 -0.6019
18530TIP3    H277006   5.290   2.931  11.664 -1.4015 -0.2473  0.9469
18531TIP3   OH277007   3.980   4.367   0.436  0.1458 -0.1790 -0.5288
18531TIP3    H177008   3.957   4.415   0.356  2.5909 -0.2766 -1.3785
18531TIP3    H277009   3.929   4.286   0.431  0.0870 -0.0810 -1.8728
18532TIP3   OH277010   1.996   3.119  14.170 -0.0528  0.9359  0.1640
18532TIP3    H177011   1.985   3.164  14.086 -1.0218  0.9069  0.2686
18532TIP3    H277012   1.934   3.162  14.229 -0.1708  0.2308  0.5686
18533TIP3   OH277013   2.998   6.639   1.360  0.3043  0.4165  0.2202
18533TIP3    H177014   2.933   6.663   1.425  1.7164  1.0136  1.4743
18533TIP3    H277015   3.078   6.683   1.389  2.1245 -2.8082  0.5643
18534TIP3   OH277016   4.178   6.492   5.691 -1.0156 -0.2705 -0.5724
18534TIP3    H177017   4.136   6.406   5.700  0.2462 -0.7802  0.8677
18534TIP3    H277018   4.201   6.517   5.781  0.1620  0.7835 -1.1334
18535TIP3   OH277019   2.299   0.917  12.920  0.1250 -0.1841 -0.1193
18535TIP3    H177020   2.295   0.837  12.867  1.9452 -0.3614 -0.0510
18535TIP3    H277021   2.391   0.943  12.918 -0.0274  0.6701  1.7044
18536TIP3   OH277022   1.470   2.801  13.167 -0.4392  0.2531 -0.2020
18536TIP3    H177023   1.564   2.802  13.151 -0.1624  0.0413  1.2523
18536TIP3    H277024   1.440   2.888  13.141  0.5801  1.1665  1.5052
18537TIP3   OH277025   3.227   2.159   6.133 -0.3741  0.2110 -0.5044
18537TIP3    H177026   3.295   2.216   6.170 -1.8112  1.0907  0.8991
18537TIP3    H277027   3.240   2.166   6.038  0.7514  1.2848 -0.3085
18538TIP3   OH277028   0.526   5.215  16.847 -0.2379 -0.2983 -0.5445
18538TIP3    H177029   0.543   5.273  16.773 -1.1871  0.2786 -0.3328
18538TIP3    H277030   0.433   5.230  16.868 -0.1784 -1.0094  0.2769
18539TIP3   OH277031   6.091   3.231  11.507  0.2698  0.7638 -0.1206
18539TIP3    H177032   6.057   3.227  11.418 -1.0384  2.5001  0.2499
18539TIP3    H277033   6.106   3.139  11.531  0.8189  0.2712 -2.1494
18540TIP3   OH277034   6.509   3.601   5.673  0.0363 -0.0756  0.1051
18540TIP3    H177035   6.525   3.545   5.596  0.9471 -1.9138  1.5526
18540TIP3    H277036   6.414   3.605   5.679 -0.0582  0.2251 -1.1876
18541TIP3   OH277037   6.042   6.746  13.431  0.0550 -0.1867  0.5836
18541TIP3    H177038   6.010   6.809  13.496 -1.5728 -2.3162  1.9621
18541TIP3    H277039   6.014   6.782  13.347 -2.6173  0.0045  1.4686
18542TIP3   OH277040   1.100   6.573  15.048 -0.0440  0.6307 -0.6714
18542TIP3    H177041   1.090   6.637  14.978  2.1245 -0.8268 -2.4366
18542TIP3    H277042   1.070   6.491  15.010 -2.0474  0.3480  1.2941
18543TIP3   OH277043   5.670   1.866   0.647 -0.3154 -0.0252  0.0678
18543TIP3    H177044   5.754   1.872   0.692 -0.0928  1.1507 -0.4651
18543TIP3    H277045   5.625   1.792   0.689  0.3249  0.3418  1.4500
18544TIP3   OH277046   2.304   0.423  12.075  0.2398 -0.2108  0.1205
18544TIP3    H177047   2.272   0.393  12.160 -1.2819 -1.2251 -0.7750
18544TIP3    H277048   2.230   0.468  12.035  0.2550 -1.5625 -1.5179
18545TIP3   OH277049   5.749   1.497   4.867  0.0274  0.1080 -0.0562
18545TIP3    H177050   5.798   1.552   4.928 -0.8103  0.7474  0.0544
18545TIP3    H277051   5.811   1.476   4.798 -0.1955  3.0377 -1.2824
18546TIP3   OH277052   3.130   1.189  15.246  0.3445  1.0736  0.2516
18546TIP3    H177053   3.071   1.264  15.243 -0.2785  0.5923 -2.8015
18546TIP3    H277054   3.072   1.113  15.248  0.8446  0.6265 -1.1015
18547TIP3   OH277055   2.445   5.620  11.270  0.1923  0.7604 -0.8339
18547TIP3    H177056   2.479   5.532  11.282 -0.5189  0.6072  0.2197
18547TIP3    H277057   2.523   5.674  11.257  0.6456  0.0113 -1.2899
18548TIP3   OH277058   1.722   2.493  12.009 -0.4273  0.3445  0.2472
18548TIP3    H177059   1.786   2.531  12.070 -0.8424 -1.9549  2.2552
18548TIP3    H277060   1.766   2.417  11.971 -1.4216 -0.3972  0.5225
18549TIP3   OH277061   1.868   0.036  12.144 -0.1299 -0.6333 -0.2500
18549TIP3    H177062   1.836   0.074  12.226 -0.3248  1.3053 -1.1534
18549TIP3    H277063   1.962   0.051  12.146 -0.1545 -0.4417 -0.4250
18550TIP3   OH277064   0.326   0.774  16.689  0.5195  0.0263 -0.1176
18550TIP3    H177065   0.378   0.847  16.655  2.2437 -1.8657 -1.8044
18550TIP3    H277066   0.279   0.741  16.613 -0.2066 -0.6481  0.6127
18551TIP3   OH277067   2.885   3.664   5.800 -0.1498 -0.0332  0.3300
18551TIP3    H177068   2.965   3.623   5.830  0.6539  2.1962  1.4327
18551TIP3    H277069   2.822   3.592   5.792  1.6511 -1.6763  0.3997
18552TIP3   OH277070   3.737   4.905   2.102  0.0920  0.2287  0.1999
18552TIP3    H177071   3.668   4.878   2.163  0.4283 -0.2817  0.3673
18552TIP3    H277072   3.696   4.973   2.048 -0.8089 -0.6321 -0.2442
18553TIP3   OH277073   4.624   4.072   4.241 -0.5939  0.0541 -0.1507
18553TIP3    H177074   4.620   4.152   4.189  0.3558  0.5060  0.4386
18553TIP3    H277075   4.684   4.016   4.193 -3.5217 -1.6147 -2.2180
18554TIP3   OH277076   4.210   3.067  16.884 -0.0637 -1.0284  0.2362
18554TIP3    H177077   4.290   3.032  16.845  0.9748 -1.4925  2.6363
18554TIP3    H277078   4.229   3.159  16.902 -0.1374 -1.0827  0.6051
18555TIP3   OH277079   0.124   0.839  17.032  0.0783 -0.5248  0.6210
18555TIP3    H177080   0.081   0.802  17.109 -0.1670 -1.1828  0.1731
18555TIP3    H277081   0.199   0.781  17.016  1.3642  0.7797  1.5746
18556TIP3   OH277082   4.905   0.910  17.298 -0.7499 -0.1110 -0.2167
18556TIP3    H177083   4.831   0.964  17.269 -0.5260 -0.2341 -1.0439
18556TIP3    H277084   4.924   0.941  17.387 -0.0039  1.8720 -1.0114
18557TIP3   OH277085   0.998   1.743   0.713  0.4504  0.6470  0.0466
18557TIP3    H177086   1.042   1.735   0.797  1.0151  2.5513 -0.0435
18557TIP3    H277087   1.061   1.711   0.649  0.3016 -0.0792  0.2489
18558TIP3   OH277088   0.151   3.481  17.004 -0.1180 -0.3471 -0.1008
18558TIP3    H177089   0.243   3.499  16.982 -0.6140 -0.4542 -2.4831
18558TIP3    H277090   0.138   3.390  16.979 -0.5858 -0.6981  1.3553
18559TIP3   OH277091   3.587   5.968  14.783 -0.0132 -0.6363  0.5175
18559TIP3    H177092   3.571   6.051  14.826  0.5304 -1.7212  2.9735
18559TIP3    H277093   3.679   5.970  14.759 -0.3331 -0.0034 -0.7456
18560TIP3   OH277094   2.197   1.605  15.316  0.8514 -0.0416  0.9567
18560TIP3    H177095   2.257   1.676  15.336  0.2602  0.5305  0.7505
18560TIP3    H277096   2.251   1.538  15.274  0.7482  1.9853 -2.7270
18561TIP3   OH277097   1.263   1.909  15.156 -0.1095 -0.4939  0.5489
18561TIP3    H177098   1.237   1.963  15.081 -0.8670  0.0770  1.1951
18561TIP3    H277099   1.256   1.969  15.231 -0.1612 -1.2756  1.1759
18562TIP3   OH277100   3.853   3.334   0.784 -0.1216  0.1572  0.3584
18562TIP3    H177101   3.770   3.287   0.772 -0.6263  1.1147  0.0774
18562TIP3    H277102   3.912   3.267   0.820 -0.2159 -1.2750 -1.9193
18563TIP3   OH277103   0.587   4.329  12.813  0.0748  0.0071  1.1713
18563TIP3    H177104   0.594   4.243  12.772 -0.2603  0.0298  1.0649
18563TIP3    H277105   0.584   4.390  12.739 -0.1943  0.0718  1.2336
18564TIP3   OH277106   4.987   1.647   1.964  0.1820  0.3120 -0.8012
18564TIP3    H177107   5.037   1.585   2.017 -0.0483  0.6498 -0.1752
18564TIP3    H277108   5.016   1.733   1.994  1.1769  0.5342 -2.3041
18565TIP3   OH277109   0.356   5.341   0.221  0.5321  0.2196 -0.3727
18565TIP3    H177110   0.272   5.308   0.190  1.0787 -1.9887  0.3309
18565TIP3    H277111   0.346   5.348   0.316  0.3716  2.3961 -0.5133
18566TIP3   OH277112   3.274   5.600  14.568 -0.2670 -0.8226  0.1222
18566TIP3    H177113   3.305   5.640  14.487  1.5294 -2.4046 -0.0229
18566TIP3    H277114   3.180   5.618  14.568  0.2378  2.5958 -0.3193
18567TIP3   OH277115   0.140   5.342  12.363 -0.8897  0.3155 -0.0553
18567TIP3    H177116   0.164   5.431  12.339 -3.2554  1.3639  1.1593
18567TIP3    H277117   0.212   5.312  12.419  0.7176  0.7861 -1.7578
18568TIP3   OH277118   3.165   3.172  14.220  0.3331  0.3629 -0.0439
18568TIP3    H177119   3.106   3.205  14.288 -0.7008 -0.9017 -0.2928
18568TIP3    H277120   3.176   3.245  14.159 -1.6133  0.3935 -0.4046
18569TIP3   OH277121   1.525   3.039  12.750  0.4991  0.6397  0.0830
18569TIP3    H177122   1.467   3.034  12.674  2.1370  3.4304 -1.5346
18569TIP3    H277123   1.559   2.951  12.761 -2.9822 -0.8373  0.3766
18570TIP3   OH277124   2.013   0.617   4.617  0.0962  0.0866 -0.4494
18570TIP3    H177125   1.975   0.550   4.559 -1.7723 -0.0838  0.8680
18570TIP3    H277126   1.937   0.666   4.649  1.0504  0.1960  1.7911
18571TIP3   OH277127   2.320   6.407   2.156 -0.6115  0.8480  0.4987
18571TIP3    H177128   2.282   6.347   2.220 -0.8127  0.7939  0.3311
18571TIP3    H277129   2.414   6.402   2.171 -0.5458 -0.3200 -0.2192
18572TIP3   OH277130   3.264   1.919  13.992  0.1522 -0.0925 -0.0098
18572TIP3    H177131   3.355   1.913  13.965 -0.2128  1.3537 -1.7426
18572TIP3    H277132   3.244   2.013  13.989 -1.0159 -0.2423  1.6834
18573TIP3   OH277133   0.957   2.786  12.192  0.1751  0.5456  0.8566
18573TIP3    H177134   0.960   2.749  12.280 -2.3086 -3.0922 -0.3671
18573TIP3    H277135   0.931   2.877  12.205  2.1847  0.8110  3.9152
18574TIP3   OH277136   6.402   5.177   2.195  0.3560  0.0394 -0.4523
18574TIP3    H177137   6.425   5.226   2.274 -0.6522 -1.0099  0.5216
18574TIP3    H277138   6.408   5.085   2.221 -1.0286 -0.3110 -1.2799
18575TIP3   OH277139   4.657   2.409   1.296  0.1766  0.2693  0.4202
18575TIP3    H177140   4.728   2.471   1.278  0.6161 -0.9838 -3.1726
18575TIP3    H277141   4.589   2.461   1.337  2.1108  2.1351  1.4803
18576TIP3   OH277142   2.118   1.405   3.938 -0.0290 -0.0784 -0.2391
18576TIP3    H177143   2.212   1.421   3.929 -0.0065 -0.2422 -0.2982
18576TIP3    H277144   2.080   1.450   3.862  0.0071 -0.0680 -0.2514
18577TIP3   OH277145   5.880   5.520   1.720  0.2792  0.5622 -0.1208
18577TIP3    H177146   5.906   5.498   1.630  1.0701  0.7928  0.0477
18577TIP3    H277147   5.856   5.436   1.759  0.5125  0.3795 -0.3661
18578TIP3   OH277148   2.021   3.056   2.959  0.3198 -0.1380  0.0783
18578TIP3    H177149   1.956   3.122   2.934 -0.5353 -0.0655  2.2129
18578TIP3    H277150   1.978   2.972   2.944  0.6246 -0.1533 -0.7083
18579TIP3   OH277151   2.836   0.661   0.567  0.1218  1.0995  0.2996
18579TIP3    H177152   2.835   0.636   0.660  1.6875  1.0099  0.3136
18579TIP3    H277153   2.891   0.739   0.564  1.2275  0.3159 -0.7320
18580TIP3   OH277154   4.558   5.500   2.161  0.3082 -0.3180 -0.3586
18580TIP3    H177155   4.635   5.443   2.159  0.4015 -0.3477  1.5687
18580TIP3    H277156   4.484   5.442   2.144  0.4669 -0.9148  0.8722
18581TIP3   OH277157   2.691   0.903  15.188 -0.1471  0.1658 -0.6404
18581TIP3    H177158   2.683   0.822  15.137  0.6481 -0.4376  0.1488
18581TIP3    H277159   2.722   0.968  15.126 -0.4715 -0.2214 -1.2144
18582TIP3   OH277160   6.568   1.159   5.332  0.3900  0.3907  0.9338
18582TIP3    H177161   6.561   1.114   5.416 -1.7430 -0.2150  0.4754
18582TIP3    H277162   6.625   1.103   5.280 -0.2811 -0.5256  1.1699
18583TIP3   OH277163   0.967   1.971   6.006  0.4363 -0.0222  0.3403
18583TIP3    H177164   0.877   1.973   6.039  0.6806 -0.7642  1.1077
18583TIP3    H277165   0.976   1.884   5.966  0.7898  0.0760  0.2026
18584TIP3   OH277166   5.794   5.929  11.589 -0.4842 -0.3088 -0.0277
18584TIP3    H177167   5.830   5.997  11.646  0.0881  0.7018 -1.5468
18584TIP3    H277168   5.780   5.972  11.505 -3.2513 -1.2254 -0.1274
18585TIP3   OH277169   5.739   1.118  12.497 -0.1947  1.0532 -0.1275
18585TIP3    H177170   5.797   1.044  12.515 -1.4070 -0.6806 -2.7506
18585TIP3    H277171   5.671   1.112  12.564  1.6045  2.0485  1.8872
18586TIP3   OH277172   0.923   1.939   3.989 -0.3969 -0.1103 -0.5069
18586TIP3    H177173   0.896   1.861   4.038 -1.1864 -0.6378 -1.7361
18586TIP3    H277174   1.017   1.945   4.004 -0.1814 -1.7589 -0.9880
18587TIP3   OH277175   3.495   1.722   3.586 -0.4695  0.6024  0.4614
18587TIP3    H177176   3.431   1.708   3.656 -3.3728 -0.4581 -2.1705
18587TIP3    H277177   3.563   1.656   3.603 -0.9262  0.5557  2.3942
18588TIP3   OH277178   3.881   2.989  17.052 -0.3308  0.3140  0.3703
18588TIP3    H177179   3.940   3.064  17.059  0.5924 -0.4987  1.7925
18588TIP3    H277180   3.877   2.971  16.958  0.8315  1.0613  0.1535
18589TIP3   OH277181   3.787   5.495   3.608  0.2935  0.5919  0.0774
18589TIP3    H177182   3.743   5.575   3.639 -0.1461  0.5210 -0.3533
18589TIP3    H277183   3.721   5.451   3.555  1.3071  1.1514 -1.7304
18590TIP3   OH277184   3.338   4.579   2.974  0.0142  0.3837 -1.0278
18590TIP3    H177185   3.382   4.495   2.956  0.6120  0.6185 -0.7114
18590TIP3    H277186   3.334   4.583   3.070 -0.8011  0.3192 -1.0569
18591TIP3   OH277187   2.074   3.666  14.623 -0.2667 -0.2260 -0.2499
18591TIP3    H177188   1.986   3.701  14.637  0.3426  0.4642  2.4463
18591TIP3    H277189   2.083   3.599  14.691  1.6110  0.4009  0.1598
18592TIP3   OH277190   3.485   5.497   2.356 -0.2269  0.2832 -0.3489
18592TIP3    H177191   3.431   5.441   2.412  0.6644 -1.4241 -1.1322
18592TIP3    H277192   3.431   5.513   2.278 -0.2440  0.0075 -0.3920
18593TIP3   OH277193   4.135   2.417  15.960  0.1389  0.3506  0.2183
18593TIP3    H177194   4.141   2.322  15.967 -0.8625  0.2653  0.1805
18593TIP3    H277195   4.221   2.449  15.986  0.8828 -0.6165 -0.9393
18594TIP3   OH277196   2.617   0.473   0.562  0.3034  0.3395 -0.3180
18594TIP3    H177197   2.694   0.530   0.565  1.0830 -0.7257  0.5824
18594TIP3    H277198   2.544   0.534   0.551  1.2118  1.4185 -0.6059
18595TIP3   OH277199   0.043   5.674   5.160 -0.9750 -0.2953  0.0373
18595TIP3    H177200  -0.021   5.674   5.231 -1.9383  0.0619 -0.8142
18595TIP3    H277201   0.008   5.736   5.096  1.7293  2.3488  0.8943
18596TIP3   OH277202   2.603   5.831  11.121  0.8120 -0.4241  0.0101
18596TIP3    H177203   2.663   5.902  11.098  0.7687  0.1698  1.5741
18596TIP3    H277204   2.518   5.873  11.129  0.5413 -0.9026 -0.3158
18597TIP3   OH277205   6.613   6.217  12.098 -0.4317 -0.1893  0.3657
18597TIP3    H177206   6.644   6.263  12.176 -0.2731 -1.1064  0.8571
18597TIP3    H277207   6.645   6.270  12.025  2.2369 -0.9862  0.8362
18598TIP3   OH277208   0.206   5.917  12.676 -0.0634  0.6340 -0.2388
18598TIP3    H177209   0.230   5.827  12.654  0.3961  0.5775  0.4415
18598TIP3    H277210   0.290   5.959  12.697 -0.4304  0.7796  0.9948
18599TIP3   OH277211   1.580   5.698  14.296 -0.0021  0.1960  0.2900
18599TIP3    H177212   1.512   5.741  14.244 -3.1717 -1.9547  2.2969
18599TIP3    H277213   1.622   5.769  14.344  0.5947  1.8137 -2.4593
18600TIP3   OH277214   5.680   1.174  10.871  0.0843 -0.2221 -0.3184
18600TIP3    H177215   5.607   1.215  10.917  0.4462  0.5646 -0.4313
18600TIP3    H277216   5.691   1.090  10.914  0.5396  0.5679  1.1747
18601TIP3   OH277217   3.049   4.194   1.005  0.3156 -0.1071  0.2491
18601TIP3    H177218   3.117   4.182   0.938  2.1056 -0.4295  2.0086
18601TIP3    H277219   3.085   4.151   1.083 -1.1212  1.2929  1.7611
18602TIP3   OH277220   6.330   4.440  16.819  0.5085 -0.3335 -0.0000
18602TIP3    H177221   6.245   4.465  16.855  0.4093  2.5286 -1.8641
18602TIP3    H277222   6.339   4.347  16.840 -2.0110 -0.1968  2.2437
18603TIP3   OH277223   0.798   1.456  16.305 -0.2189 -0.1418 -0.1116
18603TIP3    H177224   0.803   1.545  16.338  0.9167  0.5689 -2.0780
18603TIP3    H277225   0.889   1.425  16.302 -0.4309 -0.7424 -0.9954
18604TIP3   OH277226   3.072   0.350  13.553  0.5802  0.6948  0.0974
18604TIP3    H177227   3.142   0.323  13.612  0.3966 -1.3706 -0.5503
18604TIP3    H277228   2.994   0.354  13.609  1.1657  3.2107  0.8652
18605TIP3   OH277229   0.792   0.313  12.663 -0.1594  0.1070 -0.1005
18605TIP3    H177230   0.863   0.293  12.602 -1.4707  0.6204 -1.8920
18605TIP3    H277231   0.772   0.405  12.647 -0.3652  0.3310  1.3251
18606TIP3   OH277232   0.821   1.909  13.052 -0.8320 -0.4584  0.3458
18606TIP3    H177233   0.730   1.900  13.081 -0.8267 -1.2777  0.1382
18606TIP3    H277234   0.868   1.841  13.100 -0.0952  0.6906  1.3238
18607TIP3   OH277235   1.641   4.150  14.402  0.4993 -0.2233  0.5956
18607TIP3    H177236   1.694   4.081  14.362 -1.2250 -0.1707 -2.0108
18607TIP3    H277237   1.567   4.102  14.440 -0.4494  0.0750 -0.7933
18608TIP3   OH277238   3.470   0.726  12.730  0.4509  0.4057 -0.0918
18608TIP3    H177239   3.556   0.768  12.724  1.6741 -1.8039  0.7620
18608TIP3    H277240   3.441   0.720  12.639  1.9927 -0.2871 -0.5828
18609TIP3   OH277241   0.003   6.329  13.889  0.1259  0.1765 -0.4155
18609TIP3    H177242  -0.030   6.392  13.826 -1.6582 -0.4617 -0.1679
18609TIP3    H277243  -0.050   6.342  13.967 -2.9964 -3.9485 -1.4863
18610TIP3   OH277244   1.531   3.486  12.181  0.0484 -0.3242 -0.3907
18610TIP3    H177245   1.548   3.563  12.236 -0.2779 -0.2140 -0.4421
18610TIP3    H277246   1.442   3.460  12.203 -0.9858  1.1291 -2.5660
18611TIP3   OH277247   2.392   1.500  14.468 -0.5345  0.1825 -0.2759
18611TIP3    H177248   2.311   1.461  14.435  0.1724 -0.1296 -1.6986
18611TIP3    H277249   2.442   1.425  14.500 -0.4520  0.2830 -0.1700
18612TIP3   OH277250   5.829   4.008  17.169  0.0792 -0.6412 -0.8558
18612TIP3    H177251   5.814   4.028  17.076 -3.2151 -0.4231 -0.4051
18612TIP3    H277252   5.821   4.093  17.213 -1.7749 -1.1307 -0.1283
18613TIP3   OH277253   3.906   6.507  17.273 -0.2868  0.0413 -0.5793
18613TIP3    H177254   3.969   6.457  17.221  0.3987 -0.7878  1.0059
18613TIP3    H277255   3.882   6.449  17.345 -0.3764  1.5689  0.6622
18614TIP3   OH277256   0.114   5.629   2.810 -0.5561 -0.1942 -0.0830
18614TIP3    H177257   0.077   5.717   2.806 -0.8525 -0.3061  0.2460
18614TIP3    H277258   0.154   5.617   2.723  0.2156  0.5778  0.1455
18615TIP3   OH277259   4.361   2.925  15.749 -0.5509 -0.1317  0.2634
18615TIP3    H177260   4.351   2.976  15.669  0.6929 -1.8247 -1.0245
18615TIP3    H277261   4.451   2.894  15.748 -0.7000 -0.7700  1.9827
18616TIP3   OH277262   1.911   0.762  14.567 -0.0607  0.3554  0.5522
18616TIP3    H177263   1.954   0.719  14.494 -1.4087 -0.7141  0.3254
18616TIP3    H277264   1.917   0.856  14.548 -1.6487  0.0785 -1.7330
18617TIP3   OH277265   3.437   0.886   4.573 -0.1935  0.0230  0.0569
18617TIP3    H177266   3.479   0.845   4.497  0.8519  0.9754  0.1122
18617TIP3    H277267   3.346   0.900   4.545  0.3250  0.8987 -1.2374
18618TIP3   OH277268   2.146   2.723  15.205  0.0739 -0.4498 -0.2259
18618TIP3    H177269   2.224   2.761  15.163 -2.5146  2.3878 -2.9812
18618TIP3    H277270   2.122   2.787  15.272  0.3301 -1.5583  0.9541
18619TIP3   OH277271   0.423   4.703  11.801 -0.4016 -0.1064 -0.3067
18619TIP3    H177272   0.334   4.669  11.801 -0.0697 -1.0879 -1.4349
18619TIP3    H277273   0.420   4.778  11.742 -1.0272  1.5809  1.7829
18620TIP3   OH277274   1.155   3.122  11.204  0.1519 -0.6778 -0.5358
18620TIP3    H177275   1.214   3.063  11.252  0.2641 -0.4725 -0.4223
18620TIP3    H277276   1.148   3.083  11.117  0.0545 -0.9783 -0.3959
18621TIP3   OH277277   0.003   5.906   2.866  0.3456 -0.3257 -0.0020
18621TIP3    H177278  -0.056   5.908   2.941  2.0733  0.5050  1.4050
18621TIP3    H277279   0.045   5.992   2.866 -0.6493  0.2698 -2.8442
18622TIP3   OH277280   1.665   3.408   4.111  1.1143  0.4393  0.3303
18622TIP3    H177281   1.719   3.479   4.145 -0.7773  1.4162  1.4385
18622TIP3    H277282   1.664   3.422   4.016  1.1786  1.6187  0.4892
18623TIP3   OH277283   6.039   6.142  16.033 -0.5217 -0.5053  0.9389
18623TIP3    H177284   5.957   6.096  16.054 -0.2917 -0.6707  1.4871
18623TIP3    H277285   6.107   6.093  16.079 -0.2752  0.4052  1.5963
18624TIP3   OH277286   4.133   4.055   1.649 -0.1260  0.0213  0.4007
18624TIP3    H177287   4.219   4.036   1.612 -0.7354 -1.0412 -0.5700
18624TIP3    H277288   4.129   4.150   1.653  1.2589  0.0777  0.8924
18625TIP3   OH277289   4.843   3.191  17.231 -0.1819 -0.1801  0.2014
18625TIP3    H177290   4.815   3.267  17.282 -0.7021 -0.9649  1.1179
18625TIP3    H277291   4.931   3.213  17.201 -0.5313  0.9912  0.0122
18626TIP3   OH277292   3.107   6.328   3.936  0.3244 -0.4811 -0.5321
18626TIP3    H177293   3.087   6.271   3.862 -1.4361 -0.9359  0.2372
18626TIP3    H277294   3.149   6.271   4.000 -1.4767 -0.9905  0.2554
18627TIP3   OH277295   6.688   3.845   5.239 -0.1989 -0.2708 -0.2062
18627TIP3    H177296   6.630   3.785   5.192  1.7442 -1.3243 -1.3625
18627TIP3    H277297   6.744   3.789   5.292  1.0278  0.5685 -0.5663
18628TIP3   OH277298   6.261   5.776   5.347  0.3943 -0.2204  0.3081
18628TIP3    H177299   6.327   5.787   5.279 -0.9538 -0.3645 -1.0660
18628TIP3    H277300   6.191   5.837   5.324 -0.1952 -0.4296  1.4521
18629TIP3   OH277301   3.820   3.270  13.298 -0.2369  0.0704 -0.4020
18629TIP3    H177302   3.856   3.333  13.235  0.0332 -0.1425 -0.4591
18629TIP3    H277303   3.837   3.309  13.384  0.8744 -0.4167 -0.3881
18630TIP3   OH277304   3.176   0.508  13.868 -0.5852 -0.5145  0.2943
18630TIP3    H177305   3.096   0.516  13.815 -0.8940 -1.2119  0.6309
18630TIP3    H277306   3.247   0.504  13.804 -0.8487 -0.2149 -0.0220
18631TIP3   OH277307   2.193   2.358  13.233  0.7582 -0.1444  0.1978
18631TIP3    H177308   2.209   2.340  13.141  0.4253 -0.6793  0.2373
18631TIP3    H277309   2.155   2.446  13.235 -1.4790 -1.0235 -0.4294
18632TIP3   OH277310   5.655   0.854  14.644 -0.5548  0.0195  0.1567
18632TIP3    H177311   5.616   0.859  14.557 -0.9875 -0.1557  0.3412
18632TIP3    H277312   5.705   0.773  14.643  0.8985  0.8777 -0.5223
18633TIP3   OH277313   3.283   5.680  11.922  0.0114 -0.0957 -0.5094
18633TIP3    H177314   3.284   5.760  11.869 -0.0209 -0.8601 -1.6760
18633TIP3    H277315   3.215   5.696  11.988 -0.9400  0.3148 -1.5618
18634TIP3   OH277316   4.764   6.224   5.722  0.3225  0.0960 -0.4482
18634TIP3    H177317   4.756   6.144   5.670  0.4351  1.4216 -2.6673
18634TIP3    H277318   4.674   6.248   5.743  0.1910  0.1780 -1.0847
18635TIP3   OH277319   2.890   1.885   4.447 -0.3887  0.7788 -0.4028
18635TIP3    H177320   2.897   1.917   4.537 -3.1806  0.6025 -0.0089
18635TIP3    H277321   2.834   1.808   4.453  0.5436 -0.1056 -2.1562
18636TIP3   OH277322   2.442   6.439  13.389 -0.1466 -0.1923  0.2929
18636TIP3    H177323   2.377   6.401  13.448  1.5692 -0.1010  2.3378
18636TIP3    H277324   2.467   6.367  13.331 -0.4655 -0.8258  0.9333
18637TIP3   OH277325   5.560   1.179   3.071  0.0577  0.0589 -0.2347
18637TIP3    H177326   5.544   1.095   3.113 -1.2600  0.6991  0.6295
18637TIP3    H277327   5.629   1.162   3.007  0.5710 -1.4317  0.6674
18638TIP3   OH277328   4.098   1.202  16.182  0.0561  0.0516  0.0621
18638TIP3    H177329   4.172   1.207  16.121  0.7064  0.0196  0.8277
18638TIP3    H277330   4.125   1.137  16.247 -1.6559 -1.8187 -0.9540
18639TIP3   OH277331   1.157   2.282   1.777  0.3483  0.2004 -0.4542
18639TIP3    H177332   1.116   2.221   1.717 -0.4090  1.4288 -1.2321
18639TIP3    H277333   1.084   2.331   1.816  0.9655  1.4641 -0.8127
18640TIP3   OH277334   4.787   5.281   2.111  0.1683 -0.2071  0.0775
18640TIP3    H177335   4.822   5.290   2.023  0.4125 -0.0028  0.1943
18640TIP3    H277336   4.738   5.199   2.110  0.2091 -0.2254 -0.2338
18641TIP3   OH277337   1.893   5.892   4.777 -0.4414 -0.8924 -0.4759
18641TIP3    H177338   1.887   5.975   4.824  0.7941 -1.0326 -0.0308
18641TIP3    H277339   1.986   5.881   4.759 -0.9078 -0.0382 -4.4970
18642TIP3   OH277340   6.286   5.514  11.542  0.2531  0.3660 -0.0189
18642TIP3    H177341   6.214   5.472  11.495  0.1320 -0.7428  1.1054
18642TIP3    H277342   6.365   5.468  11.512  0.2544  0.1252  0.3585
18643TIP3   OH277343   1.315   1.095  12.103  0.2010  0.6110  0.3194
18643TIP3    H177344   1.394   1.115  12.153 -0.6343  0.0943  1.9445
18643TIP3    H277345   1.265   1.177  12.104 -0.0294  0.4716  0.7856
18644TIP3   OH277346   3.061   2.271  12.182  0.1865 -0.3294  0.0936
18644TIP3    H177347   3.109   2.206  12.233  0.1749  0.3106  0.9440
18644TIP3    H277348   3.098   2.355  12.210 -0.5603  0.0906 -0.1642
18645TIP3   OH277349   3.440   0.074   2.178  0.2410  0.4591 -0.0444
18645TIP3    H177350   3.459   0.125   2.257 -1.4974  0.1809  0.5986
18645TIP3    H277351   3.345   0.080   2.168  0.4838  1.2480 -2.6659
18646TIP3   OH277352   2.348   0.730  17.291  0.1406 -0.4043  0.7766
18646TIP3    H177353   2.444   0.732  17.291  0.2005 -1.4677 -1.3741
18646TIP3    H277354   2.322   0.819  17.269  0.6367 -0.2490  0.8126
18647TIP3   OH277355   3.701   5.276   2.141 -0.5423 -0.2912 -0.0485
18647TIP3    H177356   3.720   5.225   2.063 -3.1127 -1.4305 -0.0503
18647TIP3    H277357   3.680   5.211   2.208  0.0339  0.6969  1.1306
18648TIP3   OH277358   2.785   6.165  14.587 -0.1863 -0.3725  0.2454
18648TIP3    H177359   2.698   6.141  14.618  0.0494 -1.1028  0.3585
18648TIP3    H277360   2.811   6.239  14.642 -1.1298  0.5094 -0.4464
18649TIP3   OH277361   4.505   1.549   1.423 -0.2237  0.2451 -0.0221
18649TIP3    H177362   4.472   1.558   1.334 -1.6523 -0.8825  0.3433
18649TIP3    H277363   4.476   1.462   1.451  2.4929 -0.5467  0.6447
18650TIP3   OH277364   2.979   4.251   3.414 -0.1878 -0.2209  0.1249
18650TIP3    H177365   2.906   4.289   3.365 -0.3867  0.9124  1.2555
18650TIP3    H277366   3.055   4.261   3.356 -0.9361 -1.7075 -1.2001
18651TIP3   OH277367   5.787   5.751  15.530 -0.0442  0.0074  0.2527
18651TIP3    H177368   5.826   5.675  15.486  0.0066 -0.8214  1.6807
18651TIP3    H277369   5.709   5.717  15.573 -0.1972  0.8296  0.6427
18652TIP3   OH277370   4.484   4.526  17.051  0.0700 -0.0634 -0.3004
18652TIP3    H177371   4.577   4.524  17.076  0.0928 -1.7182 -0.4145
18652TIP3    H277372   4.477   4.464  16.979 -1.2141 -0.3041  0.0133
18653TIP3   OH277373   4.221   3.327  12.194 -0.1450  0.6147  0.2094
18653TIP3    H177374   4.158   3.382  12.241  0.4041 -0.6921  2.6811
18653TIP3    H277375   4.246   3.260  12.258 -0.4131 -2.2573 -2.4277
18654TIP3   OH277376   3.591   1.246  15.162 -0.2045  0.3337 -0.3585
18654TIP3    H177377   3.531   1.240  15.088  0.2387 -0.0041 -0.6960
18654TIP3    H277378   3.553   1.312  15.219 -1.7212 -0.9434  0.1827
18655TIP3   OH277379   3.108   3.546  14.887 -0.3772  0.1563 -0.0629
18655TIP3    H177380   3.036   3.485  14.900  0.5513 -0.8855  0.2725
18655TIP3    H277381   3.101   3.608  14.960 -0.2983 -0.5724  0.5675
18656TIP3   OH277382   6.139   2.133  12.801  0.4581  0.0538 -0.0567
18656TIP3    H177383   6.152   2.208  12.744  0.9029 -0.1719 -0.2624
18656TIP3    H277384   6.202   2.147  12.873 -0.7143  0.7921  0.8638
18657TIP3   OH277385   1.342   4.282  16.519  0.2640  0.2001 -0.3219
18657TIP3    H177386   1.261   4.268  16.568 -0.1340  1.6571 -0.5139
18657TIP3    H277387   1.312   4.316  16.434  1.0467 -0.0260 -0.6925
18658TIP3   OH277388   2.877   2.808  11.495 -0.1832  0.1964 -0.1728
18658TIP3    H177389   2.922   2.740  11.545  0.1400 -1.0494 -2.0450
18658TIP3    H277390   2.794   2.821  11.541  0.7280  0.2381  1.5330
18659TIP3   OH277391   1.646   3.336  14.678  0.2222  0.1417  0.2454
18659TIP3    H177392   1.624   3.245  14.697  0.2905  0.3195  1.2481
18659TIP3    H277393   1.741   3.335  14.662 -0.0404 -0.2115 -1.4374
18660TIP3   OH277394   5.425   1.556  12.541  1.2812 -0.2149  0.0264
18660TIP3    H177395   5.392   1.474  12.579  0.2111 -0.5249 -1.4807
18660TIP3    H277396   5.362   1.622  12.569  0.9485 -0.3007 -0.5016
18661TIP3   OH277397   6.124   4.585  16.937 -0.2525  0.6612 -0.1997
18661TIP3    H177398   6.031   4.577  16.914 -0.2148  0.0506 -0.1443
18661TIP3    H277399   6.157   4.653  16.879 -1.1233  2.1276  0.9577
18662TIP3   OH277400   5.648   2.898  13.767  0.0543 -0.4505  0.0203
18662TIP3    H177401   5.597   2.923  13.689  0.8335 -1.1957 -0.7495
18662TIP3    H277402   5.739   2.911  13.740  0.3109  0.2325  1.1597
18663TIP3   OH277403   6.266   1.391   2.206  0.0510 -0.0559  0.7244
18663TIP3    H177404   6.322   1.469   2.208 -0.3719  0.2479  0.6146
18663TIP3    H277405   6.192   1.415   2.151  1.1593 -1.3757 -1.4511
18664TIP3   OH277406   5.874   4.134  10.750  0.0579 -0.4686 -0.8201
18664TIP3    H177407   5.842   4.200  10.811 -0.8779 -0.1748 -1.5938
18664TIP3    H277408   5.969   4.146  10.749 -0.1403  1.4834 -1.5895
18665TIP3   OH277409   6.287   3.903  12.057 -0.5069  0.2171  0.0805
18665TIP3    H177410   6.335   3.948  11.988  0.7336  0.7066  1.2226
18665TIP3    H277411   6.340   3.825  12.077 -1.3937 -0.4811 -0.2236
18666TIP3   OH277412   0.567   0.607   1.691  0.2223  0.6266 -0.3043
18666TIP3    H177413   0.541   0.699   1.697  0.4431  0.7023 -0.4935
18666TIP3    H277414   0.657   0.610   1.661  0.0936  0.3318 -0.7183
18667TIP3   OH277415   3.121   0.375  16.090  0.4201 -0.3508  0.2597
18667TIP3    H177416   3.119   0.350  16.183 -2.6152  2.0554  1.0399
18667TIP3    H277417   3.167   0.459  16.089  1.9993 -1.1782 -0.7738
18668TIP3   OH277418   5.396   1.999   1.711  0.2938  0.1145  0.2016
18668TIP3    H177419   5.376   1.926   1.652 -0.5176  0.4532  0.0451
18668TIP3    H277420   5.311   2.027   1.744  0.6222  0.8448  0.4462
18669TIP3   OH277421   5.745   5.311  11.463  0.4380 -0.4884 -0.4067
18669TIP3    H177422   5.660   5.338  11.498  1.2598 -0.8707  2.0959
18669TIP3    H277423   5.744   5.216  11.469  1.3006 -0.4603  0.3298
18670TIP3   OH277424   5.121   0.520   0.620  0.7351 -0.4123  0.9336
18670TIP3    H177425   5.118   0.547   0.712  0.7391 -0.5198  0.9658
18670TIP3    H277426   5.047   0.460   0.610  0.5973 -0.2226  0.8085
18671TIP3   OH277427   1.759   5.517   0.493  0.0840  0.8674 -0.4723
18671TIP3    H177428   1.750   5.572   0.415 -1.3766 -0.5437 -1.3621
18671TIP3    H277429   1.700   5.556   0.557 -1.0996  0.2692 -1.1672
18672TIP3   OH277430   4.188   0.268   4.069 -0.0418  0.3632 -0.5178
18672TIP3    H177431   4.153   0.330   4.005  4.6558  2.7097 -1.2708
18672TIP3    H277432   4.186   0.316   4.152  0.8667  0.4313 -0.5175
18673TIP3   OH277433   2.233   4.477   1.365 -0.0902  0.7913 -0.1628
18673TIP3    H177434   2.259   4.477   1.273 -0.9566  0.5609 -0.4163
18673TIP3    H277435   2.307   4.438   1.411  0.0278  0.1717 -0.8619
18674TIP3   OH277436   3.788   1.539  10.620  0.3666  0.1585 -0.2567
18674TIP3    H177437   3.778   1.496  10.535  1.8566 -1.2734  0.2360
18674TIP3    H277438   3.823   1.625  10.599  0.3283 -0.0198 -1.1141
18675TIP3   OH277439   0.724   5.925  10.655  0.1193  0.4465  0.0661
18675TIP3    H177440   0.806   5.906  10.701 -0.4448  0.8528  1.2992
18675TIP3    H277441   0.743   6.003  10.602  0.7858 -0.0328 -0.4137
18676TIP3   OH277442   4.723   4.309  12.260  0.1933 -0.2853 -0.9580
18676TIP3    H177443   4.671   4.310  12.179 -1.0323 -1.3532 -0.2337
18676TIP3    H277444   4.662   4.342  12.327  0.2186 -2.0637  0.0130
18677TIP3   OH277445   3.160   0.904   4.503  0.2753 -0.6128 -0.3350
18677TIP3    H177446   3.158   1.000   4.514  1.6068 -0.8141  2.4165
18677TIP3    H277447   3.082   0.873   4.547  0.6236 -0.8669  0.1155
18678TIP3   OH277448   6.276   3.920   0.449  0.4917 -0.6047 -0.0320
18678TIP3    H177449   6.188   3.955   0.464  1.5694  2.8808 -1.0037
18678TIP3    H277450   6.281   3.844   0.506 -1.7206  1.5132  3.3389
18679TIP3   OH277451   1.308   5.482  12.226 -0.2236 -0.1702  0.1824
18679TIP3    H177452   1.267   5.540  12.161  1.1679 -1.2366 -1.7471
18679TIP3    H277453   1.234   5.433  12.263 -0.9733 -0.4790 -1.5926
18680TIP3   OH277454   3.394   3.240  13.924 -0.3114 -0.2212  0.7559
18680TIP3    H177455   3.397   3.145  13.931  0.6894 -0.0907  2.5657
18680TIP3    H277456   3.314   3.265  13.968  0.7645 -0.0900  2.7327
18681TIP3   OH277457   2.799   4.615  13.142  0.5959 -1.0865  0.1429
18681TIP3    H177458   2.871   4.623  13.204  1.0163  1.7408 -0.5726
18681TIP3    H277459   2.839   4.580  13.062  1.6876  2.0861 -0.8317
18682TIP3   OH277460   5.466   0.825  11.221 -0.4493  0.3727  0.0663
18682TIP3    H177461   5.481   0.831  11.127 -1.8078  2.3539 -0.0676
18682TIP3    H277462   5.378   0.859  11.234  0.3338  1.7760  2.2245
18683TIP3   OH277463   6.605   3.090  14.247 -0.0020 -0.6176  0.0379
18683TIP3    H177464   6.532   3.035  14.219 -0.9236  1.3058 -1.6158
18683TIP3    H277465   6.564   3.173  14.270  1.6860  0.9598 -2.1686
18684TIP3   OH277466   1.680   2.344  10.536 -0.2858  0.1176  0.5356
18684TIP3    H177467   1.659   2.261  10.492  0.2488  0.3418 -0.1505
18684TIP3    H277468   1.654   2.329  10.627 -0.4859 -0.6979  0.3560
18685TIP3   OH277469   2.605   1.571  17.170  0.1296  0.1890  0.0200
18685TIP3    H177470   2.510   1.587  17.171  0.2024  0.6345  0.0488
18685TIP3    H277471   2.616   1.502  17.104  0.0671  2.1373 -2.1776
18686TIP3   OH277472   3.498   0.101  14.164  0.2926 -0.1167  0.5038
18686TIP3    H177473   3.470   0.143  14.245  1.3806  0.7289  0.4590
18686TIP3    H277474   3.419   0.098  14.110  0.1786  2.0047  0.4608
18687TIP3   OH277475   3.498   4.655  14.167 -0.1343  0.0878 -0.3007
18687TIP3    H177476   3.547   4.736  14.183 -0.6089  0.2798  0.2280
18687TIP3    H277477   3.540   4.617  14.090 -0.3088  1.1619 -0.9523
18688TIP3   OH277478   0.114   4.603   0.598  0.3574  0.3394  0.7044
18688TIP3    H177479   0.158   4.684   0.572 -1.3913  0.9348 -0.5680
18688TIP3    H277480   0.050   4.630   0.663  0.0644 -0.0904  0.5976
18689TIP3   OH277481   5.740   1.464   2.854 -0.0200 -0.2303 -0.0924
18689TIP3    H177482   5.742   1.516   2.774  0.5577  2.0222  1.2884
18689TIP3    H277483   5.826   1.422   2.858 -0.1077 -0.4727 -0.7194
18690TIP3   OH277484   1.978   2.974  13.099  0.0204  0.3796 -0.3782
18690TIP3    H177485   1.929   2.992  13.018 -1.4084 -0.7648  0.1930
18690TIP3    H277486   2.016   3.059  13.123 -0.1510  0.8991 -1.8311
18691TIP3   OH277487   4.629   4.102   5.007  0.2696  0.0918  0.5793
18691TIP3    H177488   4.653   4.166   4.939  1.2695 -0.8195  0.0533
18691TIP3    H277489   4.694   4.032   4.999 -0.8989 -1.0926  1.0232
18692TIP3   OH277490   2.453   2.830   6.351  0.1982 -0.2837  0.2856
18692TIP3    H177491   2.505   2.771   6.405 -0.7914 -1.8787 -0.4604
18692TIP3    H277492   2.463   2.916   6.393  2.0508 -0.8555  1.1080
18693TIP3   OH277493   4.258   5.981   3.591 -0.0111 -0.5430 -0.3206
18693TIP3    H177494   4.165   5.960   3.600 -0.1262  0.1657  0.2471
18693TIP3    H277495   4.279   6.028   3.672  1.1106 -1.6604  0.0742
18694TIP3   OH277496   0.603   4.917  14.937  0.1229  0.1526  0.1407
18694TIP3    H177497   0.590   5.010  14.915  0.2565  0.2841  0.6165
18694TIP3    H277498   0.634   4.878  14.855  1.0884  0.7334  0.2080
18695TIP3   OH277499   5.576   4.292   3.840  0.1919  0.0548  0.1985
18695TIP3    H177500   5.669   4.273   3.829  0.8802  2.4022  1.3878
18695TIP3    H277501   5.566   4.311   3.933 -1.5860 -0.5719  0.1722
18696TIP3   OH277502   4.476   0.166  14.426 -0.2034  0.1276 -0.0861
18696TIP3    H177503   4.564   0.130  14.430 -1.2270 -2.6426 -0.4892
18696TIP3    H277504   4.474   0.232  14.495  2.1976  0.4213 -0.2024
18697TIP3   OH277505   5.833   3.936   4.177 -0.8020  0.3505 -0.1997
18697TIP3    H177506   5.844   4.027   4.151  0.5060  0.0134 -0.8599
18697TIP3    H277507   5.815   3.889   4.096  1.5593 -0.4286 -0.3328
18698TIP3   OH277508   2.862   3.699  14.975 -0.5414 -1.2490  0.1129
18698TIP3    H177509   2.922   3.755  14.926 -0.8240  0.4123  1.5694
18698TIP3    H277510   2.776   3.715  14.935 -0.5743 -0.8509  0.3382
18699TIP3   OH277511   1.682   6.456  15.358  0.4718  0.6060 -0.2263
18699TIP3    H177512   1.740   6.465  15.282  0.9105 -0.1082  0.0186
18699TIP3    H277513   1.684   6.363  15.379  0.6821  0.8577  0.9210
18700TIP3   OH277514   0.580   1.104  12.390  0.4673 -0.3789 -0.4738
18700TIP3    H177515   0.675   1.105  12.378  0.3288  0.4842 -1.6489
18700TIP3    H277516   0.551   1.192  12.366 -0.6208 -0.5645  0.0642
18701TIP3   OH277517   2.034   4.531  13.945  0.0308 -0.8126 -0.3435
18701TIP3    H177518   1.971   4.598  13.917 -0.1808 -1.8482 -2.6176
18701TIP3    H277519   2.093   4.577  14.005  0.1097  1.5456 -2.0736
18702TIP3   OH277520   5.108   4.052   0.882 -0.1734  0.6837  0.1755
18702TIP3    H177521   5.125   3.959   0.870 -0.8333  0.3185  1.8493
18702TIP3    H277522   5.193   4.094   0.866  0.2332 -0.2381 -0.1385
18703TIP3   OH277523   6.374   1.038  15.506 -0.1076 -0.3968  0.1115
18703TIP3    H177524   6.361   0.947  15.478 -2.6341  0.3083 -1.3192
18703TIP3    H277525   6.308   1.051  15.574  0.7404  0.2020  0.8436
18704TIP3   OH277526   0.335   3.134  14.847  0.2072  0.0031 -0.3094
18704TIP3    H177527   0.425   3.167  14.845 -0.4039  1.7809  0.1264
18704TIP3    H277528   0.286   3.200  14.896 -0.7524 -2.5291  2.3819
18705TIP3   OH277529   0.687   3.339  11.813  0.3958  0.1514 -0.9157
18705TIP3    H177530   0.640   3.322  11.895  1.7658  1.9436  0.3177
18705TIP3    H277531   0.619   3.366  11.751 -0.6747 -1.3239 -0.4399
18706TIP3   OH277532   3.520   5.287  14.823 -0.3315 -0.0807  0.2240
18706TIP3    H177533   3.505   5.368  14.872  0.4426  0.4388 -0.3826
18706TIP3    H277534   3.530   5.315  14.733 -0.9456 -0.9571 -0.1320
18707TIP3   OH277535   4.751   1.072   1.166 -0.1448 -0.5873  0.3644
18707TIP3    H177536   4.805   1.086   1.089 -0.8859 -0.5512 -0.1544
18707TIP3    H277537   4.809   1.094   1.240  0.9128 -1.6521 -0.1053
18708TIP3   OH277538   5.200   5.322  14.065  0.3002  0.5073  0.2194
18708TIP3    H177539   5.159   5.304  14.150  1.4941  2.0385  1.1790
18708TIP3    H277540   5.127   5.325  14.003 -0.6715  0.0549  1.3003
18709TIP3   OH277541   3.943   4.394   1.250  0.3293  0.4480 -0.2186
18709TIP3    H177542   4.000   4.322   1.279  0.7905  1.0533  0.4172
18709TIP3    H277543   3.933   4.449   1.327  0.3036  1.2787 -0.8010
18710TIP3   OH277544   0.738   3.161   2.189 -0.0973 -0.0625  0.3033
18710TIP3    H177545   0.811   3.217   2.163  0.6450 -0.0684  2.1886
18710TIP3    H277546   0.738   3.090   2.125 -0.5859  1.6501 -1.6869
18711TIP3   OH277547   1.065   0.904   3.838 -0.4663 -0.3352  0.3691
18711TIP3    H177548   1.161   0.900   3.835 -0.4763 -0.9860  0.6182
18711TIP3    H277549   1.045   0.984   3.886 -0.0519 -0.0268  0.0294
18712TIP3   OH277550   1.316   2.585   0.695 -0.1325 -0.1236  0.2379
18712TIP3    H177551   1.347   2.669   0.660  2.2079 -0.0339  2.2412
18712TIP3    H277552   1.220   2.594   0.697 -0.0248  1.8957 -1.0124
18713TIP3   OH277553   5.314   4.325   0.021 -0.2144 -0.1647 -0.5753
18713TIP3    H177554   5.388   4.324   0.080 -0.2714 -1.1191 -0.5088
18713TIP3    H277555   5.260   4.399   0.050 -0.3554 -0.7498  0.7026
18714TIP3   OH277556   2.388   0.836   6.848 -0.1895  0.5319  0.1148
18714TIP3    H177557   2.469   0.811   6.802 -0.6895 -1.5386  0.2665
18714TIP3    H277558   2.401   0.928   6.871  2.1813  0.2299  0.2460
18715TIP3   OH277559   5.619   6.185  14.623 -0.0594  0.0564 -0.5705
18715TIP3    H177560   5.616   6.196  14.528 -0.1219  2.8702 -0.3237
18715TIP3    H277561   5.528   6.198  14.652 -0.1187 -1.2082 -0.1383
18716TIP3   OH277562   1.102   3.713   5.698  0.1378  0.0181 -0.6484
18716TIP3    H177563   1.115   3.619   5.691  1.7483  0.2752 -1.5716
18716TIP3    H277564   1.177   3.745   5.747 -0.2588  0.8613 -0.5586
18717TIP3   OH277565   3.878   3.689  17.082  0.2210 -0.2795 -0.2513
18717TIP3    H177566   3.918   3.702  16.996 -1.2840  0.1856 -0.9095
18717TIP3    H277567   3.936   3.736  17.142 -0.3294  2.0614 -1.4333
18718TIP3   OH277568   6.202   2.373  15.486  0.1915  0.4876  0.1187
18718TIP3    H177569   6.241   2.329  15.411  1.6640  0.1032  1.0612
18718TIP3    H277570   6.138   2.311  15.520 -0.5507  0.7071 -0.8733
18719TIP3   OH277571   3.048   2.347   6.427 -0.4127  0.2026  1.0806
18719TIP3    H177572   2.966   2.396   6.429  0.1977  1.2500  1.0097
18719TIP3    H277573   3.071   2.335   6.520 -0.7045 -0.2089  1.1032
18720TIP3   OH277574   3.012   3.790  11.955 -0.7618  0.4050  0.0592
18720TIP3    H177575   3.101   3.760  11.937 -0.3347 -1.4949  4.1688
18720TIP3    H277576   2.961   3.759  11.880  1.5819 -0.8873 -1.1293
18721TIP3   OH277577   2.389   3.622  13.632  0.3303 -0.4000  0.2701
18721TIP3    H177578   2.374   3.678  13.708  1.0824  0.3471 -0.1214
18721TIP3    H277579   2.434   3.545  13.667  1.2652  0.2365  0.4914
18722TIP3   OH277580   1.597   3.212   2.996 -0.1503  0.3524  0.0960
18722TIP3    H177581   1.651   3.259   3.060  0.2667  2.4101 -1.6446
18722TIP3    H277582   1.659   3.158   2.948 -0.2173  0.0355  0.3591
18723TIP3   OH277583   5.951   5.839   4.498 -0.5414  0.1097 -0.2578
18723TIP3    H177584   5.986   5.887   4.423 -2.0515 -1.0403 -1.8041
18723TIP3    H277585   6.008   5.763   4.506  1.1066  1.4428  1.4046
18724TIP3   OH277586   1.863   3.907   2.799  0.0366 -0.3466 -0.6700
18724TIP3    H177587   1.827   3.899   2.711  0.1742  0.8763 -0.8557
18724TIP3    H277588   1.847   3.998   2.823  2.0932 -0.0119 -0.3734
18725TIP3   OH277589   3.573   0.350  15.867  0.2765  0.4147 -0.1564
18725TIP3    H177590   3.546   0.425  15.814  2.3335  1.7798  0.5535
18725TIP3    H277591   3.556   0.377  15.957  1.7407  0.4073  0.1555
18726TIP3   OH277592   2.266   5.832  13.642  0.0113 -0.2638 -0.5343
18726TIP3    H177593   2.288   5.923  13.660  1.2601 -0.9159  1.7428
18726TIP3    H277594   2.214   5.834  13.562  1.0899  2.2952 -1.2560
18727TIP3   OH277595   0.424   2.924   4.855 -0.1264 -0.3945 -0.4432
18727TIP3    H177596   0.480   2.896   4.928 -0.0443 -0.8929 -0.6974
18727TIP3    H277597   0.349   2.966   4.898  0.3998  0.2100 -0.1001
18728TIP3   OH277598   3.441   4.321   3.747  0.3762 -0.5342  0.1796
18728TIP3    H177599   3.367   4.367   3.707  0.0308 -1.7521 -0.6408
18728TIP3    H277600   3.480   4.271   3.675  0.2752 -2.1169  1.1754
18729TIP3   OH277601   1.144   0.047   1.466 -0.2011  0.7119 -0.4798
18729TIP3    H177602   1.121  -0.006   1.390  1.8277 -3.1556  1.3094
18729TIP3    H277603   1.066   0.045   1.522 -0.3283  0.0631 -0.6776
18730TIP3   OH277604   3.638   1.528   1.350 -0.0601  0.2646 -0.6936
18730TIP3    H177605   3.545   1.515   1.366  0.6124 -4.5131  1.0056
18730TIP3    H277606   3.655   1.484   1.267  0.7557  0.7608 -0.8040
18731TIP3   OH277607   5.480   5.100   1.803  0.3334  0.0991  0.1136
18731TIP3    H177608   5.501   5.143   1.887 -0.5144 -0.5572  0.6777
18731TIP3    H277609   5.413   5.156   1.764 -0.5134 -0.4999  0.6832
18732TIP3   OH277610   0.333   1.984   0.020  0.2475  0.0103  0.0197
18732TIP3    H177611   0.238   1.971   0.026  0.5476 -2.2955  0.6832
18732TIP3    H277612   0.365   1.974   0.110  1.2754 -0.8557 -0.4209
18733TIP3   OH277613   2.874   5.431   3.564  0.2997  0.3789 -0.0736
18733TIP3    H177614   2.803   5.455   3.624 -1.4512  0.0690 -1.9251
18733TIP3    H277615   2.939   5.500   3.575 -0.5136  0.9668  1.2882
18734TIP3   OH277616   0.117   6.198  12.326  0.4709  0.1163  0.2197
18734TIP3    H177617   0.102   6.292  12.334  1.6705  0.5007 -1.7077
18734TIP3    H277618   0.045   6.159  12.377 -0.3040  2.0330  0.6940
18735TIP3   OH277619   4.403   0.297  13.644 -0.0134 -0.2425  0.0793
18735TIP3    H177620   4.359   0.230  13.591 -1.9109  0.4376  0.7156
18735TIP3    H277621   4.460   0.343  13.583 -0.1253 -1.2136 -0.7722
18736TIP3   OH277622   0.545   3.994  13.107 -0.8454  0.0715 -0.3466
18736TIP3    H177623   0.620   3.936  13.101 -0.2044  0.7549  0.7700
18736TIP3    H277624   0.519   4.010  13.016  0.3589 -0.1735 -0.7415
18737TIP3   OH277625   4.175   0.029   0.420  0.7487 -0.5045 -0.0155
18737TIP3    H177626   4.189  -0.042   0.483  1.2392 -0.5193 -0.1337
18737TIP3    H277627   4.196   0.108   0.469  2.0920 -0.5796 -0.4166
18738TIP3   OH277628   6.215   0.940  16.563 -0.2057 -0.1317  0.0162
18738TIP3    H177629   6.265   1.000  16.618 -0.9548  3.4344 -2.8487
18738TIP3    H277630   6.278   0.911  16.496 -0.5862 -0.2071 -0.3121
18739TIP3   OH277631   3.161   2.572   0.836 -0.2582  0.3909  0.5195
18739TIP3    H177632   3.144   2.606   0.748 -0.9253 -0.1645  0.4233
18739TIP3    H277633   3.250   2.538   0.833  0.2053  1.5584  0.4427
18740TIP3   OH277634   6.104   1.357   4.310 -0.0771  0.9570  0.6077
18740TIP3    H177635   6.097   1.452   4.294 -1.5870  0.7926  0.0799
18740TIP3    H277636   6.021   1.334   4.352  0.2306 -0.1549  0.6370
18741TIP3   OH277637   4.748   1.679   5.285  0.4046 -0.3356  0.2581
18741TIP3    H177638   4.796   1.676   5.202 -0.1685 -0.9726 -0.0528
18741TIP3    H277639   4.786   1.754   5.331 -0.7502  1.4174 -1.4967
18742TIP3   OH277640   0.842   5.094  11.363  0.1347  0.3386  0.3553
18742TIP3    H177641   0.773   5.137  11.313 -0.6589  0.4934  1.5202
18742TIP3    H277642   0.908   5.070  11.299 -1.4578 -0.7029 -0.9461
18743TIP3   OH277643   0.521   0.769   4.578 -0.4606 -0.1118  0.2972
18743TIP3    H177644   0.487   0.766   4.667  0.2605 -0.4509  0.5639
18743TIP3    H277645   0.573   0.849   4.575 -0.2585 -0.2440  0.2635
18744TIP3   OH277646   2.675   1.716   4.491 -0.7739  0.2177 -0.2659
18744TIP3    H177647   2.631   1.688   4.410 -0.5692 -0.6989 -0.0728
18744TIP3    H277648   2.629   1.670   4.561  1.6641 -2.4085 -0.1904
18745TIP3   OH277649   4.906   0.980   6.184  0.5404 -0.1038 -0.2531
18745TIP3    H177650   4.892   0.902   6.130  2.2538  0.5213 -1.6911
18745TIP3    H277651   4.846   0.969   6.258 -0.0525 -2.2299 -0.9816
18746TIP3   OH277652   4.280   6.653  15.515  0.1973 -0.1994  0.2795
18746TIP3    H177653   4.343   6.704  15.567  1.2450 -0.7150 -0.4508
18746TIP3    H277654   4.328   6.574  15.490 -0.5149 -0.2822 -0.8953
18747TIP3   OH277655   0.579   0.177   3.058  0.2543 -0.2261  0.2021
18747TIP3    H177656   0.616   0.122   3.128 -2.2577 -1.4012  0.7416
18747TIP3    H277657   0.517   0.234   3.104 -1.2522 -0.8398 -1.0032
18748TIP3   OH277658   6.547   0.202   5.337 -0.0985  0.0368 -0.2368
18748TIP3    H177659   6.531   0.213   5.431  0.4498 -0.7266 -0.0431
18748TIP3    H277660   6.625   0.147   5.332  1.2913  2.0053 -1.1669
18749TIP3   OH277661   4.314   6.504   1.639 -0.3292 -0.4468  0.3117
18749TIP3    H177662   4.359   6.515   1.723  0.5805  1.4927 -0.3745
18749TIP3    H277663   4.276   6.416   1.644  1.2826 -1.1251  2.0037
18750TIP3   OH277664   2.981   6.450  17.145 -0.0963 -0.4463 -0.4974
18750TIP3    H177665   3.062   6.499  17.131  1.3513 -2.3745  0.6590
18750TIP3    H277666   2.918   6.491  17.086  0.8665  3.0054  0.6148
18751TIP3   OH277667   4.433   1.619   4.510  0.8707 -0.3784  0.2147
18751TIP3    H177668   4.437   1.550   4.576  0.7632 -1.2391 -0.6589
18751TIP3    H277669   4.505   1.679   4.534  0.3463 -0.2367  1.5577
18752TIP3   OH277670   3.334   0.151   6.305 -0.4689 -0.3121 -0.5556
18752TIP3    H177671   3.276   0.220   6.338  1.3917 -0.7007  4.5128
18752TIP3    H277672   3.278   0.073   6.302 -1.1844  0.1477  0.2193
18753TIP3   OH277673   2.029   5.556   0.542 -0.2032 -0.2567 -0.5219
18753TIP3    H177674   2.031   5.644   0.582  3.5420 -0.4833  0.2044
18753TIP3    H277675   1.938   5.528   0.550 -0.9058  2.2699  2.1999
18754TIP3   OH277676   1.582   0.953   0.708  0.1219 -0.2420  0.0876
18754TIP3    H177677   1.508   0.996   0.665 -0.6615 -1.6549 -0.0309
18754TIP3    H277678   1.583   0.992   0.796  0.1516  0.8200 -0.3646
18755TIP3   OH277679   1.781   4.026  14.101 -0.0841  0.0393 -0.0340
18755TIP3    H177680   1.809   4.026  14.192 -1.0823  1.5763  0.3127
18755TIP3    H277681   1.830   4.099  14.061 -0.5686  0.1729 -0.4006
18756TIP3   OH277682   3.282   0.430   1.084  0.1781 -0.0964 -0.1121
18756TIP3    H177683   3.228   0.432   1.163  1.7259  2.8644  1.0343
18756TIP3    H277684   3.366   0.394   1.113  0.5373  0.3600 -0.5615
18757TIP3   OH277685   4.191   3.700  11.156 -0.3422  0.6577 -0.2036
18757TIP3    H177686   4.203   3.616  11.200  2.3236  0.9594 -0.1635
18757TIP3    H277687   4.172   3.762  11.226 -0.5281  0.3930 -0.0194
18758TIP3   OH277688   5.461   3.010  13.587 -0.2707  0.2998 -0.0550
18758TIP3    H177689   5.475   2.962  13.506  0.7886  0.7635 -0.1621
18758TIP3    H277690   5.452   3.102  13.560 -1.9839  0.2415  0.1728
18759TIP3   OH277691   5.627   3.905  15.862  0.1633  0.2910  0.4106
18759TIP3    H177692   5.557   3.843  15.841  0.7662 -0.1333 -0.4273
18759TIP3    H277693   5.697   3.882  15.801  0.1505  2.2690 -0.4166
18760TIP3   OH277694   1.967   3.894  13.151 -0.0684 -0.2145 -0.1543
18760TIP3    H177695   1.964   3.798  13.149 -1.7618 -0.2196  1.1166
18760TIP3    H277696   1.880   3.921  13.181  0.2512  1.7501 -0.8290
18761TIP3   OH277697   1.537   4.203   7.109  0.0208  0.6313  0.0790
18761TIP3    H177698   1.449   4.224   7.139  0.6369  1.3336  1.5040
18761TIP3    H277699   1.526   4.128   7.051 -1.3175 -0.6143  1.8473
18762TIP3   OH277700   2.033   4.038  15.422  0.0839 -0.1915  0.0292
18762TIP3    H177701   2.061   4.110  15.365  1.0355 -0.3715  0.2412
18762TIP3    H277702   2.085   3.963  15.392  0.8580 -0.2099  1.3314
18763TIP3   OH277703   4.986   4.493  13.959 -0.0164  0.7054  0.4453
18763TIP3    H177704   5.040   4.460  14.030 -0.7241 -0.7550  0.3368
18763TIP3    H277705   5.022   4.451  13.880  0.6242  2.1330 -0.0544
18764TIP3   OH277706   3.471   1.229  11.087 -0.0125 -0.0372 -0.4307
18764TIP3    H177707   3.565   1.230  11.074 -0.0863  0.4528 -0.9729
18764TIP3    H277708   3.457   1.273  11.171  0.2674 -0.4787 -0.1537
18765TIP3   OH277709   4.117   1.817  16.549 -0.2037 -0.0405  0.2737
18765TIP3    H177710   4.080   1.904  16.561  1.7504  0.7392  1.0103
18765TIP3    H277711   4.075   1.784  16.469 -1.4419  1.2879  0.3233
18766TIP3   OH277712   5.747   5.040   1.767 -0.2301 -0.2427 -0.7211
18766TIP3    H177713   5.652   5.052   1.768 -0.3443 -0.9042  1.7173
18766TIP3    H277714   5.781   5.117   1.813  0.1795 -1.3552  0.9005
18767TIP3   OH277715   1.810   2.896  14.195 -0.9883  0.7262  0.7257
18767TIP3    H177716   1.843   2.980  14.226 -1.6608  0.8260  1.1854
18767TIP3    H277717   1.742   2.918  14.132  0.8495  0.5370 -1.4866
18768TIP3   OH277718   6.562   2.120  15.338  0.4829  0.3600 -0.3397
18768TIP3    H177719   6.594   2.158  15.420 -1.2200  0.3689  0.3600
18768TIP3    H277720   6.638   2.121  15.280  1.6608  0.6018  1.1427
18769TIP3   OH277721   6.080   1.485  16.526 -0.3824 -0.3464  0.0747
18769TIP3    H177722   6.047   1.573  16.545  0.9715  0.0207  0.8467
18769TIP3    H277723   6.004   1.438  16.491 -1.2464  0.9822  0.0980
18770TIP3   OH277724   3.343   3.663   2.711  0.2748  0.7758  0.2038
18770TIP3    H177725   3.419   3.649   2.655  0.3710 -0.0538  0.5183
18770TIP3    H277726   3.378   3.659   2.800 -0.3754 -1.5385  0.4215
18771TIP3   OH277727   2.994   0.010   5.038  0.6509 -0.1168  0.3427
18771TIP3    H177728   3.000   0.014   4.942 -0.7929 -0.5567  0.2105
18771TIP3    H277729   2.999   0.101   5.066  0.1020  0.1050 -0.2441
18772TIP3   OH277730   4.001   3.736  15.323 -0.5182  0.4011  0.3208
18772TIP3    H177731   4.058   3.779  15.259  0.4737 -0.7840  0.3819
18772TIP3    H277732   3.930   3.799  15.337 -1.0905  0.5003 -2.3539
18773TIP3   OH277733   4.470   3.139  11.355  0.3167 -0.0300  0.1028
18773TIP3    H177734   4.549   3.177  11.394 -0.2332 -0.2866  1.5652
18773TIP3    H277735   4.499   3.055  11.319  1.0218  0.6112 -0.8564
18774TIP3   OH277736   6.680   0.689   1.951 -0.5002 -0.3025  0.1130
18774TIP3    H177737   6.597   0.647   1.973 -0.5854 -0.1627  0.0550
18774TIP3    H277738   6.708   0.646   1.870 -0.8643  0.1394 -0.2520
18775TIP3   OH277739   5.539   5.071   5.103 -0.0986  0.0978 -0.3972
18775TIP3    H177740   5.551   5.162   5.131  1.5961 -0.6681  1.6192
18775TIP3    H277741   5.448   5.051   5.125  0.2960  0.4941  1.8949
18776TIP3   OH277742   0.227   2.032  14.473 -0.3636 -0.2900 -0.2506
18776TIP3    H177743   0.167   2.043  14.399 -0.4620 -0.4974 -0.2011
18776TIP3    H277744   0.286   1.961  14.446  1.1417  1.1993 -1.1402
18777TIP3   OH277745   4.140   3.594   4.373 -0.5758  0.3638 -0.0956
18777TIP3    H177746   4.235   3.601   4.377 -0.3447 -1.9032 -0.2465
18777TIP3    H277747   4.108   3.661   4.434  1.0665  1.5268 -0.4431
18778TIP3   OH277748   3.871   6.401   4.807  0.1466 -0.1996 -0.0684
18778TIP3    H177749   3.869   6.462   4.733  2.1557 -0.1060 -0.0951
18778TIP3    H277750   3.928   6.330   4.778 -0.0003 -0.7459  0.9518
18779TIP3   OH277751   5.029   2.423   3.922 -0.1601 -0.1580  0.0750
18779TIP3    H177752   5.001   2.367   3.850  0.7798 -0.4951 -0.0431
18779TIP3    H277753   5.107   2.468   3.890 -1.4040  1.9571 -0.1585
18780TIP3   OH277754   6.394   1.913  14.400  0.2734  0.4354 -0.2615
18780TIP3    H177755   6.449   1.982  14.436 -1.7104  1.5997  0.7114
18780TIP3    H277756   6.313   1.918  14.451 -1.4987  0.0923 -2.8707
18781TIP3   OH277757   2.720   4.036   4.480  0.0338  0.0003  0.1743
18781TIP3    H177758   2.781   4.027   4.553 -0.8329  1.2031  1.1011
18781TIP3    H277759   2.775   4.043   4.402  1.0010 -0.6000  0.7905
18782TIP3   OH277760   0.853   5.075   5.197 -0.0635  0.0370 -0.2545
18782TIP3    H177761   0.902   5.030   5.266  1.9872 -0.3904 -1.8802
18782TIP3    H277762   0.795   5.008   5.162  0.7045 -0.4778 -0.5772
18783TIP3   OH277763   6.165   6.298   3.882  0.9666 -0.5092 -0.1122
18783TIP3    H177764   6.181   6.205   3.896 -0.6903 -0.9638 -1.0177
18783TIP3    H277765   6.105   6.302   3.808 -1.0426  1.1216  1.4667
18784TIP3   OH277766   5.778   5.042   2.492 -0.1386  0.1542 -0.1860
18784TIP3    H177767   5.720   5.108   2.530  0.2083 -0.4904  1.5558
18784TIP3    H277768   5.834   5.091   2.431 -0.9564  1.1729 -0.1342
18785TIP3   OH277769   2.871   1.916   1.113  0.0096  0.0806  0.2691
18785TIP3    H177770   2.838   1.832   1.082  1.2915 -0.7898  1.1319
18785TIP3    H277771   2.882   1.904   1.208 -0.1657  1.3677  0.4772
18786TIP3   OH277772   5.520   3.033   1.182 -0.4058 -0.4861 -0.3781
18786TIP3    H177773   5.587   2.966   1.191  0.4563  0.0942 -2.0635
18786TIP3    H277774   5.556   3.109   1.227  0.0025 -0.2320 -1.1214
18787TIP3   OH277775   4.140   5.231  14.438  0.4062  0.3229  0.0497
18787TIP3    H177776   4.228   5.222  14.402  0.4589 -0.3304  0.3355
18787TIP3    H277777   4.087   5.169  14.388 -0.0646  1.2512 -0.6443
18788TIP3   OH277778   4.209   4.134  13.025 -0.0087 -0.6114  0.5368
18788TIP3    H177779   4.115   4.140  13.013 -0.0736 -0.7052  0.9733
18788TIP3    H277780   4.245   4.133  12.936 -0.3481  0.4155  0.3721
18789TIP3   OH277781   1.755   3.564  14.934 -0.5447  0.0424 -0.6547
18789TIP3    H177782   1.700   3.487  14.949 -0.7708  0.7346  2.8004
18789TIP3    H277783   1.842   3.529  14.917 -0.8633 -1.0093 -0.2050
18790TIP3   OH277784   3.559   5.511  12.720  0.5772  0.2473 -0.8345
18790TIP3    H177785   3.575   5.425  12.680 -0.5377 -0.3346 -0.0743
18790TIP3    H277786   3.493   5.494  12.787  0.0883  1.7654 -0.9040
18791TIP3   OH277787   1.355   0.605   2.151 -0.1716 -0.0094  0.3212
18791TIP3    H177788   1.390   0.516   2.155 -2.4354 -1.0488 -1.3118
18791TIP3    H277789   1.407   0.648   2.083 -1.1291 -1.1354 -1.1812
18792TIP3   OH277790   5.195   6.024  15.432 -0.2741 -0.3305  0.0677
18792TIP3    H177791   5.140   6.026  15.354 -0.4856  0.0120  0.2219
18792TIP3    H277792   5.198   5.932  15.457  1.5182 -0.7771 -1.5437
18793TIP3   OH277793   6.084   4.882  11.942 -0.4533  0.0554 -0.4854
18793TIP3    H177794   6.059   4.973  11.951 -1.0045 -0.0142 -1.2313
18793TIP3    H277795   6.103   4.871  11.849 -1.1701 -0.7776 -0.5493
18794TIP3   OH277796   1.975   4.873   0.452 -0.0444  0.5965  0.2178
18794TIP3    H177797   1.961   4.895   0.544  0.4223  0.3420  0.3536
18794TIP3    H277798   1.968   4.778   0.449  0.5481  0.5570  0.0966
18795TIP3   OH277799   2.016   1.552   1.528  0.7325 -0.1652  0.6444
18795TIP3    H177800   1.973   1.480   1.574 -1.4207  1.5526  1.4834
18795TIP3    H277801   1.947   1.593   1.477  1.7680  1.6319  0.6130
18796TIP3   OH277802   6.029   2.703   0.453  0.6900  0.0657  0.0874
18796TIP3    H177803   6.011   2.666   0.367 -1.0543 -0.7757  0.7660
18796TIP3    H277804   5.968   2.775   0.462  0.1816 -0.4560  0.9816
18797TIP3   OH277805   0.171   1.893  14.717 -0.1007 -0.3627  0.6124
18797TIP3    H177806   0.134   1.805  14.707  0.6854 -0.6048 -0.1926
18797TIP3    H277807   0.194   1.920  14.629 -0.2500  0.6290  0.8638
18798TIP3   OH277808   4.411   0.754  11.933  0.4016 -0.3651  0.5346
18798TIP3    H177809   4.414   0.830  11.876 -0.2723 -2.4027 -2.4731
18798TIP3    H277810   4.495   0.711  11.920 -0.0216 -1.2188  0.5464
18799TIP3   OH277811   0.468   0.743  15.980  0.0629  0.5754  0.4322
18799TIP3    H177812   0.461   0.777  16.069 -0.1251  0.7734  0.3414
18799TIP3    H277813   0.540   0.680  15.984  0.8316  1.4348  0.4572
18800TIP3   OH277814   5.080   6.531  14.687  0.0257  0.2824 -0.2293
18800TIP3    H177815   5.161   6.538  14.736 -0.5112 -1.3946  0.9998
18800TIP3    H277816   5.074   6.438  14.664 -0.7618  0.6649 -1.7123
18801TIP3   OH277817   6.735   1.066   1.357  0.1420  0.2588  0.4922
18801TIP3    H177818   6.775   1.082   1.442  0.4050 -0.0303  0.4247
18801TIP3    H277819   6.645   1.041   1.377  0.5226 -0.9460  0.7541
18802TIP3   OH277820   1.424   5.581  16.132 -0.1857  0.1134 -0.1514
18802TIP3    H177821   1.399   5.673  16.144 -1.1185 -0.2294  0.7185
18802TIP3    H277822   1.472   5.580  16.049  0.2584  1.4569  0.0605
18803TIP3   OH277823   6.388   3.143   1.705 -0.8032  0.0699 -0.1386
18803TIP3    H177824   6.363   3.053   1.682  1.1325 -0.3776 -0.6720
18803TIP3    H277825   6.395   3.188   1.621 -0.2554  0.2679  0.0056
18804TIP3   OH277826   4.094   0.160   0.179 -0.4703 -0.7916  0.1572
18804TIP3    H177827   4.084   0.122   0.266 -0.3316 -0.4548  0.3240
18804TIP3    H277828   4.039   0.106   0.122  0.4771 -1.8403  0.1973
18805TIP3   OH277829   1.443   5.318   5.314 -0.3423 -0.0515 -0.5290
18805TIP3    H177830   1.354   5.298   5.345 -0.0118 -0.8363 -0.0599
18805TIP3    H277831   1.481   5.233   5.295  1.6037 -0.0850  2.8127
18806TIP3   OH277832   1.586   2.728  12.850  0.7677 -0.3104 -0.5188
18806TIP3    H177833   1.593   2.640  12.888  0.6222  0.8598  2.4970
18806TIP3    H277834   1.492   2.747  12.850  0.9178  0.8139  1.5690
18807TIP3   OH277835   3.827   1.737  16.977 -0.1749 -0.3044  0.2624
18807TIP3    H177836   3.813   1.684  16.898 -2.1780 -0.2200  0.5125
18807TIP3    H277837   3.739   1.753  17.011  0.3116  3.0307  0.3137
18808TIP3   OH277838   6.290   2.129   4.907 -0.0861  0.5267 -0.3435
18808TIP3    H177839   6.316   2.074   4.981  0.0839 -0.4522 -1.1139
18808TIP3    H277840   6.269   2.214   4.947  2.9027  0.9963  0.5307
18809TIP3   OH277841   1.415   4.056   1.108 -0.3468  1.2903 -0.6235
18809TIP3    H177842   1.405   3.971   1.150  0.9630  1.2439 -0.3466
18809TIP3    H277843   1.350   4.057   1.039 -0.6287  0.2105 -0.3865
18810TIP3   OH277844   4.540   5.705  13.562 -0.2880 -0.0290 -0.4514
18810TIP3    H177845   4.503   5.728  13.647 -1.7050 -1.2294 -0.6958
18810TIP3    H277846   4.500   5.767  13.501 -0.0872  0.1614 -0.3892
18811TIP3   OH277847   0.467   5.660   4.718 -0.0607  0.2649 -0.0912
18811TIP3    H177848   0.490   5.721   4.649 -1.0904  1.8955  0.9434
18811TIP3    H277849   0.542   5.600   4.723 -0.1191 -0.1348 -2.8110
18812TIP3   OH277850   5.676   0.384   0.163 -0.1500 -0.4196  0.2702
18812TIP3    H177851   5.677   0.381   0.067  0.2789 -0.7316  0.2830
18812TIP3    H277852   5.607   0.447   0.184 -0.6610 -0.7940 -0.2335
18813TIP3   OH277853   5.501   3.523  16.270  0.4012 -0.3185 -0.3194
18813TIP3    H177854   5.533   3.602  16.315  0.1427  0.2545 -1.1198
18813TIP3    H277855   5.431   3.490  16.326 -2.0760  2.1245 -1.7142
18814TIP3   OH277856   3.221   6.440   4.921 -0.1286  0.2366  0.1514
18814TIP3    H177857   3.139   6.483   4.898 -0.8324 -0.0342  1.9695
18814TIP3    H277858   3.236   6.464   5.013  2.4084  1.1567 -0.4320
18815TIP3   OH277859   3.300   6.199   5.942  0.1466 -0.3793  0.1489
18815TIP3    H177860   3.255   6.131   5.992 -1.0594 -0.7108 -1.2793
18815TIP3    H277861   3.266   6.188   5.853  0.6843  1.4600 -0.3175
18816TIP3   OH277862   4.221   3.133   0.391  0.2555  0.6294  0.2086
18816TIP3    H177863   4.263   3.058   0.348  0.1486  0.0693  1.0535
18816TIP3    H277864   4.281   3.206   0.377 -0.6618  0.9740 -2.5576
18817TIP3   OH277865   3.436   6.322   0.515  0.5992  0.5033 -0.1266
18817TIP3    H177866   3.378   6.325   0.439  0.1683  2.5787  0.2191
18817TIP3    H277867   3.523   6.311   0.478  0.4135  1.6258 -0.9773
18818TIP3   OH277868   1.314   6.163   0.792 -0.1267  0.4482  0.2739
18818TIP3    H177869   1.341   6.130   0.706  2.0854 -1.1132  1.4774
18818TIP3    H277870   1.379   6.229   0.814  0.1007 -0.1113  1.3170
18819TIP3   OH277871   6.108   2.761  13.546  0.1866 -0.2659 -0.2784
18819TIP3    H177872   6.153   2.843  13.525  1.8006 -0.8548  0.7114
18819TIP3    H277873   6.170   2.712  13.600 -0.8043 -2.0803 -0.6944
18820TIP3   OH277874   5.315   2.641   3.268 -0.5362 -0.2163 -0.2351
18820TIP3    H177875   5.358   2.558   3.288 -0.8368 -1.3298 -3.6589
18820TIP3    H277876   5.221   2.623   3.280 -0.5216  0.1626  0.5550
18821TIP3   OH277877   6.434   4.318  14.004 -0.1905 -0.0543 -0.4516
18821TIP3    H177878   6.407   4.378  13.935  0.9089  1.1229  0.0859
18821TIP3    H277879   6.427   4.231  13.965  0.0283  0.5510 -1.9144
18822TIP3   OH277880   4.541   1.615   1.840 -0.1966  0.2237  0.1728
18822TIP3    H177881   4.478   1.566   1.787 -0.1440  0.5995 -0.2481
18822TIP3    H277882   4.522   1.707   1.821 -0.3298  0.3775  0.9884
18823TIP3   OH277883   3.242   5.080   2.392  0.3415 -0.2573  0.3593
18823TIP3    H177884   3.272   5.062   2.303 -1.6856  0.6445 -0.5753
18823TIP3    H277885   3.156   5.038   2.397  0.2966 -0.0343  1.7880
18824TIP3   OH277886   6.607   1.882  15.587 -0.4502  0.3581  0.2945
18824TIP3    H177887   6.586   1.961  15.537  1.8260 -0.2348 -1.8191
18824TIP3    H277888   6.696   1.897  15.619  0.1740 -1.4464 -0.4617
18825TIP3   OH277889   5.312   6.543  12.737  0.0970  0.5151 -0.1609
18825TIP3    H177890   5.259   6.510  12.664  0.1576 -0.0486  0.0442
18825TIP3    H277891   5.390   6.579  12.695 -0.4328  1.3455 -0.4656
18826TIP3   OH277892   1.219   0.114  16.788  0.3403  0.3743  0.2073
18826TIP3    H177893   1.259   0.039  16.831 -2.1792 -1.1970 -0.0262
18826TIP3    H277894   1.280   0.135  16.716  2.1875  0.0409  1.6001
18827TIP3   OH277895   6.221   1.724  13.259 -0.7895 -0.3898 -0.1938
18827TIP3    H177896   6.218   1.773  13.177  0.2622 -1.8714 -1.1763
18827TIP3    H277897   6.289   1.766  13.311  1.0738 -1.5302 -1.5812
18828TIP3   OH277898   3.737   5.938  12.525 -0.4308 -0.4665  0.0007
18828TIP3    H177899   3.782   5.969  12.603  0.7823 -2.2984  0.0847
18828TIP3    H277900   3.751   6.007  12.460 -0.3001  0.4606  0.9916
18829TIP3   OH277901   2.273   5.939  12.201  0.4527 -0.0878  0.4198
18829TIP3    H177902   2.181   5.949  12.226 -0.2874 -1.9063 -1.3351
18829TIP3    H277903   2.317   5.917  12.282 -0.7088  0.4216  1.2257
18830TIP3   OH277904   2.325   0.595  11.598  0.2516  0.1385 -0.2648
18830TIP3    H177905   2.346   0.651  11.524 -1.6995  0.5022 -0.5967
18830TIP3    H277906   2.246   0.633  11.636  0.8241 -0.4078  1.6328
18831TIP3   OH277907   0.459   5.944  16.949 -0.1592 -0.0762  0.0013
18831TIP3    H177908   0.371   5.963  16.916  0.4425  0.1556 -1.5930
18831TIP3    H277909   0.454   5.960  17.043 -2.1636 -1.4043  0.1649
18832TIP3   OH277910   3.374   3.361   2.604  0.2799  0.2488  0.2462
18832TIP3    H177911   3.432   3.395   2.536 -1.2364  2.3756 -0.1038
18832TIP3    H277912   3.389   3.266   2.604  1.9281  0.4503 -1.4910
18833TIP3   OH277913   4.594   4.097   2.168  0.2646  0.0164 -0.0664
18833TIP3    H177914   4.660   4.089   2.236  1.0893 -0.4521 -0.9001
18833TIP3    H277915   4.570   4.190   2.168  1.0581  0.2241  0.1247
18834TIP3   OH277916   5.595   6.062   4.280  0.3675 -0.0237  0.4205
18834TIP3    H177917   5.676   6.102   4.250  0.1264 -1.0106 -1.7281
18834TIP3    H277918   5.616   5.969   4.290 -0.7526 -0.5313 -1.4195
18835TIP3   OH277919   1.952   2.704  15.493  0.3130 -0.0560  0.8170
18835TIP3    H177920   1.940   2.687  15.400 -1.3054 -0.6340  1.1036
18835TIP3    H277921   1.984   2.621  15.529  2.3924  0.5783  0.5844
18836TIP3   OH277922   3.393   0.902   0.894 -0.0932  0.7030 -0.5365
18836TIP3    H177923   3.483   0.888   0.924  0.1896  1.7632 -0.8556
18836TIP3    H277924   3.341   0.840   0.945  0.6798  0.8332  0.4374
18837TIP3   OH277925   2.511   2.217  14.207  0.1224  0.2764 -0.2240
18837TIP3    H177926   2.563   2.145  14.242 -0.5626  0.6072  1.5466
18837TIP3    H277927   2.422   2.183  14.202 -0.2899  1.1216  1.0527
18838TIP3   OH277928   5.577   3.919   5.116 -0.6169  0.5284  0.0894
18838TIP3    H177929   5.671   3.904   5.106 -0.5788  0.5017  0.4567
18838TIP3    H277930   5.551   3.963   5.035 -0.4331 -0.1408 -0.3406
18839TIP3   OH277931   5.112   4.171  12.353 -0.4886 -0.2142  0.0595
18839TIP3    H177932   5.068   4.110  12.294 -0.0363 -0.2282 -0.2748
18839TIP3    H277933   5.196   4.188  12.311 -0.4569  0.3488  0.3408
18840TIP3   OH277934   6.016   6.231  12.397  0.2718 -0.0454 -0.1491
18840TIP3    H177935   6.064   6.236  12.314 -1.9965 -1.0055 -1.5985
18840TIP3    H277936   5.924   6.244  12.373 -0.3130  1.2541  2.4501
18841TIP3   OH277937   4.159   2.513   4.073 -0.1023 -0.0830  0.0700
18841TIP3    H177938   4.194   2.449   4.135 -0.7749 -0.7430 -0.2148
18841TIP3    H277939   4.073   2.479   4.050 -0.5331  1.0097  0.0226
18842TIP3   OH277940   3.337   2.257   4.218  0.0629  0.4720 -0.3068
18842TIP3    H177941   3.362   2.316   4.289  3.4908 -0.5678 -0.4307
18842TIP3    H277942   3.353   2.307   4.138 -1.8557  0.9550 -0.4430
18843TIP3   OH277943   4.842   6.666  14.739 -0.5638 -0.0379 -0.5000
18843TIP3    H177944   4.887   6.745  14.769  0.7955 -1.5488  1.7876
18843TIP3    H277945   4.906   6.621  14.684 -1.0603  0.0754 -1.1800
18844TIP3   OH277946   4.347   5.332  16.549  0.2148  0.5311 -0.0494
18844TIP3    H177947   4.308   5.394  16.610 -0.8410  0.2947 -0.4531
18844TIP3    H277948   4.273   5.277  16.521  1.3836 -2.0835  1.6274
18845TIP3   OH277949   0.521   4.579  15.645 -0.4867  0.0528  0.0195
18845TIP3    H177950   0.585   4.621  15.588 -0.6343 -0.0509 -0.2279
18845TIP3    H277951   0.535   4.618  15.731 -1.0337  1.0787 -0.3340
18846TIP3   OH277952   1.932   6.279   2.154  0.1296 -1.2818  0.4050
18846TIP3    H177953   1.965   6.313   2.237  0.4181 -1.2766  0.2879
18846TIP3    H277954   1.962   6.341   2.088 -0.6479 -0.9360  0.3673
18847TIP3   OH277955   5.706   1.685  15.578  0.3314  0.0297  0.2561
18847TIP3    H177956   5.701   1.744  15.653  0.3525  1.6516 -0.9600
18847TIP3    H277957   5.779   1.719  15.526  0.4044 -1.1455 -0.4357
18848TIP3   OH277958   0.447   5.107   1.696 -0.3217 -0.0388  0.2342
18848TIP3    H177959   0.445   5.200   1.676 -2.7834  0.4043  2.0970
18848TIP3    H277960   0.531   5.077   1.661  2.6566  3.7306  3.1954
18849TIP3   OH277961   6.089   2.648  13.247  0.0018  0.4586 -1.0027
18849TIP3    H177962   6.068   2.695  13.327  0.6740  0.4619 -0.8146
18849TIP3    H277963   6.031   2.685  13.180 -2.3194 -1.1994 -0.0392
18850TIP3   OH277964   3.318   1.223  13.055 -0.0540  0.8445  0.1734
18850TIP3    H177965   3.336   1.129  13.058 -1.5390  0.5397  1.6573
18850TIP3    H277966   3.402   1.264  13.036  0.2961 -0.8525 -2.3033
18851TIP3   OH277967   6.399   4.834  16.967 -0.5601 -0.4660 -0.5378
18851TIP3    H177968   6.459   4.761  16.956 -2.0564 -2.0818  1.2522
18851TIP3    H277969   6.327   4.815  16.908 -0.2074  0.4869 -1.3045
18852TIP3   OH277970   4.796   5.333   6.522  0.9584  0.4310  0.9641
18852TIP3    H177971   4.835   5.377   6.447  1.6356  1.0689  1.6839
18852TIP3    H277972   4.818   5.241   6.510 -2.5028 -0.2787 -1.8627
18853TIP3   OH277973   1.355   0.964   3.828  0.3962 -0.5216 -0.5568
18853TIP3    H177974   1.418   0.977   3.898  1.8687 -1.5554 -1.6277
18853TIP3    H277975   1.405   0.924   3.757 -1.5351 -1.7506 -1.3240
18854TIP3   OH277976   2.245   6.711  10.320 -0.1219 -0.1422  0.3728
18854TIP3    H177977   2.203   6.643  10.268 -1.5481  1.4012 -0.5695
18854TIP3    H277978   2.174   6.768  10.349  1.1250  1.6620  0.0720
18855TIP3   OH277979   3.753   4.297   5.454 -0.6201  0.3590 -0.1904
18855TIP3    H177980   3.713   4.227   5.504  1.5509 -0.6987  0.1888
18855TIP3    H277981   3.771   4.258   5.368 -0.7384  0.9171 -0.4746
18856TIP3   OH277982   5.408   4.718   0.579  0.4549  0.2655 -0.2566
18856TIP3    H177983   5.416   4.625   0.559  1.2218 -0.1670  1.8539
18856TIP3    H277984   5.321   4.728   0.617  0.5867  0.2966  0.0409
18857TIP3   OH277985   0.372   0.659   2.784  0.9237 -0.5744  0.3000
18857TIP3    H177986   0.332   0.598   2.722  2.8832 -1.9507  0.2966
18857TIP3    H277987   0.323   0.645   2.865 -2.2762  1.8841 -0.9690
18858TIP3   OH277988   6.705   2.883  14.567  0.4416 -0.0544  0.1736
18858TIP3    H177989   6.722   2.961  14.515  0.5256  0.6986  1.2974
18858TIP3    H277990   6.792   2.852  14.595  0.5063 -1.2810 -1.2580
18859TIP3   OH277991   3.885   1.097   3.536  0.2692 -0.1577  0.4699
18859TIP3    H177992   3.899   1.178   3.488  2.2899  0.0768  1.3353
18859TIP3    H277993   3.834   1.122   3.613  0.6539  0.2432  0.5930
18860TIP3   OH277994   1.417   1.349   2.442  0.6157 -0.7845 -0.1133
18860TIP3    H177995   1.329   1.388   2.441  0.7829 -0.4017 -1.3913
18860TIP3    H277996   1.417   1.294   2.521 -0.6430 -0.5144  0.1086
18861TIP3   OH277997   4.567   0.885  17.324 -0.7858 -0.2846 -0.5119
18861TIP3    H177998   4.611   0.876  17.408 -2.6177 -2.3620  0.3399
18861TIP3    H277999   4.500   0.952  17.339  0.3834  1.0770 -1.0876
18862TIP3   OH278000   1.671   5.309   5.576 -0.2857 -0.4499  0.0893
18862TIP3    H178001   1.665   5.380   5.639  1.2424 -0.3875  0.2035
18862TIP3    H278002   1.582   5.275   5.570 -1.1830  1.8157 -0.4075
18863TIP3   OH278003   3.386   2.917  15.414  0.3645  0.0012 -0.4838
18863TIP3    H178004   3.302   2.929  15.458  0.6937 -1.0529  0.4732
18863TIP3    H278005   3.364   2.888  15.326 -0.2789 -0.7778 -0.0733
18864TIP3   OH278006   4.515   3.600  12.898  0.4273 -0.4475 -0.3972
18864TIP3    H178007   4.477   3.686  12.883 -0.6703 -0.9320 -0.4595
18864TIP3    H278008   4.609   3.612  12.882  0.1428  0.4808 -1.4431
18865TIP3   OH278009   4.327   2.285   4.189 -0.0026  0.2320 -0.2055
18865TIP3    H178010   4.322   2.286   4.285 -0.3135 -0.6671 -0.2047
18865TIP3    H278011   4.421   2.286   4.170  0.0669  0.0862  0.1173
18866TIP3   OH278012   3.139   3.020  14.986  0.3339  0.1424 -0.5900
18866TIP3    H178013   3.181   3.017  15.072 -1.1599 -0.0715  0.1563
18866TIP3    H278014   3.199   3.072  14.932  0.2048  2.2889  1.1990
18867TIP3   OH278015   2.044   2.245  16.257 -0.6481 -0.1683  0.2771
18867TIP3    H178016   2.082   2.208  16.336  0.8313 -2.5437 -1.4307
18867TIP3    H278017   1.970   2.188  16.236 -0.6596  0.0619 -0.3615
18868TIP3   OH278018   2.999   2.442   4.409  0.3345 -0.4543 -0.6628
18868TIP3    H178019   2.937   2.440   4.482  0.2356 -1.0533 -0.7528
18868TIP3    H278020   3.001   2.533   4.381 -0.4680 -0.4155 -0.6221
18869TIP3   OH278021   6.139   4.439   4.063 -0.2868 -1.0673 -0.0903
18869TIP3    H178022   6.092   4.455   3.981 -1.2874 -0.6736  0.5411
18869TIP3    H278023   6.119   4.515   4.118  3.2705  0.4973 -0.6948
18870TIP3   OH278024   4.734   1.940  16.961  0.0050 -0.1664  0.6569
18870TIP3    H178025   4.820   1.960  16.926 -0.8681  1.0650 -0.9176
18870TIP3    H278026   4.741   1.849  16.991  1.6004 -0.3594 -0.1943
18871TIP3   OH278027   1.256   1.138  16.265  0.5957  0.2160  0.6987
18871TIP3    H178028   1.267   1.080  16.190  0.8878  0.0676  0.8569
18871TIP3    H278029   1.338   1.186  16.271  1.1970 -0.8995  1.8772
18872TIP3   OH278030   4.793   1.825  16.418  0.6401 -1.0167 -0.2515
18872TIP3    H178031   4.733   1.817  16.492  2.2324 -2.2334  0.9867
18872TIP3    H278032   4.771   1.753  16.361 -1.3708  0.5939 -1.6390
18873TIP3   OH278033   3.972   0.707   3.293 -0.6217  0.1060 -0.2079
18873TIP3    H178034   3.908   0.702   3.222  0.2268 -1.3152 -0.9092
18873TIP3    H278035   4.023   0.786   3.273 -0.5685 -0.1302 -1.0422
18874TIP3   OH278036   4.070   1.903  12.418  0.0231 -0.1491  0.6994
18874TIP3    H178037   4.022   1.881  12.498 -0.6807 -0.3470  0.2323
18874TIP3    H278038   4.074   1.821  12.369 -1.3648  0.3879 -0.4046
18875TIP3   OH278039   3.437   5.606  15.709  0.1670  0.3196  0.1065
18875TIP3    H178040   3.387   5.542  15.658  1.3091  0.0988 -0.7939
18875TIP3    H278041   3.419   5.584  15.800 -1.0104 -0.0264 -0.1978
18876TIP3   OH278042   4.392   5.920  15.940 -0.1365 -0.2069  0.3678
18876TIP3    H178043   4.432   5.837  15.915  0.9595  0.2257  0.6117
18876TIP3    H278044   4.374   5.964  15.856 -1.5969 -1.0592  0.2031
18877TIP3   OH278045   1.132   0.536   3.494  0.5884  0.4240  0.1631
18877TIP3    H178046   1.192   0.591   3.445 -0.1354  0.6692 -0.4582
18877TIP3    H278047   1.054   0.589   3.506 -0.4181 -0.7031 -1.1054
18878TIP3   OH278048   5.929   1.553  12.211  0.7200 -0.5981  0.2479
18878TIP3    H178049   5.946   1.596  12.295  1.2208  0.7575 -0.5148
18878TIP3    H278050   5.946   1.460  12.227  3.1821 -0.0662  1.0530
18879TIP3   OH278051   2.020   4.448   1.893 -0.0419 -0.5707 -0.3331
18879TIP3    H178052   1.951   4.437   1.958  0.7497 -2.0716  0.2974
18879TIP3    H278053   1.976   4.488   1.818 -1.2507 -0.0363  0.6221
18880TIP3   OH278054   4.177   5.029   3.584 -0.4882  0.0808  0.2187
18880TIP3    H178055   4.098   5.048   3.634  0.5149 -0.3867  2.0518
18880TIP3    H278056   4.191   5.108   3.531 -2.7661 -0.2615 -1.0492
18881TIP3   OH278057   4.543   2.165  12.676  0.5480 -0.3274  0.3545
18881TIP3    H178058   4.461   2.207  12.652  0.2506  0.2350  2.1738
18881TIP3    H278059   4.607   2.236  12.674  0.6703 -0.4352  0.4523
18882TIP3   OH278060   5.333   3.319   2.444 -0.0221  0.3802  0.2228
18882TIP3    H178061   5.264   3.288   2.386 -0.6740  1.5527  0.3389
18882TIP3    H278062   5.289   3.339   2.526  1.0820 -2.5022  1.6785
18883TIP3   OH278063   0.339   2.702  16.791 -0.1120 -0.0990  0.0284
18883TIP3    H178064   0.383   2.665  16.714  2.6667  2.1781  0.3337
18883TIP3    H278065   0.332   2.628  16.852  2.2968 -0.8987 -0.5454
18884TIP3   OH278066   4.725   5.393   5.539 -0.6608 -0.1162 -0.7579
18884TIP3    H178067   4.804   5.432   5.577 -0.3178 -1.0738 -0.4638
18884TIP3    H278068   4.750   5.367   5.451 -0.9381  0.4677 -1.0137
18885TIP3   OH278069   3.271   5.647  12.452  0.1957 -0.1260  0.5595
18885TIP3    H178070   3.317   5.730  12.439 -1.2464  1.2563  3.3725
18885TIP3    H278071   3.341   5.584  12.470  1.2774  0.5992 -0.9217
18886TIP3   OH278072   0.363   2.515  14.407  0.2228 -0.0072 -0.4075
18886TIP3    H178073   0.437   2.567  14.374 -0.1388 -0.4030 -1.8959
18886TIP3    H278074   0.329   2.470  14.330 -1.5754  0.1535  0.2612
18887TIP3   OH278075   0.968   3.780  15.387 -0.5851  0.5223 -0.0802
18887TIP3    H178076   0.917   3.814  15.460 -0.9883  0.8766 -0.5134
18887TIP3    H278077   0.993   3.691  15.414 -2.5072 -0.1577 -0.3436
18888TIP3   OH278078   6.447   3.032  13.157  0.2258 -0.0443  0.5721
18888TIP3    H178079   6.474   2.965  13.095 -2.0583  0.5804 -1.2429
18888TIP3    H278080   6.500   3.109  13.136  3.0491 -1.2033  2.8385
18889TIP3   OH278081   0.323   2.157  12.320 -0.0194  0.4889 -0.3995
18889TIP3    H178082   0.321   2.242  12.276 -1.5974  0.1508 -1.0399
18889TIP3    H278083   0.273   2.100  12.262  2.8195 -1.4870 -1.1513
18890TIP3   OH278084   4.916   6.367  10.574  0.1170 -0.2744 -0.4707
18890TIP3    H178085   4.863   6.295  10.608 -1.2112  1.6507  1.7831
18890TIP3    H278086   4.853   6.430  10.539  0.9342  1.4071  0.9345
18891TIP3   OH278087   1.530   1.373  11.951 -0.1641 -0.2405  0.1115
18891TIP3    H178088   1.616   1.333  11.941 -0.5086 -0.7645 -0.8244
18891TIP3    H278089   1.538   1.426  12.030  0.8588 -0.6932  0.3311
18892TIP3   OH278090   1.948   2.692  11.788 -0.1208 -0.1371  0.5896
18892TIP3    H178091   1.950   2.610  11.837 -0.1507  0.1424  1.0641
18892TIP3    H278092   1.864   2.691  11.743  0.3147 -0.8391 -0.2353
18893TIP3   OH278093   4.995   3.710  11.999  0.1712 -0.3343  1.0628
18893TIP3    H178094   4.935   3.670  12.061  0.0550 -1.4535  0.2469
18893TIP3    H278095   5.013   3.642  11.934  0.4732  0.7223 -0.0049
18894TIP3   OH278096   4.921   3.192  11.645  0.2426  0.4274 -0.3548
18894TIP3    H178097   4.988   3.259  11.636 -0.0859  0.9860  1.0836
18894TIP3    H278098   4.954   3.135  11.714 -0.0468 -0.1963 -0.7256
18895TIP3   OH278099   4.888   1.471   2.827 -0.4671  0.4539 -0.6882
18895TIP3    H178100   4.952   1.423   2.775  0.0932  0.5949 -0.1403
18895TIP3    H278101   4.833   1.403   2.866  0.2403  0.2476 -0.0223
18896TIP3   OH278102   6.480   2.413  14.577  0.8731 -0.1235  0.1761
18896TIP3    H178103   6.488   2.369  14.662 -0.9016  1.1877  1.0681
18896TIP3    H278104   6.510   2.502  14.593 -0.1446  0.3326 -0.3983
18897TIP3   OH278105   5.986   4.906   4.330  0.2040  0.3953  0.4164
18897TIP3    H178106   5.973   4.813   4.313 -0.6908  0.3729  1.0918
18897TIP3    H278107   5.905   4.933   4.374 -0.0264  1.7480 -0.7823
18898TIP3   OH278108   3.910   5.972   2.945  0.3481  0.7606 -0.2598
18898TIP3    H178109   3.819   5.959   2.917  0.1874  2.6412 -0.7371
18898TIP3    H278110   3.929   6.063   2.923  1.3410  1.3673  2.7238
18899TIP3   OH278111   2.314   2.937   5.318  0.0314 -0.6619 -0.5716
18899TIP3    H178112   2.245   2.984   5.365  0.7791 -0.1944  0.0831
18899TIP3    H278113   2.327   2.987   5.238  0.3178 -0.1439 -0.2122
18900TIP3   OH278114   0.654   4.322  11.230  0.9934  0.0234 -0.9376
18900TIP3    H178115   0.685   4.234  11.210  0.1045 -0.4103 -0.4640
18900TIP3    H278116   0.596   4.344  11.157 -0.5526 -0.7012  0.0229
18901TIP3   OH278117   3.599   5.490   4.771 -0.0548 -0.6732 -0.2309
18901TIP3    H178118   3.640   5.451   4.694 -1.3169 -2.4881 -0.0694
18901TIP3    H278119   3.546   5.419   4.808 -1.3546  0.8239  0.9471
18902TIP3   OH278120   1.300   4.496  12.120 -0.1153  0.3131 -0.3387
18902TIP3    H178121   1.378   4.450  12.088  0.3605  1.2333 -0.5137
18902TIP3    H278122   1.242   4.426  12.150  1.4036 -0.3288  1.2456
18903TIP3   OH278123   4.022   5.080   5.938 -0.0492 -0.6161 -0.6766
18903TIP3    H178124   4.008   5.172   5.916 -0.4573 -0.6578 -0.5943
18903TIP3    H278125   4.082   5.083   6.014  1.4349 -0.4789 -1.7993
18904TIP3   OH278126   4.069   1.624   4.889 -0.6883 -0.0763 -0.1407
18904TIP3    H178127   4.107   1.689   4.949 -1.9294  2.2439 -1.7317
18904TIP3    H278128   4.130   1.550   4.893  0.2437  0.7046  2.5436
18905TIP3   OH278129   4.275   2.701   1.561  0.1121 -0.2805 -0.0561
18905TIP3    H178130   4.226   2.619   1.565 -0.3065 -0.1129 -1.3068
18905TIP3    H278131   4.218   2.765   1.605 -1.2537  0.1012 -2.2402
18906TIP3   OH278132   4.323   0.780   1.717 -0.3838  0.1092  0.2801
18906TIP3    H178133   4.339   0.746   1.629  2.4108 -0.2854  0.8369
18906TIP3    H278134   4.342   0.706   1.775 -0.0228  0.9723  1.2991
18907TIP3   OH278135   3.045   3.452   0.860  0.1603 -0.0904 -0.1294
18907TIP3    H178136   3.112   3.504   0.906  2.2509 -1.6241 -1.2375
18907TIP3    H278137   2.995   3.410   0.930 -1.2344  2.8493  0.7809
18908TIP3   OH278138   1.159   1.099   0.159  0.3321 -0.1757 -0.1332
18908TIP3    H178139   1.193   1.079   0.246 -0.1920 -0.4868  0.0070
18908TIP3    H278140   1.154   1.013   0.116 -1.0966 -0.2658  0.1594
18909TIP3   OH278141   4.558   2.133  16.432 -0.0216  0.2570 -0.0833
18909TIP3    H178142   4.549   2.063  16.367 -2.7823 -0.8083  1.2667
18909TIP3    H278143   4.608   2.094  16.504 -0.4728  0.0573  0.1284
18910TIP3   OH278144   6.747   3.829  14.064 -0.2713  0.3820 -1.0588
18910TIP3    H178145   6.785   3.880  14.136 -1.1251 -2.4590  1.6125
18910TIP3    H278146   6.658   3.863  14.054 -0.8543 -0.5211  0.7323
18911TIP3   OH278147   3.293   4.433   2.318 -0.7009 -0.0281  0.5384
18911TIP3    H178148   3.226   4.501   2.305 -2.6666 -1.2080  3.4190
18911TIP3    H278149   3.268   4.391   2.401  1.4981 -3.0612 -0.1894
18912TIP3   OH278150   6.508   1.318   4.312  0.0748  0.0034 -0.2365
18912TIP3    H178151   6.461   1.401   4.322  1.0114  0.8593 -2.3205
18912TIP3    H278152   6.447   1.252   4.344 -0.5290  1.4886  1.9313
18913TIP3   OH278153   3.370   3.427  11.930 -0.1293  0.0481 -0.2659
18913TIP3    H178154   3.427   3.378  11.990  0.1653  1.9804  1.1606
18913TIP3    H278155   3.297   3.456  11.985 -1.0286  0.0143 -1.4074
18914TIP3   OH278156   0.511   1.334   5.040  0.4453 -0.6069 -0.3429
18914TIP3    H178157   0.578   1.340   5.108 -0.6476 -0.8094  0.7958
18914TIP3    H278158   0.516   1.418   4.994  1.6129 -0.7094 -0.4198
18915TIP3   OH278159   5.207   3.046  16.715 -0.5188  0.1106 -0.5082
18915TIP3    H178160   5.227   3.137  16.690 -0.0710 -0.0053 -0.5846
18915TIP3    H278161   5.233   3.040  16.807  0.5361 -0.2497 -0.8170
18916TIP3   OH278162   4.642   2.918   2.411  0.2589 -0.0562  0.2183
18916TIP3    H178163   4.684   2.842   2.450 -0.8216 -0.7642  0.0385
18916TIP3    H278164   4.698   2.940   2.336  1.2843  0.1429  1.0148
18917TIP3   OH278165   4.301   0.838   3.746 -0.7095 -0.1396  1.2566
18917TIP3    H178166   4.224   0.838   3.689 -1.3419 -2.1850  2.0009
18917TIP3    H278167   4.291   0.917   3.800 -1.7499  0.1590  0.6532
18918TIP3   OH278168   6.059   5.473   0.133 -0.3512  0.0876  0.1299
18918TIP3    H178169   6.141   5.475   0.084 -0.1889  0.8541  0.4178
18918TIP3    H278170   5.990   5.479   0.067 -0.2402 -2.1759 -0.2416
18919TIP3   OH278171   4.490   5.868   4.180 -0.1624 -0.2125  0.4736
18919TIP3    H178172   4.518   5.777   4.165 -0.7673 -0.4044  0.5059
18919TIP3    H278173   4.451   5.867   4.267  0.5266  0.2480  0.8012
18920TIP3   OH278174   1.238   0.370   3.685  0.1583  0.0508 -0.2319
18920TIP3    H178175   1.196   0.452   3.660 -1.3007 -0.5501  0.1565
18920TIP3    H278176   1.171   0.303   3.670  0.0516 -0.6624  2.7809
18921TIP3   OH278177   4.111   6.415   3.649 -0.4367 -0.5561  0.3992
18921TIP3    H178178   4.165   6.428   3.727  0.7755  0.5189 -0.5787
18921TIP3    H278179   4.028   6.457   3.669 -0.1362 -0.2874  1.0985
18922TIP3   OH278180   2.600   2.045  16.480 -0.3691 -0.5822 -0.1841
18922TIP3    H178181   2.608   2.039  16.575 -0.0279 -0.6366 -0.2142
18922TIP3    H278182   2.513   2.010  16.461 -2.6597  3.9829  0.5414
18923TIP3   OH278183   1.988   4.553   4.449 -0.2102 -0.2376 -0.4563
18923TIP3    H178184   2.031   4.522   4.529 -0.5827 -1.3958 -0.6865
18923TIP3    H278185   1.895   4.554   4.471 -0.3232 -0.6445 -0.8886
18924TIP3   OH278186   6.562   5.663  13.774 -0.1060 -0.3217  0.2590
18924TIP3    H178187   6.489   5.622  13.821 -1.1607  0.0779 -0.9714
18924TIP3    H278188   6.531   5.669  13.684  0.5754  1.8794  0.1332
18925TIP3   OH278189   4.728   5.443  16.117  0.1011  0.0184  0.0080
18925TIP3    H178190   4.700   5.417  16.029  3.5067  0.2290 -1.2932
18925TIP3    H278191   4.740   5.538  16.112 -1.7626  0.3954  1.4473
18926TIP3   OH278192   1.287   3.033  15.821  0.0534 -0.2896 -0.8032
18926TIP3    H178193   1.268   3.050  15.913  2.2133 -0.3782 -0.2979
18926TIP3    H278194   1.201   3.032  15.779 -0.8926  1.2965  0.9330
18927TIP3   OH278195   1.768   0.599   3.485 -0.1539 -0.5729  0.0206
18927TIP3    H178196   1.796   0.669   3.426 -0.5898  0.3120  0.8415
18927TIP3    H278197   1.834   0.530   3.474  0.8089  0.3515 -0.1071
18928TIP3   OH278198   2.920   5.639  13.992 -0.1817  0.3884  0.0154
18928TIP3    H178199   2.831   5.632  13.958  0.1770  0.0368 -0.8976
18928TIP3    H278200   2.974   5.651  13.914  0.8187 -1.6865  0.3271
18929TIP3   OH278201   2.570   4.226  13.709  0.5142  0.2798 -0.2751
18929TIP3    H178202   2.553   4.320  13.720 -0.3931 -0.1226  2.7150
18929TIP3    H278203   2.484   4.189  13.688  0.3635 -0.1271  0.9754
18930TIP3   OH278204   2.000   0.429  12.274 -0.2989 -0.1011  0.0518
18930TIP3    H178205   2.051   0.510  12.267  0.8875 -0.9018 -0.8024
18930TIP3    H278206   2.020   0.396  12.362 -0.3303  0.2179  0.1812
18931TIP3   OH278207   2.678   0.593  15.041 -0.4588  0.1395 -0.8275
18931TIP3    H178208   2.667   0.501  15.067 -2.6194  0.4498 -0.4318
18931TIP3    H278209   2.606   0.610  14.980  0.0460  1.5101 -1.0832
18932TIP3   OH278210   5.476   5.778   0.045 -0.3758  0.0592  0.1791
18932TIP3    H178211   5.381   5.780   0.031 -0.4738  0.0764  0.8440
18932TIP3    H278212   5.491   5.700   0.098 -0.0012 -0.0050 -0.0167
18933TIP3   OH278213   3.086   2.080   3.209 -0.6265  0.6211  0.1531
18933TIP3    H178214   3.148   2.093   3.137 -1.4921  1.2362 -0.4886
18933TIP3    H278215   3.104   1.991   3.239  0.0099  0.4945 -0.5556
18934TIP3   OH278216   2.964   1.323  10.384  0.1084 -0.4159 -0.0739
18934TIP3    H178217   2.896   1.262  10.357  0.0494 -1.2815  1.9190
18934TIP3    H278218   3.046   1.274  10.373  0.1081 -0.6659  0.9221
18935TIP3   OH278219   4.110   0.461   2.962  0.1466  0.3578  0.1825
18935TIP3    H178220   4.118   0.550   2.997 -0.9252 -0.0253  1.5026
18935TIP3    H278221   4.150   0.406   3.029 -1.4901 -0.3624  0.5968
18936TIP3   OH278222   2.589   1.833  12.944 -0.1333 -0.6751 -0.2074
18936TIP3    H178223   2.554   1.915  12.977  0.9209 -0.3980  0.2469
18936TIP3    H278224   2.606   1.781  13.022 -3.4406 -2.5250 -0.5163
18937TIP3   OH278225   6.220   1.279   3.070  0.4011 -0.2977 -0.0214
18937TIP3    H178226   6.129   1.264   3.097  0.6690  1.0868  1.7797
18937TIP3    H278227   6.263   1.194   3.081 -0.7236 -1.0636 -1.2550
18938TIP3   OH278228   5.599   0.666  12.664 -0.0223 -0.4037 -0.2865
18938TIP3    H178229   5.647   0.676  12.746 -0.2147 -0.4759 -0.1656
18938TIP3    H278230   5.580   0.756  12.636  2.4037 -0.2336 -1.6561
18939TIP3   OH278231   3.822   5.806  11.135  0.0462  0.2190  0.2788
18939TIP3    H178232   3.901   5.779  11.181  0.5349 -0.6567 -1.0190
18939TIP3    H278233   3.853   5.852  11.057 -0.7001 -0.0231 -0.1825
18940TIP3   OH278234   0.581   3.718   3.300 -0.4516  0.0714 -0.4341
18940TIP3    H178235   0.551   3.730   3.390  0.4158  0.8282 -0.2292
18940TIP3    H278236   0.677   3.720   3.306 -0.3743 -0.2525 -1.3269
18941TIP3   OH278237   0.431   3.309  13.453 -0.3337 -0.1665  0.0272
18941TIP3    H178238   0.501   3.326  13.515 -0.9839 -1.1692  1.0682
18941TIP3    H278239   0.474   3.270  13.377  0.3475  0.1485  0.2466
18942TIP3   OH278240   5.301   3.607   2.856 -0.2202  0.3391 -0.0476
18942TIP3    H178241   5.367   3.619   2.925 -1.0123  1.0258  0.6117
18942TIP3    H278242   5.219   3.632   2.897 -1.1383 -1.8267 -0.4349
18943TIP3   OH278243   1.028   0.796   4.134  0.0117  0.5175 -0.4295
18943TIP3    H178244   1.123   0.800   4.131  0.1251 -0.7644  0.6108
18943TIP3    H278245   0.999   0.863   4.072  1.5856  0.5436 -1.1784
18944TIP3   OH278246   5.262   4.356   5.980 -0.0998  0.1146 -0.9547
18944TIP3    H178247   5.280   4.266   6.008  0.8314 -0.1353 -2.2471
18944TIP3    H278248   5.167   4.362   5.979 -0.2359 -1.4669 -2.5801
18945TIP3   OH278249   6.101   2.610   0.953 -0.1003  0.6941  0.6001
18945TIP3    H178250   6.039   2.601   0.881  0.8664 -0.0974 -0.1414
18945TIP3    H278251   6.170   2.666   0.919 -0.2451  1.3424  1.3339
18946TIP3   OH278252   3.115   1.938   5.577 -0.5742  0.0649  0.3887
18946TIP3    H178253   3.088   2.001   5.642  0.4664  1.1311 -0.1699
18946TIP3    H278254   3.081   1.854   5.608 -1.0976  0.7358  1.6690
18947TIP3   OH278255   4.254   6.374  17.287 -0.1506  0.1264 -0.0977
18947TIP3    H178256   4.208   6.385  17.370 -1.8542 -0.6383 -0.8711
18947TIP3    H278257   4.250   6.460  17.245 -0.2406  0.2459  0.1552
18948TIP3   OH278258   4.329   3.504   5.702 -0.2524  0.0120 -0.1448
18948TIP3    H178259   4.239   3.508   5.669 -1.0464 -0.1145  1.8948
18948TIP3    H278260   4.346   3.592   5.736  0.1245 -0.1680  0.1469
18949TIP3   OH278261   4.242   6.678   5.493 -0.3023  0.0761  0.6741
18949TIP3    H178262   4.298   6.717   5.560  1.8251 -1.0800 -0.3108
18949TIP3    H278263   4.212   6.596   5.531 -0.9189  0.4538  1.0122
18950TIP3   OH278264   6.535   1.104  11.832  0.2324 -0.4394  0.4928
18950TIP3    H178265   6.520   1.107  11.927  0.4044 -0.4134  0.5205
18950TIP3    H278266   6.512   1.015  11.807  0.4227 -0.5192  0.6008
18951TIP3   OH278267   3.002   0.411   0.968 -0.0357 -0.0965 -0.0119
18951TIP3    H178268   2.917   0.430   1.008 -0.1951 -0.0837 -0.3548
18951TIP3    H278269   3.066   0.443   1.032 -0.2952  0.4482 -0.0168
18952TIP3   OH278270   4.649   0.595   0.182  0.1128  0.1491 -0.0998
18952TIP3    H178271   4.722   0.610   0.242  1.4884 -1.3591 -1.3164
18952TIP3    H278272   4.687   0.547   0.108 -2.4780 -2.6850  0.1848
18953TIP3   OH278273   5.235   5.646   1.178  0.1287  0.0504 -0.0187
18953TIP3    H178274   5.206   5.695   1.254 -1.0660 -0.1435 -0.3293
18953TIP3    H278275   5.264   5.712   1.115 -0.2025  0.2807  0.0721
18954TIP3   OH278276   5.303   4.672  13.745 -0.2446 -0.5438  0.3451
18954TIP3    H178277   5.264   4.594  13.785 -0.8595  1.0517  3.1385
18954TIP3    H278278   5.378   4.692  13.801  1.2310 -0.3198 -1.6216
18955TIP3   OH278279   1.466   2.629  17.136  0.3496  0.6679  0.4378
18955TIP3    H178280   1.498   2.715  17.162  1.4869 -0.1588  1.9920
18955TIP3    H278281   1.544   2.583  17.104 -0.1457  0.0749  0.0544
18956TIP3   OH278282   5.162   2.730   2.023  0.2156  0.2496 -0.4554
18956TIP3    H178283   5.084   2.678   2.040 -0.2751  0.9280 -0.5792
18956TIP3    H278284   5.219   2.715   2.099  0.2250 -0.7040 -0.6423
18957TIP3   OH278285   5.050   1.705   1.635 -0.0705 -0.3698 -0.0309
18957TIP3    H178286   4.999   1.625   1.649 -0.3376 -0.1514  0.2563
18957TIP3    H278287   5.101   1.715   1.716 -0.4132  0.0201  0.1415
18958TIP3   OH278288   4.672   3.607   4.576  0.2489  0.4446  0.2326
18958TIP3    H178289   4.695   3.586   4.667 -1.6708 -0.1771  0.6241
18958TIP3    H278290   4.723   3.545   4.524  0.6659  0.1800  0.9307
18959TIP3   OH278291   4.356   5.938  11.743  0.0569 -0.9789  0.4568
18959TIP3    H178292   4.301   5.975  11.674  0.4146 -0.8007  0.2654
18959TIP3    H278293   4.324   5.848  11.753  1.2327 -1.6648 -1.3034
18960TIP3   OH278294   6.346   3.631  15.245 -0.2044 -0.1170 -0.0063
18960TIP3    H178295   6.436   3.665  15.249 -0.1848 -0.2176  0.4493
18960TIP3    H278296   6.351   3.547  15.291 -0.6581  0.1466  0.5198
18961TIP3   OH278297   3.799   1.185  16.272  0.0401  0.1308 -0.5114
18961TIP3    H178298   3.882   1.156  16.235 -0.6792 -1.5174 -0.9322
18961TIP3    H278299   3.823   1.226  16.355  1.1914 -1.2292 -0.1320
18962TIP3   OH278300   0.863   3.402   5.459 -0.0119  0.8616 -0.1416
18962TIP3    H178301   0.944   3.369   5.499 -0.7722 -0.5483  0.2749
18962TIP3    H278302   0.865   3.366   5.370  0.1773  1.4845 -0.4024
18963TIP3   OH278303   1.970   4.551   5.831 -0.1079  0.3552  0.3457
18963TIP3    H178304   1.973   4.455   5.830  0.1827  0.3522 -1.2569
18963TIP3    H278305   1.887   4.573   5.789  0.3094  0.7987 -0.2655
18964TIP3   OH278306   4.941   4.120  11.434  0.2791 -0.1596  0.2463
18964TIP3    H178307   4.996   4.184  11.478  0.9196 -1.8363  2.0495
18964TIP3    H278308   4.951   4.140  11.341  1.7968  1.2733  0.6578
18965TIP3   OH278309   3.247   6.661  14.952  0.4083 -0.9533  0.6106
18965TIP3    H178310   3.188   6.736  14.948 -0.8008 -1.8663  0.8163
18965TIP3    H278311   3.260   6.637  14.860 -1.7528 -2.3833  0.6046
18966TIP3   OH278312   0.436   5.423  13.498  0.1071  0.0550 -0.4318
18966TIP3    H178313   0.501   5.492  13.489 -0.1580  0.3198 -0.3428
18966TIP3    H278314   0.376   5.455  13.566 -0.2721 -0.0555 -0.7059
18967TIP3   OH278315   2.166   0.790   0.503 -0.6495  0.2848  0.3062
18967TIP3    H178316   2.100   0.859   0.498 -1.4641 -0.4740  0.4028
18967TIP3    H278317   2.165   0.749   0.417 -0.5170  0.0775  0.4015
18968TIP3   OH278318   5.439   2.434  11.837 -0.0589  0.4349 -0.3754
18968TIP3    H178319   5.377   2.393  11.897  0.8887 -1.3402 -0.5431
18968TIP3    H278320   5.427   2.386  11.755  2.7560 -1.2413  0.0917
18969TIP3   OH278321   4.703   1.284   0.686  0.4071 -0.2148 -0.2410
18969TIP3    H178322   4.659   1.357   0.643  2.4131  0.3928 -1.4268
18969TIP3    H278323   4.710   1.310   0.778  3.0416  2.2448 -1.0006
18970TIP3   OH278324   2.436   1.987   0.935 -0.1364 -1.1144 -0.5580
18970TIP3    H178325   2.388   1.994   1.018 -0.4443  0.6947 -0.8483
18970TIP3    H278326   2.373   1.948   0.874  0.1847 -2.7288  0.0847
18971TIP3   OH278327   0.170   0.963   1.742 -0.2262  0.2611 -0.4436
18971TIP3    H178328   0.225   0.894   1.781 -1.5597 -0.8461 -0.4460
18971TIP3    H278329   0.220   1.044   1.756  0.7986 -0.5279  0.7175
18972TIP3   OH278330   1.354   5.396   4.328  0.1504 -0.1918  0.3053
18972TIP3    H178331   1.292   5.463   4.358  0.9065  0.3710  0.6281
18972TIP3    H278332   1.435   5.417   4.373  0.9288 -0.1814 -1.0476
18973TIP3   OH278333   2.399   0.302   0.928  0.1391  0.0969  0.3060
18973TIP3    H178334   2.313   0.261   0.938  0.0664  0.2611  0.3709
18973TIP3    H278335   2.422   0.287   0.836 -0.1308  0.3746  0.1877
18974TIP3   OH278336   6.281   4.864   5.571  0.1252  0.0405 -0.3943
18974TIP3    H178337   6.299   4.931   5.506  0.0967  2.3811  1.8424
18974TIP3    H278338   6.367   4.829   5.595  0.2069 -0.1782 -0.9835
18975TIP3   OH278339   2.498   3.046   0.634  0.2233  0.0949 -0.1199
18975TIP3    H178340   2.495   3.142   0.629  0.9743  0.1944  1.0010
18975TIP3    H278341   2.574   3.022   0.581  0.7565  0.2214  0.5717
18976TIP3   OH278342   1.376   2.290  16.583 -0.0845 -0.0978  0.1599
18976TIP3    H178343   1.371   2.347  16.507 -2.6652 -0.8857 -0.3496
18976TIP3    H278344   1.456   2.317  16.628  0.2977  1.9214 -1.5792
18977TIP3   OH278345   1.840   1.759  15.271  0.3620 -0.3407 -0.0897
18977TIP3    H178346   1.795   1.828  15.320  1.5409  1.1510 -0.9855
18977TIP3    H278347   1.787   1.748  15.192  1.9777  2.2140 -1.6856
18978TIP3   OH278348   4.178   6.637  13.559 -0.3529 -0.9878  0.1023
18978TIP3    H178349   4.093   6.642  13.516 -1.1684  1.0796  1.7671
18978TIP3    H278350   4.216   6.555  13.528 -1.6196 -0.5291 -3.0407
18979TIP3   OH278351   3.172   1.022   2.531 -0.1197  0.3616 -0.4709
18979TIP3    H178352   3.092   0.984   2.569 -0.6363 -0.1582 -1.9873
18979TIP3    H278353   3.154   1.116   2.527  0.1662  0.5060  1.0154
18980TIP3   OH278354   5.680   1.101   4.310  0.0912 -0.2536  0.4016
18980TIP3    H178355   5.696   1.041   4.237  0.9291 -1.0364  1.1889
18980TIP3    H278356   5.626   1.050   4.371 -0.7554  0.4555  0.2608
18981TIP3   OH278357   0.028   2.797   4.620 -0.6338  0.4132 -0.4706
18981TIP3    H178358   0.040   2.840   4.705 -1.5098  0.9613 -0.6151
18981TIP3    H278359  -0.007   2.866   4.563 -0.9640 -0.1968 -1.0199
18982TIP3   OH278360   1.094   2.782   0.013 -0.1027 -0.1675  0.3556
18982TIP3    H178361   1.144   2.706  -0.017  1.8808  0.8697  0.8655
18982TIP3    H278362   1.046   2.750   0.090  1.0815 -0.7919  0.8545
18983TIP3   OH278363   5.879   0.438   1.394 -0.4242 -0.3536  0.0086
18983TIP3    H178364   5.959   0.389   1.375 -1.0352 -1.2165 -0.3666
18983TIP3    H278365   5.858   0.415   1.485  1.5396  2.4370  1.3274
18984TIP3   OH278366   6.627   4.071  14.413  0.0079 -0.3066  0.2043
18984TIP3    H178367   6.614   4.053  14.506  0.2900  1.4427  0.6118
18984TIP3    H278368   6.539   4.086  14.379  0.0512  1.2904  0.7132
18985TIP3   OH278369   4.061   1.487   3.913  0.1477 -0.1318 -0.9344
18985TIP3    H178370   4.146   1.461   3.950  0.0798 -0.4167 -0.9760
18985TIP3    H278371   4.075   1.483   3.818  0.2655  0.4108 -0.9456
18986TIP3   OH278372   2.526   0.876   1.596  0.2873 -0.0943  0.3808
18986TIP3    H178373   2.463   0.804   1.590 -1.3628  1.3221 -0.3371
18986TIP3    H278374   2.519   0.921   1.512 -1.3574  2.8920  1.9303
18987TIP3   OH278375   4.452   5.223  13.544 -0.0975 -0.9499  0.2347
18987TIP3    H178376   4.404   5.149  13.582  0.7629 -1.4770  0.3158
18987TIP3    H278377   4.535   5.185  13.514  1.0097  0.2549  1.6555
18988TIP3   OH278378   4.320   4.694   0.056  0.2222 -0.1152 -0.1922
18988TIP3    H178379   4.307   4.764   0.119  1.1787  1.6179 -1.8247
18988TIP3    H278380   4.313   4.613   0.108 -1.0247  1.1405  1.7128
18989TIP3   OH278381   5.953   1.997  13.763 -0.1931 -0.1756  0.4537
18989TIP3    H178382   6.016   1.940  13.719  0.7777  1.6088 -0.6076
18989TIP3    H278383   5.982   1.999  13.854  1.1964  0.4219  0.0333
18990TIP3   OH278384   6.629   4.395   0.824  0.2047 -0.3000  0.0249
18990TIP3    H178385   6.706   4.348   0.791 -0.0866 -0.3200 -0.6522
18990TIP3    H278386   6.562   4.380   0.757 -0.0458  0.6640  0.0421
18991TIP3   OH278387   0.079   6.157   4.565 -0.5553  0.1686  0.6608
18991TIP3    H178388  -0.006   6.160   4.521  0.4472  1.9440 -1.3248
18991TIP3    H278389   0.120   6.076   4.535 -0.8622  0.1570  0.2782
18992TIP3   OH278390   3.716   5.090   3.269 -0.3022  0.4689 -0.5945
18992TIP3    H178391   3.670   5.119   3.348  1.0153 -1.6765  1.0566
18992TIP3    H278392   3.647   5.062   3.209 -1.2734 -0.8030  1.0520
18993TIP3   OH278393   3.207   1.318   0.047  0.3928  0.9014 -0.4503
18993TIP3    H178394   3.136   1.260   0.021  1.0450 -0.1669  0.0775
18993TIP3    H278395   3.170   1.373   0.116 -0.0957  0.7702 -0.6109
18994TIP3   OH278396   4.041   6.296   6.553  0.5080 -0.5250  0.0220
18994TIP3    H178397   3.951   6.278   6.578  0.4184 -0.0009  0.0934
18994TIP3    H278398   4.058   6.384   6.587  1.1432 -0.7381  0.2724
18995TIP3   OH278399   3.692   4.626   4.232  0.5475  0.2842  0.0647
18995TIP3    H178400   3.659   4.699   4.180  0.9202 -0.3620 -1.1274
18995TIP3    H278401   3.619   4.604   4.291 -0.5887 -0.0827 -1.3997
18996TIP3   OH278402   6.355   5.282   4.574 -0.2627  0.8233  0.4190
18996TIP3    H178403   6.427   5.339   4.545  1.0197 -1.1103 -0.3587
18996TIP3    H278404   6.383   5.248   4.659  0.0291 -0.3831 -0.1444
18997TIP3   OH278405   4.717   0.341  16.630  0.1592 -0.0940 -0.2840
18997TIP3    H178406   4.755   0.268  16.679 -0.1817 -0.4013 -0.4790
18997TIP3    H278407   4.687   0.302  16.548 -1.9051 -0.1434  0.4547
18998TIP3   OH278408   4.424   3.255  12.950 -0.3142 -0.5049 -0.1815
18998TIP3    H178409   4.444   3.289  12.863  0.7939  0.8674  0.5588
18998TIP3    H278410   4.497   3.198  12.972  1.0481  1.5774  1.0302
18999TIP3   OH278411   0.575   0.302  12.335 -0.6797 -0.0283  0.1597
18999TIP3    H178412   0.567   0.312  12.240  2.0361  0.1694 -0.1228
18999TIP3    H278413   0.609   0.387  12.365 -0.1362 -0.5554  1.0742
19000TIP3   OH278414   2.950   2.313   0.193  0.1220  0.3520  0.1098
19000TIP3    H178415   2.874   2.277   0.146  0.7801  0.3785 -1.0223
19000TIP3    H278416   2.958   2.402   0.158 -0.0622  0.7865  1.1425
19001TIP3   OH278417   4.541   1.472   5.841  0.7956  0.3090  0.2782
19001TIP3    H178418   4.596   1.506   5.770  2.4408  0.5755  1.6281
19001TIP3    H278419   4.549   1.377   5.834 -1.7895  0.0950 -1.9158
19002TIP3   OH278420   5.981   0.635  16.905  0.1767 -0.4783 -0.3960
19002TIP3    H178421   6.064   0.680  16.887 -0.1544  0.6842  0.7567
19002TIP3    H278422   6.000   0.580  16.981 -0.4165  0.8596  0.7636
19003TIP3   OH278423   3.799   4.716   2.403 -0.2040 -0.5506 -0.1872
19003TIP3    H178424   3.733   4.668   2.353 -1.3432 -1.6715  2.2284
19003TIP3    H278425   3.751   4.789   2.442  0.3551 -0.4365  0.2912
19004TIP3   OH278426   6.678   0.347  16.835 -0.0041  0.5320 -0.9025
19004TIP3    H178427   6.661   0.261  16.872  0.4761 -0.0744 -2.0359
19004TIP3    H278428   6.679   0.333  16.740  0.4059  1.7206 -1.0988
19005TIP3   OH278429   4.654   4.414   2.673  0.2238  0.4018  0.6302
19005TIP3    H178430   4.670   4.411   2.768 -0.4544 -0.9956  0.7274
19005TIP3    H278431   4.720   4.475   2.640 -0.0505  1.5595  2.0977
19006TIP3   OH278432   1.573   3.821  15.484  0.4674 -0.0855 -0.5556
19006TIP3    H178433   1.616   3.768  15.417 -0.6123 -2.5389  0.5711
19006TIP3    H278434   1.484   3.834  15.451  0.7779  1.3080 -0.9227
19007TIP3   OH278435   5.877   6.196   1.408  0.1780  0.5340  0.4140
19007TIP3    H178436   5.851   6.120   1.460  0.5050  0.2321  0.1376
19007TIP3    H278437   5.902   6.160   1.323  0.6490  0.9157  0.3858
19008TIP3   OH278438   1.965   3.772  11.727  0.7350  0.1555 -0.7225
19008TIP3    H178439   2.012   3.739  11.651  3.2973 -1.6645  1.4700
19008TIP3    H278440   1.981   3.867  11.727  2.4415 -0.1130 -1.3512
19009TIP3   OH278441   5.037   6.537   0.562  0.2921  0.3179  0.4524
19009TIP3    H178442   4.945   6.513   0.574  0.1176 -0.1488 -1.4791
19009TIP3    H278443   5.070   6.474   0.498  1.8787  0.7069  0.8278
19010TIP3   OH278444   0.211   5.452   2.076  0.2226 -0.3944 -0.5937
19010TIP3    H178445   0.290   5.504   2.088  1.0493 -1.8893  0.9479
19010TIP3    H278446   0.139   5.514   2.085  1.1891  0.6541  0.0932
19011TIP3   OH278447   6.593   4.140   0.950 -0.7239 -0.3274  0.4325
19011TIP3    H178448   6.543   4.121   0.871 -0.3765 -0.9724  0.3654
19011TIP3    H278449   6.646   4.216   0.927 -1.3367  0.0958  0.3660
19012TIP3   OH278450   3.872   3.270  17.180 -0.4940  0.2970 -0.3390
19012TIP3    H178451   3.967   3.277  17.181 -0.3803 -0.7276  1.0694
19012TIP3    H278452   3.851   3.229  17.096  0.5336 -1.4150  0.1800
19013TIP3   OH278453   6.641   3.264  15.275 -0.6577  0.2932  0.8856
19013TIP3    H178454   6.722   3.271  15.224  0.1562 -1.0067  1.9316
19013TIP3    H278455   6.573   3.248  15.209  0.2240 -0.4144  0.1176
19014TIP3   OH278456   2.068   0.876  15.745  0.3003 -0.1167  0.1726
19014TIP3    H178457   2.051   0.900  15.836 -1.4374 -2.3835  0.5412
19014TIP3    H278458   2.107   0.955  15.706  3.0893  0.3222  3.3295
19015TIP3   OH278459   2.152   1.609   4.570 -0.2227  0.4709  0.0774
19015TIP3    H178460   2.203   1.528   4.576 -0.4880  0.3221  0.3741
19015TIP3    H278461   2.089   1.603   4.642 -1.4482  0.0944 -0.9884
19016TIP3   OH278462   1.130   5.414  16.815  0.0572 -0.2306 -0.3669
19016TIP3    H178463   1.201   5.448  16.870 -1.7170  2.7551  0.3374
19016TIP3    H278464   1.118   5.482  16.749 -0.9367 -1.5568 -1.5834
19017TIP3   OH278465   4.721   1.815  13.976 -0.5783 -0.0779  0.0660
19017TIP3    H178466   4.682   1.753  13.914  0.6719 -0.2553 -0.5728
19017TIP3    H278467   4.713   1.900  13.932 -0.7267 -0.0339  0.1764
19018TIP3   OH278468   2.288   0.537   3.134  0.2343 -0.1547  0.4444
19018TIP3    H178469   2.251   0.449   3.142  0.9685 -0.4182  1.0537
19018TIP3    H278470   2.218   0.595   3.163  0.0789 -0.6073  0.9993
19019TIP3   OH278471   4.659   4.102  12.691  0.2407  0.2946  1.1767
19019TIP3    H178472   4.680   4.083  12.600  0.4010  0.7438  1.1209
19019TIP3    H278473   4.690   4.191  12.706 -1.7925  1.0883  1.0390
19020TIP3   OH278474   6.756   2.518  12.184 -0.6689 -0.5807 -0.2938
19020TIP3    H178475   6.795   2.566  12.257 -3.1170 -0.8906  1.3058
19020TIP3    H278476   6.831   2.497  12.127  1.4742 -0.9641  2.4477
19021TIP3   OH278477   4.747   6.441  11.521  0.0417  0.1170  0.1230
19021TIP3    H178478   4.769   6.353  11.550  1.0432  0.1581 -0.4711
19021TIP3    H278479   4.790   6.499  11.584 -2.5529  0.2537  1.9654
19022TIP3   OH278480   3.945   2.235   5.030 -0.2123  0.1056  0.4437
19022TIP3    H178481   4.033   2.242   5.068 -0.9940  0.0223  2.4117
19022TIP3    H278482   3.904   2.319   5.049 -0.2888  0.4894 -1.2815
19023TIP3   OH278483   1.525   0.725  11.797 -0.5403  0.0587 -0.3190
19023TIP3    H178484   1.555   0.706  11.708  0.0115  4.3142 -1.2466
19023TIP3    H278485   1.604   0.750  11.845 -0.8858 -1.8286  1.3834
19024TIP3   OH278486   2.702   1.189   0.361  0.3752  0.2608  0.0583
19024TIP3    H178487   2.758   1.224   0.430  0.4852  0.6849 -0.2440
19024TIP3    H278488   2.759   1.181   0.284 -0.0559  1.0404 -0.3567
19025TIP3   OH278489   5.224   0.909  12.877 -0.2415  0.1256  0.0999
19025TIP3    H178490   5.214   1.003  12.859 -0.3798  0.1392  0.2555
19025TIP3    H278491   5.193   0.897  12.966 -0.1156 -0.0505  0.1228
19026TIP3   OH278492   4.974   6.751  15.075  0.7119  0.3132 -0.1032
19026TIP3    H178493   4.940   6.824  15.025  0.4165  1.3705  1.5487
19026TIP3    H278494   4.914   6.743  15.150  1.2909 -0.9884  0.2533
19027TIP3   OH278495   3.194   3.853  15.408  0.5491 -0.2419  0.5011
19027TIP3    H178496   3.134   3.892  15.344 -0.1717  0.2705  1.4548
19027TIP3    H278497   3.273   3.907  15.403  0.2638  0.1753  0.4852
19028TIP3   OH278498   3.953   0.851   0.875 -1.3343 -0.5747 -0.0856
19028TIP3    H178499   4.023   0.786   0.886 -2.5294 -2.0335 -0.6800
19028TIP3    H278500   3.948   0.866   0.781 -0.4752  1.1260  0.0991
19029TIP3   OH278501   6.693   3.064  16.505  0.0760 -0.6086  0.4317
19029TIP3    H178502   6.711   3.158  16.499  0.4276 -0.7115 -0.2203
19029TIP3    H278503   6.608   3.059  16.549  0.1868  0.0014  0.7259
19030TIP3   OH278504   0.849   0.783  12.616  0.6101 -0.4856 -0.3152
19030TIP3    H178505   0.825   0.817  12.530  0.0659  0.4920  0.2105
19030TIP3    H278506   0.766   0.758  12.656  0.8020 -0.3454  0.1767
19031TIP3   OH278507   4.270   3.633  15.199  0.2229 -0.3452 -0.4964
19031TIP3    H178508   4.184   3.645  15.158  0.1085 -2.5856 -1.0436
19031TIP3    H278509   4.253   3.577  15.275  0.9033  1.1407  0.8230
19032TIP3   OH278510   1.202   1.742   5.967  0.1336  0.3829  0.2917
19032TIP3    H178511   1.236   1.686   6.036  2.8282 -1.7436 -2.5011
19032TIP3    H278512   1.256   1.821   5.970  0.3897  0.2000  0.4275
19033TIP3   OH278513   4.606   5.725   5.114  0.2915 -0.3827 -0.2703
19033TIP3    H178514   4.697   5.754   5.112 -0.4544  2.2625 -0.9340
19033TIP3    H278515   4.594   5.680   5.030  0.1092  2.7106 -2.0625
19034TIP3   OH278516   6.569   3.932  15.953 -0.5399 -0.4539  0.0174
19034TIP3    H178517   6.584   3.956  15.862  1.8238 -0.5112  0.3309
19034TIP3    H278518   6.657   3.923  15.990 -1.3960  1.2403  2.7373
19035TIP3   OH278519   1.591   5.653   0.289  0.4162 -0.3807 -0.0646
19035TIP3    H178520   1.507   5.607   0.300  1.0046 -2.4976 -3.0042
19035TIP3    H278521   1.574   5.716   0.220  0.8689  0.3577  0.4917
19036TIP3   OH278522   3.481   3.285   2.068 -0.3078  0.6160 -0.3144
19036TIP3    H178523   3.444   3.202   2.037 -0.5058  0.7538 -0.4437
19036TIP3    H278524   3.557   3.299   2.012  1.2495 -0.7611  1.3143
19037TIP3   OH278525   6.643   6.405  16.447 -0.1310  0.2911 -0.1705
19037TIP3    H178526   6.569   6.344  16.453  1.2804 -1.3834  2.5317
19037TIP3    H278527   6.621   6.475  16.509 -0.5554  1.1433 -1.2687
19038TIP3   OH278528   4.982   1.167   2.692 -0.1647  0.2299 -0.1187
19038TIP3    H178529   5.041   1.152   2.765 -0.1982 -1.4850 -0.4023
19038TIP3    H278530   5.023   1.238   2.642  0.7903  0.1812  0.5694
19039TIP3   OH278531   2.955   6.350   6.395  0.1540 -0.1336  0.0822
19039TIP3    H178532   2.923   6.440   6.401 -1.0904 -0.3755 -2.1248
19039TIP3    H278533   3.050   6.357   6.411  0.0195  1.4791  0.3485
19040TIP3   OH278534   3.101   5.324  15.321  0.6728  0.1005  0.2280
19040TIP3    H178535   3.075   5.323  15.413  0.1242 -1.4441  0.0753
19040TIP3    H278536   3.192   5.293  15.320  0.3207 -0.9435  0.1571
19041TIP3   OH278537   0.033   3.772   3.678 -0.2387 -0.4907 -0.2099
19041TIP3    H178538   0.057   3.721   3.755 -2.0932 -1.5748 -0.2720
19041TIP3    H278539  -0.055   3.806   3.698 -0.1508  0.4157 -1.2617
19042TIP3   OH278540   1.355   3.961  17.034  0.4927 -0.2559 -0.1990
19042TIP3    H178541   1.351   4.041  17.087  0.4880  0.3595 -1.1049
19042TIP3    H278542   1.441   3.923  17.055  2.0031  1.7738 -2.2111
19043TIP3   OH278543   3.242   6.071   4.892  0.5670 -0.6886  0.0224
19043TIP3    H178544   3.299   6.112   4.957  0.7527 -2.4917  1.0460
19043TIP3    H278545   3.179   6.021   4.943  0.1521 -1.4229 -1.1715
19044TIP3   OH278546   3.708   6.633   5.642  0.9658  0.0051  0.4170
19044TIP3    H178547   3.620   6.666   5.660  0.0735 -2.9404  2.1543
19044TIP3    H278548   3.766   6.704   5.669 -0.7861  2.0483 -0.8118
19045TIP3   OH278549   6.692   3.155  12.509 -0.0674 -0.8682  0.4583
19045TIP3    H178550   6.599   3.145  12.531 -0.9193  1.0871 -1.8801
19045TIP3    H278551   6.702   3.109  12.426  0.5679  0.6400 -0.3200
19046TIP3   OH278552   3.104   6.095  14.163 -0.1918  0.0659 -0.0800
19046TIP3    H178553   3.070   6.114  14.250  0.1953  1.3419 -0.1818
19046TIP3    H278554   3.166   6.023  14.176 -0.7193 -0.2792  0.5639
19047TIP3   OH278555   4.964   3.995  14.356 -0.2015  0.4811  0.3220
19047TIP3    H178556   5.048   3.955  14.378 -1.0425 -0.1758  2.6277
19047TIP3    H278557   4.903   3.921  14.355 -0.9538  1.0945 -0.2117
19048TIP3   OH278558   1.409   1.654   0.945 -0.2099  0.3062 -0.4817
19048TIP3    H178559   1.455   1.609   1.016 -0.2977  0.1617 -0.5163
19048TIP3    H278560   1.337   1.699   0.988  1.2986  2.4898 -0.0607
19049TIP3   OH278561   5.501   1.064   1.826  0.1504 -0.3779  0.2295
19049TIP3    H178562   5.531   1.089   1.913 -0.4967 -0.0173  0.3585
19049TIP3    H278563   5.406   1.052   1.836  0.0165 -0.0062 -0.4900
19050TIP3   OH278564   1.884   4.377   1.091  0.0114 -0.0438  0.3820
19050TIP3    H178565   1.841   4.413   1.169 -3.5719 -0.1155 -1.3451
19050TIP3    H278566   1.946   4.445   1.064  1.1430  0.0997  3.0217
19051TIP3   OH278567   2.144   0.062  14.390 -0.0442  0.1617 -0.6171
19051TIP3    H178568   2.207   0.133  14.401  0.6592 -0.2050 -2.1422
19051TIP3    H278569   2.111   0.046  14.479  0.0349  2.1451 -0.1843
19052TIP3   OH278570   2.832   4.611  17.259 -0.3656 -0.2819 -0.7762
19052TIP3    H178571   2.821   4.597  17.353 -0.9744  0.2642 -0.7594
19052TIP3    H278572   2.744   4.631  17.228  0.3973  4.2502 -0.6651
19053TIP3   OH278573   6.142   0.843   2.238  0.4936  0.2965 -0.5751
19053TIP3    H178574   6.059   0.822   2.195  0.6193  0.2304 -0.7866
19053TIP3    H278575   6.146   0.938   2.237  0.5889  0.2895 -0.8869
19054TIP3   OH278576   0.480   0.638  14.302  0.2192 -0.7792 -0.0880
19054TIP3    H178577   0.410   0.662  14.363 -0.4786 -2.0531 -0.3578
19054TIP3    H278578   0.557   0.684  14.334 -0.5633  0.0221  0.6774
19055TIP3   OH278579   1.452   2.812   1.145 -0.2211  0.1651 -0.4130
19055TIP3    H178580   1.395   2.827   1.070 -0.1813  0.9063 -0.3025
19055TIP3    H278581   1.496   2.896   1.159 -1.1872  0.4350  1.2591
19056TIP3   OH278582   1.592   6.373   5.913 -0.1072  0.4649  0.3049
19056TIP3    H178583   1.631   6.450   5.956  0.5764  0.3230 -0.0563
19056TIP3    H278584   1.661   6.339   5.856 -0.9213  0.5030 -0.7379
19057TIP3   OH278585   1.360   2.898  11.618  0.6483  0.7004 -0.1828
19057TIP3    H178586   1.404   2.876  11.700 -2.0573 -0.5254  1.0738
19057TIP3    H278587   1.406   2.846  11.551  1.3217 -0.2167  0.9654
19058TIP3   OH278588   3.552   0.055   5.343  0.0137  0.2404  0.2283
19058TIP3    H178589   3.470   0.075   5.297  1.3864  0.0093 -2.4986
19058TIP3    H278590   3.539  -0.034   5.377 -0.7307  0.0486 -0.5110
19059TIP3   OH278591   6.083   5.741   0.567 -0.2707 -0.3880 -0.2330
19059TIP3    H178592   6.012   5.695   0.613 -1.5435  1.1585 -0.5670
19059TIP3    H278593   6.125   5.794   0.635  0.7202 -1.4452  0.0026
19060TIP3   OH278594   1.846   0.669  16.517 -0.4243 -0.1055 -0.0771
19060TIP3    H178595   1.867   0.604  16.449  1.6401 -1.0907  1.3631
19060TIP3    H278596   1.877   0.752  16.481 -0.5035 -0.3967 -0.8340
19061TIP3   OH278597   4.401   6.610   0.907  0.0831 -0.0488  0.0450
19061TIP3    H178598   4.419   6.524   0.946 -1.8614  0.4006  2.1277
19061TIP3    H278599   4.482   6.659   0.919  0.9747 -1.3185 -0.5156
19062TIP3   OH278600   1.461   2.513   3.563 -0.1885 -0.6956  0.2526
19062TIP3    H178601   1.489   2.444   3.622 -1.8898 -1.2343  0.4931
19062TIP3    H278602   1.401   2.567   3.616  1.1579  1.0565  0.1094
19063TIP3   OH278603   6.437   3.320   1.123 -0.6898  0.0270 -0.3185
19063TIP3    H178604   6.520   3.312   1.171  0.5807  1.4798 -2.1315
19063TIP3    H278605   6.381   3.373   1.181 -0.3961 -0.9534  0.9182
19064TIP3   OH278606   2.192   5.136  16.825  0.2747 -0.1883 -0.2871
19064TIP3    H178607   2.255   5.140  16.753 -0.6233 -2.9306 -1.3613
19064TIP3    H278608   2.112   5.173  16.787  0.4832  0.7596  0.1770
19065TIP3   OH278609   2.530   5.007   2.501  0.0289 -0.1546 -0.3227
19065TIP3    H178610   2.619   5.001   2.536  0.0335  1.1579 -0.0382
19065TIP3    H278611   2.541   5.048   2.415 -0.1384 -1.8383 -1.1859
19066TIP3   OH278612   3.445   0.734   6.453 -0.4095  0.2209 -0.3467
19066TIP3    H178613   3.363   0.715   6.497 -0.5498 -0.0574 -0.7167
19066TIP3    H278614   3.462   0.656   6.399 -0.3801  0.6621 -0.9854
19067TIP3   OH278615   0.725   4.511   5.200 -0.2482 -0.4746  0.2571
19067TIP3    H178616   0.820   4.500   5.205 -0.0869  0.7920  0.2886
19067TIP3    H278617   0.697   4.517   5.291 -0.3601 -0.7737  0.2451
19068TIP3   OH278618   2.135   5.816   1.133  0.2551 -0.4752  0.5518
19068TIP3    H178619   2.052   5.840   1.174 -0.3632 -1.2354 -0.2153
19068TIP3    H278620   2.144   5.876   1.059  0.2193 -0.6065  0.4399
19069TIP3   OH278621   4.008   5.525  10.421  0.2728 -0.2702 -0.3840
19069TIP3    H178622   4.067   5.581  10.371 -0.5976 -1.3222 -2.7608
19069TIP3    H278623   4.056   5.443  10.433 -0.0274 -0.5029 -0.7409
19070TIP3   OH278624   4.900   4.545   0.074 -0.0298 -0.1624  0.0344
19070TIP3    H178625   4.955   4.613   0.034 -0.4508  0.0384 -0.2112
19070TIP3    H278626   4.938   4.462   0.045 -0.5436 -0.0207 -1.0972
19071TIP3   OH278627   4.623   0.860   5.612  0.0587  0.1348  0.2567
19071TIP3    H178628   4.633   0.774   5.653  3.9312 -0.0345 -0.6812
19071TIP3    H278629   4.676   0.919   5.666 -1.4835  1.7300  0.1365
19072TIP3   OH278630   1.065   2.624   5.341  0.2281  0.4557  0.3503
19072TIP3    H178631   1.100   2.535   5.335 -0.7376  0.0830  0.0455
19072TIP3    H278632   1.129   2.678   5.293 -0.5905 -0.5083 -1.9616
19073TIP3   OH278633   0.058   5.512   1.429  0.1224  0.2716  0.0602
19073TIP3    H178634   0.057   5.504   1.333  0.8427  1.0163 -0.0209
19073TIP3    H278635   0.150   5.507   1.453 -0.1195 -0.9292  0.8318
19074TIP3   OH278636   1.690   6.612   2.969 -0.2546  0.6866 -0.3162
19074TIP3    H178637   1.722   6.578   3.052  0.1106  2.8051  0.4535
19074TIP3    H278638   1.608   6.564   2.954 -1.3503  1.5912  2.2485
19075TIP3   OH278639   5.565   1.801   0.329 -0.4893 -0.1633  0.0729
19075TIP3    H178640   5.611   1.809   0.246  0.0437  1.4872  0.4951
19075TIP3    H278641   5.606   1.727   0.372  0.6605  0.2535 -0.2641
19076TIP3   OH278642   3.076   3.970   4.468  0.4510  0.1127  0.2944
19076TIP3    H178643   3.096   3.946   4.558  1.8171 -1.6576 -0.4332
19076TIP3    H278644   3.101   4.062   4.462  1.7231 -0.1401  1.3445
19077TIP3   OH278645   4.296   4.107   4.011  0.2500 -0.0132 -0.0707
19077TIP3    H178646   4.375   4.059   4.035  0.5806 -0.2726 -1.5352
19077TIP3    H278647   4.229   4.040   4.000 -0.0727  0.1675  0.7855
19078TIP3   OH278648   1.339   0.979   5.319  0.0441 -0.5382  0.0549
19078TIP3    H178649   1.281   0.943   5.387 -0.0512 -3.2739 -1.3181
19078TIP3    H278650   1.331   0.917   5.246  2.0860  0.8839 -1.4845
19079TIP3   OH278651   2.209   3.195   3.376 -0.2797  0.3094 -0.6565
19079TIP3    H178652   2.141   3.248   3.418  0.7425  1.2497 -0.1345
19079TIP3    H278653   2.212   3.227   3.286  1.5293  2.4576  0.0833
19080TIP3   OH278654   1.047   1.336  15.537 -0.3652 -0.3098  0.7347
19080TIP3    H178655   1.106   1.271  15.500 -0.5980  0.4676 -1.0847
19080TIP3    H278656   0.964   1.323  15.491  0.2902  2.9197 -1.6895
19081TIP3   OH278657   2.445   5.376  13.874  0.0048  0.3000  0.6021
19081TIP3    H178658   2.453   5.472  13.870  1.3872  0.1689 -1.1336
19081TIP3    H278659   2.387   5.354  13.801 -3.6687 -0.0132  3.3149
19082TIP3   OH278660   3.194   5.410   5.584 -0.7467  0.1388  0.7960
19082TIP3    H178661   3.254   5.410   5.510 -0.6760 -2.1849  0.7586
19082TIP3    H278662   3.111   5.441   5.549 -0.8150 -1.2775 -0.4090
19083TIP3   OH278663   2.811   6.458   3.243 -0.7671 -0.4634  0.2404
19083TIP3    H178664   2.792   6.374   3.286 -1.5020 -0.6219 -0.3648
19083TIP3    H278665   2.843   6.433   3.157 -2.4016 -0.1327 -0.5049
19084TIP3   OH278666   0.367   2.411  14.136 -0.3384 -0.1031 -0.6503
19084TIP3    H178667   0.394   2.500  14.114 -0.9249 -0.1554 -1.6740
19084TIP3    H278668   0.278   2.404  14.102  0.4779 -1.7698 -2.7221
19085TIP3   OH278669   1.150   2.777   4.776 -0.3181  0.3001 -0.6866
19085TIP3    H178670   1.242   2.793   4.754 -0.6294  2.3657 -0.7242
19085TIP3    H278671   1.141   2.807   4.867 -0.9050 -0.1126 -0.6011
19086TIP3   OH278672   4.586   4.738   1.445  0.5603 -0.3102 -0.4523
19086TIP3    H178673   4.523   4.677   1.484  1.0137 -1.0031 -0.7852
19086TIP3    H278674   4.565   4.738   1.352 -0.0731  0.8145 -0.3257
19087TIP3   OH278675   0.942   5.585   1.225  0.9016 -0.0656  0.9388
19087TIP3    H178676   1.010   5.517   1.217  1.3369  0.3335  1.1996
19087TIP3    H278677   0.985   5.665   1.195 -0.2245 -0.2406 -1.4142
19088TIP3   OH278678   1.784   2.269   2.602 -0.2320  0.2702 -0.2886
19088TIP3    H178679   1.726   2.326   2.552  0.9847  0.3469 -1.6952
19088TIP3    H278680   1.870   2.282   2.562  0.3964 -1.2620  0.4849
19089TIP3   OH278681   6.305   3.136   0.968 -0.6639  0.2911 -0.1475
19089TIP3    H178682   6.357   3.075   0.916 -0.7213 -0.2296  0.3909
19089TIP3    H278683   6.370   3.185   1.019 -0.7406 -1.6145  1.8918
19090TIP3   OH278684   2.515   3.870  11.985  0.1463  0.4097  0.2284
19090TIP3    H178685   2.555   3.949  11.950 -0.1523  1.3664  1.9191
19090TIP3    H278686   2.582   3.834  12.044 -0.6061  0.7932  1.3605
19091TIP3   OH278687   0.968   5.475  17.034 -0.2254  0.3712 -0.2560
19091TIP3    H178688   1.023   5.434  16.967  0.2198  1.7906 -0.7909
19091TIP3    H278689   0.888   5.421  17.035 -0.6064  0.7652 -2.5329
19092TIP3   OH278690   2.389   2.269  12.025 -0.1049 -0.3849  0.1741
19092TIP3    H178691   2.315   2.275  11.964 -0.4110  0.4629  0.6046
19092TIP3    H278692   2.355   2.218  12.099  0.7135 -2.7009 -0.9563
19093TIP3   OH278693   6.451   0.039  15.784 -0.1436 -0.0740  0.5384
19093TIP3    H178694   6.365  -0.000  15.797 -0.1227 -0.2871  0.0376
19093TIP3    H278695   6.455   0.061  15.691  0.5924 -0.6667  0.4176
19094TIP3   OH278696   3.727   3.295   5.097  0.5047 -0.5755  0.2533
19094TIP3    H178697   3.679   3.229   5.148  0.6601 -0.8372  0.0667
19094TIP3    H278698   3.719   3.265   5.006  1.6395 -1.0343  0.2897
19095TIP3   OH278699   0.037   6.124  11.083  0.3272 -0.2078  0.6483
19095TIP3    H178700  -0.040   6.126  11.140  0.4029 -0.3868  0.7594
19095TIP3    H278701   0.026   6.044  11.031  0.4603 -0.2578  0.6966
19096TIP3   OH278702   6.055   2.453   2.594 -0.2710 -0.0139 -0.1789
19096TIP3    H178703   6.115   2.411   2.532  0.5710  0.7398  0.1077
19096TIP3    H278704   6.107   2.523   2.633 -2.3168  3.0353 -2.4953
19097TIP3   OH278705   3.323   5.773  15.194  0.4533  0.9524 -0.5133
19097TIP3    H178706   3.372   5.756  15.113  0.1368  0.8264 -0.6805
19097TIP3    H278707   3.349   5.702  15.253  3.7574  3.1431  0.9543
19098TIP3   OH278708   3.240   0.068   1.051 -0.2838  0.2846 -0.0522
19098TIP3    H178709   3.295   0.112   0.987  0.0277  1.9504  1.2792
19098TIP3    H278710   3.299   0.007   1.096  0.5969  2.1318  1.4362
19099TIP3   OH278711   1.377   1.461   0.389 -0.4349  0.1823 -0.1964
19099TIP3    H178712   1.341   1.506   0.312 -0.5446 -0.8555 -0.7761
19099TIP3    H278713   1.440   1.398   0.352 -1.7979 -1.6143  0.3782
19100TIP3   OH278714   6.106   0.285   1.389  0.0784 -0.3120  0.6988
19100TIP3    H178715   6.194   0.277   1.426  0.3581  0.7495  0.3047
19100TIP3    H278716   6.055   0.218   1.434  1.0493 -0.8276  1.0561
19101TIP3   OH278717   0.632   0.825  11.609  0.1662 -0.4846 -0.6321
19101TIP3    H178718   0.648   0.753  11.669  3.5734  1.0363  0.5369
19101TIP3    H278719   0.659   0.791  11.523  2.6108 -0.4520  0.0519
19102TIP3   OH278720   3.372   4.317  13.458  0.2808 -0.3406 -0.4436
19102TIP3    H178721   3.431   4.304  13.385 -1.2389 -2.1974 -1.4485
19102TIP3    H278722   3.298   4.366  13.421 -0.3522 -1.0126 -0.1042
19103TIP3   OH278723   2.915   4.651   4.095 -0.5067  0.0029 -0.1234
19103TIP3    H178724   2.880   4.635   4.008 -0.0899  2.5544 -0.8237
19103TIP3    H278725   2.901   4.744   4.111  1.6564  0.1359  1.5068
19104TIP3   OH278726   2.115   2.139   5.725  0.4967 -0.6080 -0.3240
19104TIP3    H178727   2.100   2.084   5.649  0.0741 -0.7399 -0.1478
19104TIP3    H278728   2.034   2.189   5.736 -0.2189 -2.0219  1.2059
19105TIP3   OH278729   3.268   0.572   5.580  0.6279 -0.4146 -0.2246
19105TIP3    H178730   3.224   0.595   5.662  1.1632 -0.1071 -0.0185
19105TIP3    H278731   3.360   0.558   5.605  0.9714  0.5161 -0.9010
19106TIP3   OH278732   2.026   0.190  13.082  0.1184 -0.6042  0.4736
19106TIP3    H178733   1.978   0.230  13.154  0.8473 -0.2993  0.8006
19106TIP3    H278734   1.978   0.109  13.063  0.3938 -1.1170  1.8567
19107TIP3   OH278735   3.308   5.333   2.507 -0.5436 -0.1950  0.3891
19107TIP3    H178736   3.227   5.384   2.511 -0.3222  0.2149 -0.2070
19107TIP3    H278737   3.281   5.247   2.475 -0.7430 -0.0431  0.1442
19108TIP3   OH278738   2.281   0.118   5.612 -0.0603 -0.3878 -0.1581
19108TIP3    H178739   2.194   0.154   5.630 -1.0540 -2.5903 -0.1925
19108TIP3    H278740   2.310   0.081   5.695  2.0577  2.4797  0.5422
19109TIP3   OH278741   0.691   0.549   5.467  0.4559  0.0243 -0.0629
19109TIP3    H178742   0.658   0.459   5.461 -0.6778  0.4740 -1.2713
19109TIP3    H278743   0.765   0.552   5.407  0.8301 -0.2361  0.3845
19110TIP3   OH278744   2.734   5.999   1.520  0.0410 -0.1889  0.1053
19110TIP3    H178745   2.802   6.034   1.577 -1.5954  2.0578  0.8345
19110TIP3    H278746   2.733   5.905   1.539  2.4004 -0.1952  0.5692
19111TIP3   OH278747   4.910   3.981   6.779 -0.1673  0.1565  0.0057
19111TIP3    H178748   4.821   3.978   6.745  0.0815  0.0599 -0.6362
19111TIP3    H278749   4.952   4.054   6.732  0.0686  0.2565  0.3633
19112TIP3   OH278750   1.973   0.852   3.521 -0.1778 -0.0562  0.1189
19112TIP3    H178751   1.987   0.760   3.540  0.7248  0.6394  3.6048
19112TIP3    H278752   1.888   0.872   3.561 -1.0317  0.3943 -1.8080
19113TIP3   OH278753   1.908   3.019  15.019 -0.5499  0.7350 -0.2164
19113TIP3    H178754   1.819   3.045  14.998 -0.8666  0.2205  0.4257
19113TIP3    H278755   1.900   2.969  15.101  0.3114  0.6088 -0.1923
19114TIP3   OH278756   2.309   3.908  16.394 -0.4092  0.0806  0.4783
19114TIP3    H178757   2.287   3.924  16.485 -0.7284 -0.5620  0.5232
19114TIP3    H278758   2.256   3.832  16.370  1.5739 -1.3658  0.5025
19115TIP3   OH278759   5.683   4.086   4.545  0.2614  0.0908  0.1269
19115TIP3    H178760   5.733   4.164   4.522 -1.2743  1.5798  1.5187
19115TIP3    H278761   5.680   4.086   4.641 -1.2295 -0.6980  0.1158
19116TIP3   OH278762   6.055   1.343  15.670 -0.3337  0.0145 -0.1944
19116TIP3    H178763   6.020   1.401  15.602  1.2838  0.4805 -0.6786
19116TIP3    H278764   6.015   1.374  15.751 -1.5851  0.0393 -0.7885
19117TIP3   OH278765   6.212   4.229  12.214 -0.5589  0.4907  0.1613
19117TIP3    H178766   6.192   4.161  12.278  3.1601 -0.1615  0.8638
19117TIP3    H278767   6.207   4.184  12.129 -2.9908  0.7070  0.1362
19118TIP3   OH278768   6.221   0.102   2.030 -0.1112 -0.6622 -0.0808
19118TIP3    H178769   6.147   0.047   2.054 -1.6606  1.9514  1.5787
19118TIP3    H278770   6.270   0.114   2.111 -0.0599  0.6711 -0.2800
19119TIP3   OH278771   6.089   0.612   1.637  0.2757  0.1849  0.4727
19119TIP3    H178772   6.053   0.622   1.548  1.2550  0.6740  0.1160
19119TIP3    H278773   6.138   0.692   1.652  1.9363 -0.8095  0.5844
19120TIP3   OH278774   6.614   0.024   2.696  0.4327 -0.5136 -0.2621
19120TIP3    H178775   6.654   0.009   2.610  1.1903 -1.6890  0.2607
19120TIP3    H278776   6.666   0.095   2.734 -0.4822  0.6397 -1.1100
19121TIP3   OH278777   3.230   1.820   3.528  0.6705  0.0241 -0.0124
19121TIP3    H178778   3.312   1.775   3.510  0.2456 -0.6338 -0.3577
19121TIP3    H278779   3.256   1.903   3.567  1.4494 -0.9049  1.5265
19122TIP3   OH278780   3.112   6.139  14.654  0.0617  0.0938  0.1494
19122TIP3    H178781   3.199   6.140  14.694 -0.6407 -0.1229  1.7706
19122TIP3    H278782   3.089   6.046  14.649 -1.3748  0.2092  2.8333
19123TIP3   OH278783   4.029   4.361   2.177 -0.2993  0.2674  0.1687
19123TIP3    H178784   4.046   4.436   2.235  0.0988 -0.1686  0.6296
19123TIP3    H278785   3.935   4.345   2.186 -0.1139 -0.2895  1.3290
19124TIP3   OH278786   5.727   5.211  17.290  0.2669  0.8270  0.0278
19124TIP3    H178787   5.744   5.175  17.203 -0.9061  0.5733 -0.1198
19124TIP3    H278788   5.668   5.285  17.274  1.9427  2.3137  0.4141
19125TIP3   OH278789   5.956   4.421   3.653  0.1453  0.4158 -0.3012
19125TIP3    H178790   5.943   4.376   3.570 -0.3729 -0.7690  0.3954
19125TIP3    H278791   6.051   4.421   3.666  0.1078 -1.6497  0.2764
19126TIP3   OH278792   6.714   5.810   4.666 -0.1059 -0.7421  0.5857
19126TIP3    H178793   6.719   5.820   4.761  0.8278 -0.0588  0.4743
19126TIP3    H278794   6.636   5.858   4.641  0.7050  0.7518  0.8087
19127TIP3   OH278795   1.157   1.548  15.416 -0.8775  0.1755  0.5855
19127TIP3    H178796   1.110   1.467  15.440 -0.1590 -1.1165 -2.0044
19127TIP3    H278797   1.087   1.612  15.401 -1.7031 -0.9079 -0.4299
19128TIP3   OH278798   3.033   1.768  11.515 -0.2112  0.2818  0.0660
19128TIP3    H178799   2.958   1.718  11.482 -1.4730  1.7876  0.5730
19128TIP3    H278800   3.099   1.761  11.445 -1.5640  0.5863 -1.2838
19129TIP3   OH278801   1.741   3.210  13.749  0.5742 -0.0383  0.0960
19129TIP3    H178802   1.803   3.161  13.695 -0.4754  0.5807 -1.7734
19129TIP3    H278803   1.729   3.293  13.702 -1.1024  0.1489  0.7996
19130TIP3   OH278804   1.910   6.667   3.207  0.3606 -0.6390  0.2856
19130TIP3    H178805   1.853   6.592   3.227  1.1674 -0.7935  2.2463
19130TIP3    H278806   1.850   6.742   3.207 -0.0899 -0.9836  0.8227
19131TIP3   OH278807   1.540   1.972   1.064 -0.0561  0.0032 -0.2141
19131TIP3    H178808   1.537   1.939   0.974 -2.9586 -3.3183  0.8643
19131TIP3    H278809   1.527   2.067   1.055  1.4462  0.0640 -3.2796
19132TIP3   OH278810   2.537   4.213   3.320  0.0138  0.4574 -0.1992
19132TIP3    H178811   2.617   4.266   3.323 -1.0933  2.1623  0.8578
19132TIP3    H278812   2.504   4.214   3.409 -0.7919 -0.8707 -0.4616
19133TIP3   OH278813   2.364   5.032   0.009  0.3808 -0.5592 -0.2777
19133TIP3    H178814   2.317   5.107  -0.028 -0.9073 -0.9565  0.5035
19133TIP3    H278815   2.428   5.010  -0.058  0.9193  1.3385 -0.4492
19134TIP3   OH278816   5.787   4.186  14.887  0.3509 -0.2700  0.4328
19134TIP3    H178817   5.789   4.278  14.914 -0.8074 -1.0319  3.5738
19134TIP3    H278818   5.879   4.159  14.888  0.8244  1.0327 -1.5691
19135TIP3   OH278819   1.426   1.391  16.328  0.3210 -0.3756 -0.0447
19135TIP3    H178820   1.394   1.480  16.339  3.0293  0.7173 -0.4224
19135TIP3    H278821   1.477   1.373  16.408  1.0220 -1.0160 -0.6202
19136TIP3   OH278822   1.147   6.560   5.421 -0.1869 -0.3118 -0.6248
19136TIP3    H178823   1.236   6.532   5.443  0.4066  1.6405 -0.3353
19136TIP3    H278824   1.092   6.486   5.445  1.1541 -0.8342  1.0564
19137TIP3   OH278825   1.118   2.009  14.081 -0.2453  0.5401  0.2469
19137TIP3    H178826   1.067   1.952  14.023 -0.9581  0.5353  0.8611
19137TIP3    H278827   1.052   2.062  14.126  0.3952  1.7317 -0.1719
19138TIP3   OH278828   4.346   3.613  11.371 -0.0268  0.0065  0.5304
19138TIP3    H178829   4.372   3.556  11.298 -2.0493  0.2802 -0.4913
19138TIP3    H278830   4.345   3.701  11.334 -1.6963  0.0773  0.6440
19139TIP3   OH278831   2.124   4.860  13.590 -0.1367  0.8411 -0.4710
19139TIP3    H178832   2.190   4.929  13.603  0.8221 -0.0178 -0.6083
19139TIP3    H278833   2.042   4.901  13.617  0.7467  1.2573  1.9465
19140TIP3   OH278834   6.500   5.142  13.634  0.2472  0.4364 -0.6219
19140TIP3    H178835   6.432   5.141  13.701 -0.1463  0.2049 -1.0199
19140TIP3    H278836   6.539   5.054  13.639 -0.6497 -0.0426 -1.5569
19141TIP3   OH278837   6.505   4.212   1.504 -0.4868 -0.3524 -0.0269
19141TIP3    H178838   6.444   4.140   1.489 -0.7474 -0.8179  2.7845
19141TIP3    H278839   6.577   4.173   1.553 -0.7742  1.2707  1.8284
19142TIP3   OH278840   4.869   1.474  14.388  0.2100  0.0966  0.2659
19142TIP3    H178841   4.876   1.505  14.478  0.6333 -0.5864  0.4782
19142TIP3    H278842   4.927   1.532  14.338 -1.1693  1.4351  0.1533
19143TIP3   OH278843   4.929   3.814   4.787  0.1314  0.5334  0.4826
19143TIP3    H178844   4.895   3.853   4.706  2.4141 -0.6183 -1.1346
19143TIP3    H278845   4.884   3.730   4.794  0.3896  0.3575  0.0507
19144TIP3   OH278846   4.919   6.349  16.971  0.1241 -0.1007  0.3324
19144TIP3    H178847   4.978   6.282  17.005  0.2283 -0.2508 -0.1322
19144TIP3    H278848   4.954   6.432  17.004 -0.0259 -0.2778  0.9367
19145TIP3   OH278849   3.726   2.305  14.815 -0.2252 -0.7535  0.1665
19145TIP3    H178850   3.643   2.335  14.779 -0.3268 -1.5318 -0.2724
19145TIP3    H278851   3.708   2.293  14.909 -0.2864  0.1437  0.2827
19146TIP3   OH278852   3.024   4.344   3.875 -0.5121  0.1668  0.3406
19146TIP3    H178853   2.955   4.402   3.844 -1.3900 -0.9640  0.1098
19146TIP3    H278854   3.038   4.283   3.802  0.1494 -0.1236  0.7061
19147TIP3   OH278855   5.585   0.308   2.628 -0.0449  0.4218  0.1691
19147TIP3    H178856   5.566   0.399   2.651 -0.3894  0.6220 -0.8510
19147TIP3    H278857   5.511   0.259   2.663  0.5654  0.4022  1.4863
19148TIP3   OH278858   4.471   4.365  10.636  0.2243 -0.4895  0.2294
19148TIP3    H178859   4.485   4.300  10.568  0.7969 -0.2745  0.1366
19148TIP3    H278860   4.378   4.358  10.658  0.2044 -1.0756 -0.0406
19149TIP3   OH278861   3.641   4.479  13.941  0.2360  0.6177 -0.6389
19149TIP3    H178862   3.650   4.569  13.910 -2.2169  0.6711 -1.4108
19149TIP3    H278863   3.702   4.429  13.887  0.3578  1.5511 -1.3902
19150TIP3   OH278864   1.977   0.652  16.236  0.7019 -0.0905  0.2372
19150TIP3    H178865   1.966   0.728  16.293  2.1005  0.3101  0.0316
19150TIP3    H278866   2.056   0.673  16.185 -0.1895 -0.6798 -1.4445
19151TIP3   OH278867   6.595   1.377  15.475  0.4554 -0.2610  0.0108
19151TIP3    H178868   6.633   1.419  15.397  1.2996 -0.2804  0.4018
19151TIP3    H278869   6.634   1.290  15.477  0.9795 -0.0227  0.8296
19152TIP3   OH278870   0.490   3.465  17.118 -0.1541 -0.2608  0.1889
19152TIP3    H178871   0.530   3.493  17.201 -1.2247  0.9644  0.3228
19152TIP3    H278872   0.416   3.411  17.144  0.2992 -0.9993 -0.0198
19153TIP3   OH278873   2.493   5.299   4.603 -0.2558  0.4979 -0.0699
19153TIP3    H178874   2.404   5.265   4.602  0.2135 -0.7848  0.1244
19153TIP3    H278875   2.526   5.279   4.691  0.0156  1.5694  0.0953
19154TIP3   OH278876   1.148   1.314  16.770  0.5233 -0.3108 -0.8725
19154TIP3    H178877   1.165   1.245  16.706  1.7371 -0.2182 -0.6818
19154TIP3    H278878   1.114   1.387  16.718 -0.9624 -1.0904 -1.0512
19155TIP3   OH278879   0.946   2.950   1.821  0.1876 -0.0911  0.4348
19155TIP3    H178880   1.023   2.963   1.877  0.7019  0.9333 -0.4900
19155TIP3    H278881   0.875   2.932   1.883  0.9384  0.0528  1.3645
19156TIP3   OH278882   4.773   4.044   3.758 -0.1926 -0.2192  0.3139
19156TIP3    H178883   4.772   4.096   3.838  1.6233 -0.2603  0.4082
19156TIP3    H278884   4.863   4.011   3.752 -0.3033 -0.2798 -1.7073
19157TIP3   OH278885   5.045   4.923  13.463  0.0222  0.3096 -0.1074
19157TIP3    H178886   5.031   4.957  13.375  1.2801 -3.0267 -1.7770
19157TIP3    H278887   4.957   4.911  13.499 -0.5194  1.3942 -1.0125
19158TIP3   OH278888   3.442   4.047   3.847  0.1765 -0.6056 -0.2069
19158TIP3    H178889   3.429   4.135   3.811  3.2685 -0.0946 -0.3775
19158TIP3    H278890   3.480   3.997   3.775  1.0289 -1.2499  0.6669
19159TIP3   OH278891   4.975   6.110   3.705  0.9360  0.4518 -0.0089
19159TIP3    H178892   4.890   6.068   3.701  1.7244 -1.0955 -1.7994
19159TIP3    H278893   4.978   6.151   3.792 -2.2381  1.9847 -0.4989
19160TIP3   OH278894   1.085   1.534  11.465  0.0891  0.0685 -0.2329
19160TIP3    H178895   1.005   1.584  11.450  0.8474  0.9583 -1.4133
19160TIP3    H278896   1.138   1.589  11.523  0.5682  0.2598 -0.8487
19161TIP3   OH278897   2.994   5.640   4.701  0.1753 -0.3962 -0.1984
19161TIP3    H178898   2.915   5.650   4.754  0.5262 -1.7616  0.6580
19161TIP3    H278899   3.046   5.719   4.718 -0.1762 -0.3564  0.7211
19162TIP3   OH278900   4.601   1.020   1.545  0.4489  0.7313  0.0399
19162TIP3    H178901   4.536   1.028   1.475  1.8486  0.6942 -1.3011
19162TIP3    H278902   4.561   1.066   1.619 -1.7761 -0.6113 -0.2169
19163TIP3   OH278903   6.674   1.617   1.856 -0.2123  0.3922 -0.1451
19163TIP3    H178904   6.700   1.568   1.778  0.2711 -0.4640  0.5359
19163TIP3    H278905   6.607   1.677   1.824 -0.0713  0.0213 -1.2107
19164TIP3   OH278906   4.559   0.659  13.262 -0.1865  0.2780  0.1560
19164TIP3    H178907   4.533   0.751  13.277 -1.3715 -0.3748  2.8013
19164TIP3    H278908   4.627   0.643  13.328  2.0455 -0.0551 -2.0936
19165TIP3   OH278909   1.217   3.048  16.853  0.6186 -0.5629 -0.0805
19165TIP3    H178910   1.230   3.083  16.941  0.8108 -0.1607 -0.2684
19165TIP3    H278911   1.212   3.125  16.796 -0.1393 -0.7884 -0.3418
19166TIP3   OH278912   2.337   3.464  11.834  0.2854  0.1937  0.2594
19166TIP3    H178913   2.349   3.558  11.845  2.0722 -0.0513  0.7752
19166TIP3    H278914   2.383   3.443  11.752  0.4554 -0.3145  0.4784
19167TIP3   OH278915   0.845   1.559   0.181 -0.9329  0.0646 -0.2782
19167TIP3    H178916   0.791   1.488   0.147 -0.8154 -0.2130  0.1047
19167TIP3    H278917   0.814   1.637   0.135 -2.5438  0.1394  0.8151
19168TIP3   OH278918   3.730   6.397   0.983  0.4474  0.1923  0.4052
19168TIP3    H178919   3.704   6.480   0.943 -1.0909 -0.9670 -1.1390
19168TIP3    H278920   3.806   6.419   1.036  0.6246  2.4240 -0.6647
19169TIP3   OH278921   0.059   5.050   2.634 -0.9833  0.1954  0.2989
19169TIP3    H178922   0.104   5.129   2.603  1.9816 -1.6669 -0.6388
19169TIP3    H278923  -0.002   5.028   2.564  0.0876  0.2694 -0.7018
19170TIP3   OH278924   2.917   2.338   4.908  0.1624  0.2995 -0.2257
19170TIP3    H178925   2.875   2.288   4.978  1.3806  0.0933  0.3839
19170TIP3    H278926   2.898   2.430   4.929 -1.6057  0.1797 -1.0434
19171TIP3   OH278927   6.716   0.239  11.335  0.4500 -0.5089  0.1267
19171TIP3    H178928   6.742   0.214  11.424 -0.6263 -2.4863 -0.0662
19171TIP3    H278929   6.669   0.163  11.301 -0.1142  0.6148 -1.7623
19172TIP3   OH278930   2.153   0.444  14.406 -0.6733 -0.4055  0.4783
19172TIP3    H178931   2.217   0.425  14.338  0.5074  0.6159  1.2660
19172TIP3    H278932   2.107   0.521  14.374 -0.8342 -0.5448  0.3703
19173TIP3   OH278933   2.180   1.479  13.920  0.0724  0.1442  0.3369
19173TIP3    H178934   2.193   1.481  14.015 -1.2425 -0.6247  0.5467
19173TIP3    H278935   2.220   1.561  13.889 -1.2306  1.3754  1.7786
19174TIP3   OH278936   2.785   0.380   4.178  0.5329 -0.3036 -0.2337
19174TIP3    H178937   2.778   0.463   4.131 -1.7299  1.0795  2.2599
19174TIP3    H278938   2.879   0.370   4.196  0.8925  1.5460 -0.8689
19175TIP3   OH278939   1.824   3.746  16.884  0.1539  0.0264  0.4080
19175TIP3    H178940   1.897   3.783  16.934 -0.6721  1.2885  0.7361
19175TIP3    H278941   1.806   3.662  16.927  0.3340  0.4738  1.3905
19176TIP3   OH278942   0.587   3.563   0.005  0.1204  0.0240  0.4938
19176TIP3    H178943   0.635   3.643  -0.014 -0.4392  0.5738  1.2891
19176TIP3    H278944   0.577   3.564   0.100 -1.9695  0.2510  0.3116
19177TIP3   OH278945   3.310   1.016  17.140 -0.3032 -0.3833 -0.6320
19177TIP3    H178946   3.383   0.955  17.147 -1.1659 -1.3877 -0.0280
19177TIP3    H278947   3.345   1.100  17.171  0.4313 -0.9817  0.2063
19178TIP3   OH278948   5.725   6.045  14.850 -0.0306 -0.2725  0.4568
19178TIP3    H178949   5.691   6.072  14.764  0.1031 -1.7086 -0.0670
19178TIP3    H278950   5.693   6.113  14.910 -0.7002  0.3954 -0.6160
19179TIP3   OH278951   0.333   6.650   1.212 -0.3675 -0.2745 -0.0872
19179TIP3    H178952   0.311   6.743   1.214  2.2843  0.4569 -0.5726
19179TIP3    H278953   0.427   6.649   1.194  0.2908 -2.9759  2.6721
19180TIP3   OH278954   3.030   4.634  12.066  0.0107  0.3705  0.3072
19180TIP3    H178955   2.987   4.718  12.051 -1.3439 -0.0690  1.5049
19180TIP3    H278956   3.123   4.653  12.058 -0.3405  1.4382 -1.9746
19181TIP3   OH278957   1.713   2.113  11.493 -0.0631 -0.0501  0.3924
19181TIP3    H178958   1.654   2.056  11.445 -0.3228 -0.7902  1.5685
19181TIP3    H278959   1.673   2.124  11.579 -1.1472  3.6300 -0.3825
19182TIP3   OH278960   4.138   5.970  13.358  0.2417  0.4019 -0.3980
19182TIP3    H178961   4.139   6.027  13.435  2.1388 -0.0824  0.0040
19182TIP3    H278962   4.046   5.966  13.332 -0.1734  2.1682  0.6372
19183TIP3   OH278963   0.765   0.970  15.872  0.0857  0.3415  0.4263
19183TIP3    H178964   0.737   0.976  15.780 -0.4438  2.1268  0.6626
19183TIP3    H278965   0.691   1.005  15.922  0.7806  0.3849  1.4551
19184TIP3   OH278966   1.064   2.326  14.427  0.8808 -0.2409 -0.0729
19184TIP3    H178967   1.034   2.412  14.457 -0.6447 -0.9793  0.6251
19184TIP3    H278968   1.054   2.330  14.332  0.2808  0.1656 -0.0004
19185TIP3   OH278969   3.703   5.090  14.072  0.7193 -0.1466 -0.0723
19185TIP3    H178970   3.645   5.164  14.056 -0.0484 -0.5257  0.8393
19185TIP3    H278971   3.679   5.025  14.006 -0.5237 -0.6340  0.8109
19186TIP3   OH278972   6.493   0.746   5.024  0.0488  0.0819 -0.1393
19186TIP3    H178973   6.404   0.716   5.041 -0.4818  0.8716 -1.4189
19186TIP3    H278974   6.501   0.746   4.929  0.3669  2.9459 -0.2057
19187TIP3   OH278975   2.495   1.827  11.024 -0.1778 -0.2688  0.2010
19187TIP3    H178976   2.483   1.867  10.938 -1.4880  0.7822  0.8441
19187TIP3    H278977   2.538   1.894  11.076  0.6242 -0.9040  0.3856
19188TIP3   OH278978   5.357   2.301  13.008 -1.0168 -0.0906  0.1593
19188TIP3    H178979   5.293   2.345  13.065  0.0633  0.8194  0.7098
19188TIP3    H278980   5.304   2.242  12.954 -2.1295 -0.8050  1.9156
19189TIP3   OH278981   3.421   5.554   1.819 -0.1727 -0.4304  0.2291
19189TIP3    H178982   3.464   5.612   1.882 -1.7455 -0.6116  1.5610
19189TIP3    H278983   3.340   5.601   1.796  0.5672 -0.1537 -2.0871
19190TIP3   OH278984   6.200   5.446   3.693 -0.1146 -0.7500  0.3888
19190TIP3    H178985   6.174   5.444   3.785  0.3283  0.7590  0.5671
19190TIP3    H278986   6.146   5.378   3.652 -2.1994  0.2589  1.2952
19191TIP3   OH278987   2.664   2.279  16.897 -0.3559 -0.3217 -0.2178
19191TIP3    H178988   2.699   2.361  16.933 -2.3294  1.1423 -1.4428
19191TIP3    H278989   2.687   2.213  16.962  0.0829  1.4359  1.5253
19192TIP3   OH278990   1.143   4.909  14.143  0.0884  0.0632 -0.6662
19192TIP3    H178991   1.195   4.879  14.217  0.2278 -0.1379 -0.8444
19192TIP3    H278992   1.200   4.969  14.096 -0.6268  1.6472  0.4045
19193TIP3   OH278993   0.921   1.889  11.208  0.2377  0.0458 -0.1068
19193TIP3    H178994   0.960   1.938  11.281 -2.0605 -0.6740  1.7232
19193TIP3    H278995   0.874   1.956  11.157  1.2247  0.4423 -0.5148
19194TIP3   OH278996   2.579   1.893  13.738  0.2884  0.0052  0.3963
19194TIP3    H178997   2.571   1.973  13.687 -1.6466 -0.5613 -0.3100
19194TIP3    H278998   2.544   1.916  13.824  1.0761  0.2679  0.6562
19195TIP3   OH278999   5.270   4.929  13.957  0.2882 -0.0785  0.1052
19195TIP3    H179000   5.194   4.883  13.991  0.4269 -1.6309 -1.5291
19195TIP3    H279001   5.236   4.982  13.884  0.5016  0.6241  0.5046
19196TIP3   OH279002   6.700   5.009   0.130 -0.2188  0.0503 -0.2065
19196TIP3    H179003   6.627   5.054   0.089  0.8384  1.8425 -0.2179
19196TIP3    H279004   6.675   5.000   0.222 -0.6089  0.3024 -0.2890
19197TIP3   OH279005   3.058   0.515   1.317 -0.2224 -0.1434  0.0181
19197TIP3    H179006   3.062   0.421   1.334  0.0113 -0.2960 -0.8323
19197TIP3    H279007   2.980   0.544   1.364  0.4129 -0.5225  1.3400
19198TIP3   OH279008   2.346   2.637   6.573 -0.1801  0.9790  0.8255
19198TIP3    H179009   2.424   2.617   6.523 -0.8595  0.6108 -0.1211
19198TIP3    H279010   2.275   2.591   6.527 -0.7557  0.2071  2.4138
19199TIP3   OH279011   4.728   3.315   1.664  1.0281 -0.2606 -0.6877
19199TIP3    H179012   4.744   3.293   1.756  1.0464 -1.0912 -0.8816
19199TIP3    H279013   4.807   3.285   1.618 -0.0262 -2.2140 -1.3208
19200TIP3   OH279014   5.115   3.166  17.242 -0.0234 -0.3784 -0.0465
19200TIP3    H179015   5.077   3.079  17.245  0.7955 -0.7186  0.7075
19200TIP3    H279016   5.183   3.166  17.309  1.2655  0.2248 -1.2934
19201TIP3   OH279017   1.799   4.554  16.138 -0.1659  0.1259  0.5243
19201TIP3    H179018   1.860   4.512  16.199 -0.4412 -0.7997  0.1801
19201TIP3    H279019   1.855   4.601  16.076  0.2322 -1.0454 -0.0283
19202TIP3   OH279020   1.538   3.520   2.244 -0.2692 -0.1769  1.0444
19202TIP3    H179021   1.604   3.498   2.178 -2.6429 -0.9828 -1.2442
19202TIP3    H279022   1.528   3.615   2.237 -1.2769 -0.3568 -0.6775
19203TIP3   OH279023   6.491   4.494   4.662 -0.5140 -0.3532  0.9038
19203TIP3    H179024   6.532   4.408   4.652  0.2595  0.2274 -1.6092
19203TIP3    H279025   6.397   4.476   4.661 -0.3627 -1.1423  0.1483
19204TIP3   OH279026   2.608   1.832   5.066  0.6293  0.5040 -0.0782
19204TIP3    H179027   2.627   1.805   5.156  0.5002 -0.7513 -0.4110
19204TIP3    H279028   2.648   1.764   5.012 -0.4348  0.5458 -0.9377
19205TIP3   OH279029   1.588   2.333   3.157 -0.3145 -0.5514  0.5643
19205TIP3    H179030   1.638   2.393   3.103 -2.0774 -0.3904 -1.0282
19205TIP3    H279031   1.624   2.342   3.245  0.9303  1.1473 -0.0780
19206TIP3   OH279032   4.180   2.782   6.489 -0.1339  0.3453  0.1613
19206TIP3    H179033   4.265   2.814   6.519 -0.3864 -0.1400  1.4584
19206TIP3    H279034   4.199   2.733   6.409  0.5141  1.9958 -0.7468
19207TIP3   OH279035   6.098   5.826   0.843 -0.0423 -0.5446 -0.4831
19207TIP3    H179036   6.143   5.744   0.865 -0.6179 -0.4531  1.2101
19207TIP3    H279037   6.019   5.824   0.898 -1.1901  0.1328 -2.0440
19208TIP3   OH279038   3.639   4.764   1.872 -0.3303 -0.1274 -0.2065
19208TIP3    H179039   3.646   4.690   1.932 -1.0030 -0.3556 -0.4008
19208TIP3    H279040   3.689   4.835   1.915 -2.4121  0.3536  1.6058
19209TIP3   OH279041   1.316   1.298   4.285 -0.4275  0.2526 -0.0354
19209TIP3    H179042   1.317   1.205   4.260  0.9262 -0.5347  2.5874
19209TIP3    H279043   1.233   1.310   4.331 -0.4973  0.2700 -0.1669
19210TIP3   OH279044   1.657   5.929  15.505 -0.0519 -0.5751  0.8095
19210TIP3    H179045   1.591   5.957  15.441  0.9925 -0.0599 -0.0878
19210TIP3    H279046   1.667   5.835  15.490  0.9550 -0.2915 -0.5967
19211TIP3   OH279047   0.618   3.148  10.398  0.0148 -0.1638 -0.1928
19211TIP3    H179048   0.635   3.221  10.457  1.3214 -0.4901 -0.1346
19211TIP3    H279049   0.524   3.133  10.405 -0.7822  2.9649 -1.8870
19212TIP3   OH279050   4.376   2.613  13.105  0.4181  0.4410 -0.3159
19212TIP3    H179051   4.380   2.708  13.108  0.7758  0.4772 -1.3909
19212TIP3    H279052   4.468   2.586  13.100  0.2702  0.1563 -2.1362
19213TIP3   OH279053   3.110   4.645   0.897  0.0111 -0.0837 -0.4041
19213TIP3    H179054   3.155   4.597   0.967  1.1605  1.3304 -0.1237
19213TIP3    H279055   3.026   4.670   0.934 -0.0419 -0.7202 -0.0915
19214TIP3   OH279056   0.194   5.723   3.167  0.2524  0.3670 -0.0782
19214TIP3    H179057   0.217   5.630   3.169 -0.9403  0.0629  0.8929
19214TIP3    H279058   0.203   5.748   3.075 -2.6913 -1.5906 -1.0368
19215TIP3   OH279059   6.742   3.580   4.460 -0.1607 -0.0204  0.5661
19215TIP3    H179060   6.837   3.567   4.454 -0.2562 -0.3713 -0.3151
19215TIP3    H279061   6.708   3.498   4.495 -0.3313 -0.6490 -1.0099
19216TIP3   OH279062   2.265   0.820   4.669 -0.4802  0.8272  0.3396
19216TIP3    H179063   2.173   0.794   4.671 -0.5929  0.9210 -1.4670
19216TIP3    H279064   2.271   0.881   4.595  0.7890  1.8345  1.2214
19217TIP3   OH279065   2.002   2.116   1.531  0.7776 -0.6063 -0.1430
19217TIP3    H179066   2.048   2.135   1.613  2.6552 -0.4660 -1.1621
19217TIP3    H279067   2.003   2.199   1.483 -2.3878 -0.0253  0.5644
19218TIP3   OH279068   5.056   2.260   0.102  0.1546  0.3855 -0.0227
19218TIP3    H179069   5.072   2.168   0.123 -0.2910  0.0258 -1.2099
19218TIP3    H279070   4.962   2.265   0.084  0.1031  1.1603  0.4030
19219TIP3   OH279071   1.015   4.904  16.143  0.0904  0.3108  0.0166
19219TIP3    H179072   1.086   4.841  16.133  0.4981  0.6144  0.9403
19219TIP3    H279073   0.992   4.929  16.053  0.1733 -0.8697 -0.3413
19220TIP3   OH279074   6.239   4.035  13.403 -0.4082 -0.3796 -0.5406
19220TIP3    H179075   6.148   4.062  13.419 -0.0562  0.3142  0.4423
19220TIP3    H279076   6.277   4.107  13.352 -0.8993 -1.5502 -2.6779
19221TIP3   OH279077   0.647   4.962   0.445 -0.2117 -0.1311  0.2629
19221TIP3    H179078   0.611   4.905   0.377 -0.7002 -0.0496  0.4464
19221TIP3    H279079   0.683   5.037   0.398 -1.2585  0.3132  0.1296
19222TIP3   OH279080   3.935   3.016   0.645  0.1387 -0.4900 -0.0047
19222TIP3    H179081   3.858   2.962   0.665  0.0297  0.0658  1.1920
19222TIP3    H279082   3.901   3.086   0.590 -0.2505 -0.1551  0.6554
19223TIP3   OH279083   0.024   3.063  14.851 -0.1598 -0.4517 -0.2979
19223TIP3    H179084  -0.023   3.129  14.798 -0.3892 -0.8560 -0.6012
19223TIP3    H279085   0.047   3.110  14.931 -0.0509  0.0958 -0.6369
19224TIP3   OH279086   0.446   1.135   4.003  0.3120 -0.4619  0.3113
19224TIP3    H179087   0.395   1.201   3.956  0.0681  0.4706  1.8182
19224TIP3    H279088   0.472   1.073   3.935 -3.0677 -1.1721 -0.5035
19225TIP3   OH279089   1.002   1.260   1.298 -0.4814  0.4370  0.1435
19225TIP3    H179090   0.913   1.228   1.287 -0.4924  0.6558 -0.4686
19225TIP3    H279091   1.055   1.181   1.308 -0.8629  0.3383  1.5732
19226TIP3   OH279092   5.096   6.618   4.892 -0.0629  0.5451  0.3081
19226TIP3    H179093   5.162   6.686   4.880 -0.1025  0.6177  0.4891
19226TIP3    H279094   5.137   6.538   4.861  0.5127  0.3829  1.4366
19227TIP3   OH279095   2.152   2.858   3.811  0.1721 -0.2071  0.3699
19227TIP3    H179096   2.146   2.876   3.717  1.1277 -3.3006 -0.4011
19227TIP3    H279097   2.061   2.854   3.840 -0.1404  0.4675 -0.4631
19228TIP3   OH279098   4.189   4.133   2.125  0.0911 -0.4196 -0.3580
19228TIP3    H179099   4.216   4.120   2.216 -1.2748 -2.9244 -0.2150
19228TIP3    H279100   4.167   4.226   2.119  2.5051  0.3412  1.1672
19229TIP3   OH279101   4.351   6.052  13.073  0.6550 -0.1106 -0.1548
19229TIP3    H179102   4.379   5.961  13.065 -0.3286 -0.3925 -0.6535
19229TIP3    H279103   4.408   6.100  13.013  1.6152 -0.2837  0.5979
19230TIP3   OH279104   0.322   6.380  11.408  0.1708 -0.0848 -0.7080
19230TIP3    H179105   0.272   6.318  11.355  1.2939 -2.7136  1.1010
19230TIP3    H279106   0.258   6.416  11.469 -0.5507  0.7747 -1.9452
19231TIP3   OH279107   5.027   3.389  13.825 -0.3758  0.8773 -0.0463
19231TIP3    H179108   5.111   3.404  13.867  0.2602  0.4534 -1.1463
19231TIP3    H279109   5.020   3.293  13.819 -0.2199  0.9337 -1.3431
19232TIP3   OH279110   0.949   5.903  13.858  0.1659  0.4579 -0.2312
19232TIP3    H179111   1.038   5.874  13.841  0.5053  1.2381  0.1476
19232TIP3    H279112   0.955   5.957  13.937 -1.0234 -1.3455  1.1791
19233TIP3   OH279113   4.297   1.626   5.450  0.4070  0.0788  0.1138
19233TIP3    H179114   4.255   1.690   5.392 -0.7038  0.5199  1.3463
19233TIP3    H279115   4.378   1.602   5.405 -0.3493  0.4900 -1.5463
19234TIP3   OH279116   2.054   5.149  16.141  0.3344  0.2349  1.0090
19234TIP3    H179117   1.990   5.165  16.072  0.0500  0.0226  1.2210
19234TIP3    H279118   2.135   5.128  16.094  0.0794 -0.1598  0.7334
19235TIP3   OH279119   6.189   1.674   3.258 -0.5488  0.2349  0.1379
19235TIP3    H179120   6.253   1.605   3.239 -0.0956  0.3742  1.1135
19235TIP3    H279121   6.117   1.628   3.302 -0.3324  0.3477  0.6148
19236TIP3   OH279122   3.521   0.506  15.258  0.6801 -0.0501  0.2520
19236TIP3    H179123   3.543   0.586  15.306  0.3106 -0.3073  0.8584
19236TIP3    H279124   3.551   0.523  15.169 -0.6056  1.3007  0.0268
19237TIP3   OH279125   5.794   3.119   0.144  0.1149  0.2868 -0.1109
19237TIP3    H179126   5.719   3.172   0.173  1.1008  1.6855 -0.0359
19237TIP3    H279127   5.809   3.057   0.215  1.1925  2.3072  1.5227
19238TIP3   OH279128   5.533   5.694  10.917 -0.2615 -0.0082 -0.3087
19238TIP3    H179129   5.513   5.674  10.825  0.7677 -1.3517 -0.2725
19238TIP3    H279130   5.627   5.715  10.917 -0.2431 -0.0605  0.4267
19239TIP3   OH279131   0.375   3.383  15.865  0.6080 -0.9373 -0.2743
19239TIP3    H179132   0.391   3.322  15.936 -0.4734  0.3419  1.1364
19239TIP3    H279133   0.285   3.365  15.838  0.0304  0.4343  0.6305
19240TIP3   OH279134   4.219   6.344   1.112 -0.5972 -0.0379 -0.5051
19240TIP3    H179135   4.243   6.435   1.092 -0.9341  0.2997  0.5867
19240TIP3    H279136   4.263   6.326   1.195 -1.4657 -0.4884 -0.1322
19241TIP3   OH279137   5.412   5.720  11.524  0.0070 -0.2662  0.2532
19241TIP3    H179138   5.317   5.716  11.539 -0.4391 -1.6081 -2.3167
19241TIP3    H279139   5.424   5.682  11.437  3.2178 -2.6438  1.5568
19242TIP3   OH279140   1.962   5.157  11.584 -0.0660 -0.1212 -0.3133
19242TIP3    H179141   1.982   5.188  11.672  2.4311 -2.3418  0.0635
19242TIP3    H279142   1.873   5.122  11.590 -0.4949  1.0873  0.8858
19243TIP3   OH279143   3.479   6.406   4.826 -0.6132  0.2241  0.1092
19243TIP3    H179144   3.393   6.393   4.865 -0.6781 -0.3805 -0.2132
19243TIP3    H279145   3.464   6.467   4.754 -0.4068  1.7235  1.2953
19244TIP3   OH279146   4.983   1.821   2.257  0.0209 -0.4241 -0.5908
19244TIP3    H179147   4.987   1.725   2.254 -0.8862 -0.4796 -0.3413
19244TIP3    H279148   5.034   1.844   2.335 -1.0667 -0.8130  0.2529
19245TIP3   OH279149   4.697   2.913   0.987  0.4452 -0.5632 -0.2907
19245TIP3    H179150   4.787   2.932   0.960 -0.0162  0.4270 -1.1889
19245TIP3    H279151   4.663   2.856   0.918  0.3112 -0.7695 -0.0563
19246TIP3   OH279152   1.575   1.965   1.556  0.1796 -0.0787 -0.4109
19246TIP3    H179153   1.607   1.958   1.466  1.4764 -1.1011  0.0955
19246TIP3    H279154   1.595   2.055   1.581  3.7298 -0.8584  0.1853
19247TIP3   OH279155   3.412   2.107  12.570 -0.0940  0.1576 -0.1741
19247TIP3    H179156   3.432   2.015  12.552  0.1671  0.4747 -1.6296
19247TIP3    H279157   3.325   2.120  12.534 -0.4106  0.3241  0.6320
19248TIP3   OH279158   5.096   6.651  12.875  0.2519 -0.0271 -0.2874
19248TIP3    H179159   5.078   6.587  12.944 -0.2422 -1.1258 -1.4121
19248TIP3    H279160   5.161   6.608  12.819  0.2788  0.6629 -0.7913
19249TIP3   OH279161   2.338   3.371  12.517 -0.2539  0.6209 -0.1652
19249TIP3    H179162   2.244   3.378  12.503 -0.4411  1.4583  1.2470
19249TIP3    H279163   2.368   3.462  12.523  0.3374  0.3787  1.0473
19250TIP3   OH279164   4.120   0.487   3.849 -0.0645  0.5698  0.1352
19250TIP3    H179165   4.042   0.533   3.879 -1.2888 -0.8839 -0.7268
19250TIP3    H279166   4.136   0.519   3.761 -2.2650 -2.1144 -1.3893
19251TIP3   OH279167   4.807   5.329  11.437 -0.4582  0.1202 -0.3264
19251TIP3    H179168   4.860   5.376  11.502  1.1561 -1.6411 -0.2721
19251TIP3    H279169   4.869   5.270  11.394 -2.2008 -1.3405 -0.9707
19252TIP3   OH279170   1.556   5.624  12.613 -0.3547  0.1110  0.2000
19252TIP3    H179171   1.527   5.648  12.525  0.5218  2.0962  0.4006
19252TIP3    H279172   1.475   5.609  12.662 -0.8649 -0.1808 -0.7084
19253TIP3   OH279173   4.407   5.611  13.970 -0.0943 -0.2302 -0.2574
19253TIP3    H179174   4.396   5.706  13.966  0.3293 -0.1868 -0.3673
19253TIP3    H279175   4.359   5.577  13.894  1.8543  0.0770 -1.6848
19254TIP3   OH279176   6.727   2.701   5.187  0.5023  0.3294  0.2141
19254TIP3    H179177   6.669   2.748   5.248  0.0059 -0.9842  0.7805
19254TIP3    H279178   6.690   2.721   5.101 -1.8219 -1.7066  0.6234
19255TIP3   OH279179   0.867   5.397   5.952  0.3540  0.1055 -0.1852
19255TIP3    H179180   0.802   5.438   6.009  0.2263 -0.3241 -0.0162
19255TIP3    H279181   0.947   5.448   5.965  0.2678  0.1380  0.2139
19256TIP3   OH279182   1.918   1.304   1.240  0.3905 -0.0629  0.0116
19256TIP3    H179183   2.012   1.316   1.255  0.3704  0.1221 -0.0069
19256TIP3    H279184   1.876   1.338   1.318  0.4039 -1.6845  0.7744
19257TIP3   OH279185   2.007   1.091   3.362  0.1388 -0.1453  0.4132
19257TIP3    H179186   2.093   1.132   3.354 -0.3424  0.5974 -1.5716
19257TIP3    H279187   2.021   1.015   3.418  2.1568 -0.2798 -0.2172
19258TIP3   OH279188   2.788   6.314   0.736 -0.0562 -0.5444 -0.0594
19258TIP3    H179189   2.792   6.290   0.828 -1.2819 -1.6736 -0.2740
19258TIP3    H279190   2.714   6.375   0.730  0.9212  0.6763 -0.0811
19259TIP3   OH279191   4.471   1.019  14.509  0.4539 -0.3411 -0.2506
19259TIP3    H179192   4.482   0.924  14.505  2.5207 -0.1372 -0.6637
19259TIP3    H279193   4.500   1.050  14.423 -2.5320  0.5412 -1.0633
19260TIP3   OH279194   0.022   0.635  15.929 -0.7840 -0.0240 -0.8439
19260TIP3    H179195  -0.052   0.574  15.921  0.3846 -1.8240  0.9725
19260TIP3    H279196   0.099   0.582  15.908  0.3825  0.4356  1.8020
19261TIP3   OH279197   0.706   3.350   1.403  0.1141  0.1562 -0.3416
19261TIP3    H179198   0.683   3.443   1.404 -0.2938  0.0550  0.0836
19261TIP3    H279199   0.695   3.322   1.494  0.8213 -0.1686 -0.3491
19262TIP3   OH279200   5.126   1.976  16.131 -0.1054 -0.1440  0.1918
19262TIP3    H179201   5.036   2.005  16.146 -0.3961 -0.9735  0.1049
19262TIP3    H279202   5.129   1.888  16.168  1.4517  0.8640  2.7151
19263TIP3   OH279203   6.067   5.473  16.900  0.1232  0.1542 -0.4461
19263TIP3    H179204   6.075   5.420  16.979 -0.6728  1.5899  0.6550
19263TIP3    H279205   6.141   5.447  16.846  0.8332 -0.7013  0.8704
19264TIP3   OH279206   0.002   1.195  17.283  0.1988  0.6218 -0.6463
19264TIP3    H179207   0.069   1.169  17.220  0.6452  0.4005 -0.0847
19264TIP3    H279208  -0.044   1.267  17.240  1.2274  1.2248 -0.7669
19265TIP3   OH279209   2.883   3.568   5.448 -0.2407 -0.2104  0.0134
19265TIP3    H179210   2.891   3.662   5.461  0.2908 -0.5261  2.3551
19265TIP3    H279211   2.973   3.537   5.440 -0.4363 -0.4167 -2.2424
19266TIP3   OH279212   2.887   1.036   2.884  0.6677  0.5229 -0.5435
19266TIP3    H179213   2.816   0.989   2.841  1.2136 -0.1590 -0.7212
19266TIP3    H279214   2.911   1.105   2.822  0.3754  0.5564 -0.6205
19267TIP3   OH279215   2.046   1.660  14.748 -0.6485 -0.7550 -0.1934
19267TIP3    H179216   2.135   1.652  14.782 -1.0988 -0.7818  1.0251
19267TIP3    H279217   2.004   1.577  14.769 -0.4195 -1.5062 -2.5041
19268TIP3   OH279218   5.916   1.228   4.456 -0.4340  0.2179 -0.0837
19268TIP3    H179219   5.829   1.211   4.418 -0.3825  1.6984 -0.9478
19268TIP3    H279220   5.906   1.312   4.501  0.6137  0.5287 -0.4102
19269TIP3   OH279221   6.441   5.459   0.276  0.2673  0.0892 -0.7489
19269TIP3    H179222   6.467   5.535   0.224 -0.6763  0.7591 -0.2461
19269TIP3    H279223   6.401   5.495   0.355 -2.3599 -0.8616 -1.5428
19270TIP3   OH279224   1.217   6.182   5.024 -0.4014 -0.0395 -0.2487
19270TIP3    H179225   1.125   6.204   5.037 -0.7447 -2.2704  1.6390
19270TIP3    H279226   1.218   6.133   4.941 -0.6040  1.4092 -1.1391
19271TIP3   OH279227   6.011   3.786  11.157 -0.1942 -0.5833 -0.3768
19271TIP3    H179228   6.054   3.838  11.089  0.4482  1.1646  1.2731
19271TIP3    H279229   6.057   3.809  11.238 -3.5818  0.7411  1.4012
19272TIP3   OH279230   2.322   5.805  14.856 -0.1906 -0.5642 -0.0627
19272TIP3    H179231   2.303   5.812  14.763  1.7183  0.0702 -0.4522
19272TIP3    H279232   2.392   5.739  14.861  0.9357  0.6306  0.6933
19273TIP3   OH279233   5.962   1.451  11.086 -0.3238  0.2309 -0.7154
19273TIP3    H179234   5.890   1.399  11.122 -0.0685  0.4606  0.1510
19273TIP3    H279235   5.938   1.465  10.995 -0.3072 -1.5780 -1.0396
19274TIP3   OH279236   5.734   6.261   5.241  0.5289  0.6826 -0.5448
19274TIP3    H179237   5.743   6.212   5.323 -0.3942 -1.0876 -1.4696
19274TIP3    H279238   5.821   6.258   5.202  0.6300  0.3224 -0.3028
19275TIP3   OH279239   1.629   0.409   5.705  0.1952  0.7200  0.2000
19275TIP3    H179240   1.705   0.468   5.710  0.0596  0.8635  0.5375
19275TIP3    H279241   1.630   0.362   5.788 -0.4099  1.1141  0.4327
19276TIP3   OH279242   5.666   5.384  14.005  0.2058 -0.5358 -0.0382
19276TIP3    H179243   5.644   5.463  13.955  0.7266 -0.4008 -0.0615
19276TIP3    H279244   5.585   5.361  14.051 -0.1946 -0.4809 -0.6978
19277TIP3   OH279245   6.406   2.938  14.184 -0.6251  0.3046 -0.1546
19277TIP3    H179246   6.343   2.916  14.115  0.7930 -2.9701 -0.5859
19277TIP3    H279247   6.359   2.920  14.266 -1.1077  0.6436 -0.3455
19278TIP3   OH279248   6.570   5.077   5.907 -0.4917  1.0183  0.6007
19278TIP3    H179249   6.589   5.005   5.967 -1.5561 -1.2325 -1.6152
19278TIP3    H279250   6.655   5.101   5.871 -0.3341 -0.5913 -0.1689
19279TIP3   OH279251   1.030   5.873  12.925 -0.1849  0.0865  0.7222
19279TIP3    H179252   0.976   5.849  13.000  0.3439 -0.0825  1.0531
19279TIP3    H279253   1.053   5.790  12.883 -0.6287  0.1889  0.2592
19280TIP3   OH279254   3.715   3.962   3.816 -0.2677 -0.3629 -0.0538
19280TIP3    H179255   3.796   3.952   3.766 -0.4845  0.0703 -0.4954
19280TIP3    H279256   3.709   4.056   3.834 -0.3146 -0.4832  0.5810
19281TIP3   OH279257   0.605   1.426   3.824 -0.4251  0.0366 -0.4862
19281TIP3    H179258   0.584   1.477   3.902 -0.7532  0.5182 -0.8789
19281TIP3    H279259   0.557   1.470   3.753 -0.4088 -0.5946 -0.8991
19282TIP3   OH279260   1.473   1.777   2.889 -0.2886  0.3780  0.5102
19282TIP3    H179261   1.413   1.767   2.964 -1.4384 -1.6354 -0.5654
19282TIP3    H279262   1.524   1.696   2.889  3.4279  2.4648  2.0497
19283TIP3   OH279263   5.333   4.334   4.721 -0.0796 -0.8578 -0.2655
19283TIP3    H179264   5.368   4.255   4.681 -0.7143 -0.7089 -1.1512
19283TIP3    H279265   5.278   4.302   4.793  1.4057 -1.1061  0.7989
19284TIP3   OH279266   0.251   0.454   3.339  0.0712  0.8738 -0.6418
19284TIP3    H179267   0.247   0.429   3.431 -2.6342 -0.7578 -1.0978
19284TIP3    H279268   0.266   0.549   3.341  3.0395  0.5216  1.3133
19285TIP3   OH279269   0.200   1.665   3.985 -0.0763  0.5080 -1.0905
19285TIP3    H179270   0.139   1.722   4.031 -1.2896  1.5426 -3.7343
19285TIP3    H279271   0.273   1.722   3.962  1.0175 -0.2505  0.3789
19286TIP3   OH279272   3.791   4.880  16.344 -0.0737  0.2636 -0.3055
19286TIP3    H179273   3.749   4.843  16.266  1.2314 -1.2065 -0.3735
19286TIP3    H279274   3.775   4.974  16.338 -1.0969  0.0317 -1.6724
19287TIP3   OH279275   2.538   0.278  13.470 -0.0569 -0.1632  0.1451
19287TIP3    H179276   2.503   0.236  13.392  0.0803 -0.4776  0.2514
19287TIP3    H279277   2.550   0.206  13.532 -2.0089  0.2993  1.1570
19288TIP3   OH279278   1.142   4.001  16.899 -0.3019 -0.2849  0.0402
19288TIP3    H179279   1.224   3.997  16.949  0.6580  0.5347 -1.4139
19288TIP3    H279280   1.165   3.972  16.811 -2.3916 -3.7322  0.4414
19289TIP3   OH279281   3.880   4.147  16.008  0.5212 -0.3007 -0.0440
19289TIP3    H179282   3.883   4.099  15.925 -0.7307  0.1889 -0.3933
19289TIP3    H279283   3.970   4.177  16.021  0.2674  1.9710 -2.6593
19290TIP3   OH279284   4.412   0.119   6.768  0.0533 -0.0037  0.1702
19290TIP3    H179285   4.460   0.048   6.811  0.3009 -2.0155 -3.1593
19290TIP3    H279286   4.336   0.133   6.824 -1.8271 -5.2690 -0.5254
19291TIP3   OH279287   2.714   4.516   2.342 -0.4729 -0.0969  0.3410
19291TIP3    H179288   2.703   4.604   2.378 -1.1632  0.5530 -1.3697
19291TIP3    H279289   2.629   4.494   2.305  0.7785  0.3743 -3.1291
19292TIP3   OH279290   3.839   5.007   2.749 -0.5138 -0.4540 -0.1614
19292TIP3    H179291   3.932   5.011   2.730 -0.7038 -1.2561 -1.3910
19292TIP3    H279292   3.832   5.031   2.842  0.6935  1.4820 -0.5304
19293TIP3   OH279293   6.494   4.570  13.455 -0.1900 -0.2630  0.6020
19293TIP3    H179294   6.414   4.532  13.419 -0.2484 -0.0676  0.5278
19293TIP3    H279295   6.512   4.517  13.533 -1.3333  0.7649  1.5950
19294TIP3   OH279296   3.011   2.465   3.206 -0.2577  0.3483  0.7689
19294TIP3    H179297   3.041   2.548   3.242 -3.3905  2.2499 -0.5989
19294TIP3    H279298   2.927   2.449   3.248  0.1326 -2.0479  0.7830
19295TIP3   OH279299   4.202   4.872   1.910  0.3273  0.4958  0.2524
19295TIP3    H179300   4.158   4.955   1.892 -0.1923  0.3638  0.8714
19295TIP3    H279301   4.214   4.872   2.005 -0.6134 -0.5803  0.3978
19296TIP3   OH279302   5.895   3.084  14.191  0.3723  0.1982  0.2963
19296TIP3    H179303   5.929   3.068  14.103  0.3130  0.5229  0.2130
19296TIP3    H279304   5.971   3.078  14.249  0.0794 -2.4692  0.5524
19297TIP3   OH279305   5.424   3.295  13.893  0.7685 -0.1136  0.6197
19297TIP3    H179306   5.341   3.343  13.904  0.2241 -1.0329  0.6086
19297TIP3    H279307   5.450   3.314  13.803  0.0553 -0.5932  0.3018
19298TIP3   OH279308   3.488   2.166   2.822 -0.4709  0.3549 -0.3265
19298TIP3    H179309   3.514   2.226   2.753  0.9344  0.1202 -0.0244
19298TIP3    H279310   3.453   2.222   2.891  3.1822  1.1868  1.0585
19299TIP3   OH279311   0.196   3.565   1.781 -0.1609 -0.1442  0.0461
19299TIP3    H179312   0.283   3.584   1.748 -0.8760 -0.9130 -2.5567
19299TIP3    H279313   0.139   3.627   1.736 -0.9894  0.2995  1.6484
19300TIP3   OH279314   1.046   4.479  14.375 -0.2248  0.0230  0.0054
19300TIP3    H179315   1.038   4.384  14.382 -2.0178  0.1597  0.4229
19300TIP3    H279316   1.103   4.504  14.448 -1.3932 -0.5719  1.1658
19301TIP3   OH279317   5.019   1.793   5.183 -0.0603  0.0255  0.0636
19301TIP3    H179318   4.978   1.853   5.245 -1.8962 -1.6572  0.5842
19301TIP3    H279319   5.100   1.766   5.226 -0.5404  0.0843  1.0323
19302TIP3   OH279320   5.752   4.151  12.856 -0.2695 -0.1502  1.0171
19302TIP3    H179321   5.681   4.087  12.849 -0.6739  0.3814  0.0958
19302TIP3    H279322   5.719   4.229  12.810  1.7322 -0.6662 -1.5639
19303TIP3   OH279323   1.268   2.434  12.913  0.1420 -0.4364 -0.2258
19303TIP3    H179324   1.256   2.348  12.954  1.9351 -0.0864  1.1509
19303TIP3    H279325   1.304   2.488  12.983 -1.3959  1.6022 -0.9228
19304TIP3   OH279326   0.891   0.388  16.035  0.1706  0.7821 -0.1031
19304TIP3    H179327   0.984   0.365  16.045  0.1159  0.9639  0.8871
19304TIP3    H279328   0.886   0.480  16.059 -0.1301  1.0232 -1.0401
19305TIP3   OH279329   4.539   1.491  15.800  0.1795 -0.8023 -0.7786
19305TIP3    H179330   4.458   1.448  15.773 -1.8807  2.2035  0.0664
19305TIP3    H279331   4.531   1.500  15.895  2.0044 -1.2858 -0.5430
19306TIP3   OH279332   6.355   3.268   2.667 -0.1033 -0.1270 -0.7812
19306TIP3    H179333   6.328   3.281   2.576  0.3037 -1.7111 -1.1565
19306TIP3    H279334   6.449   3.249   2.661  0.1701  0.8765  0.0879
19307TIP3   OH279335   5.934   5.052   0.098  0.1029 -0.3714 -0.4028
19307TIP3    H179336   5.898   5.042   0.187 -0.1568  1.9685 -0.1885
19307TIP3    H279337   5.867   5.100   0.051  0.9778 -0.0961 -1.3886
19308TIP3   OH279338   0.369   3.020   1.363 -0.0879  0.2152 -0.5739
19308TIP3    H179339   0.446   3.025   1.420  0.0295  0.2615 -0.7360
19308TIP3    H279340   0.398   3.059   1.280  0.0451 -0.7758 -1.0015
19309TIP3   OH279341   6.402   3.794   5.476 -1.1098  0.0695  0.8351
19309TIP3    H179342   6.452   3.793   5.558  1.8715 -0.5206 -0.8673
19309TIP3    H279343   6.436   3.720   5.426 -2.5837  0.6233 -1.1094
19310TIP3   OH279344   2.220   4.375  16.918 -0.6800 -0.3763  0.3759
19310TIP3    H179345   2.296   4.330  16.954  0.0619 -0.1020 -0.7923
19310TIP3    H279346   2.253   4.461  16.893 -1.8958  0.5911  1.8609
19311TIP3   OH279347   5.053   1.060   0.176  0.1082  0.1878 -0.0197
19311TIP3    H179348   5.105   0.980   0.189  0.2242  0.2556 -0.0731
19311TIP3    H279349   5.040   1.094   0.265  0.7439  0.5484 -0.0606
19312TIP3   OH279350   0.250   4.012   4.104  0.0885  1.0921  0.0778
19312TIP3    H179351   0.203   4.022   4.187  0.0980 -0.2670  0.2704
19312TIP3    H279352   0.217   3.930   4.067  2.4164 -0.0558  0.3452
19313TIP3   OH279353   0.756   4.733   6.075 -0.3961  0.0396 -0.0847
19313TIP3    H179354   0.762   4.649   6.029  0.5459  0.2921 -0.4507
19313TIP3    H279355   0.772   4.711   6.167 -0.5533 -0.2330 -0.1214
19314TIP3   OH279356   0.659   2.134   6.332 -0.3498  0.0749 -0.3716
19314TIP3    H179357   0.724   2.201   6.312  0.1038 -0.2530 -0.0137
19314TIP3    H279358   0.637   2.095   6.248 -3.2216  2.9749 -1.1998
19315TIP3   OH279359   5.982   0.654   5.210 -0.1503  0.0907 -0.4552
19315TIP3    H179360   5.905   0.609   5.244 -1.2211  1.2470 -1.2625
19315TIP3    H279361   5.983   0.738   5.256  1.3071 -0.3359  0.3719
19316TIP3   OH279362   4.150   0.676   4.799 -0.0974 -0.1122 -0.0990
19316TIP3    H179363   4.135   0.743   4.866  2.5388 -0.0029  0.4925
19316TIP3    H279364   4.166   0.726   4.718  0.0025 -0.1163 -0.0810
19317TIP3   OH279365   2.798   5.338   1.451 -0.4445 -0.1172  0.0512
19317TIP3    H179366   2.743   5.272   1.410 -0.1978 -1.4385  1.7393
19317TIP3    H279367   2.736   5.399   1.492 -0.6780 -0.6075  0.4363
19318TIP3   OH279368   5.063   1.040   0.458  0.3018 -0.4748 -0.0009
19318TIP3    H179369   5.131   0.973   0.468  1.1416  0.2179 -0.8641
19318TIP3    H279370   5.083   1.104   0.526  0.5392 -0.2463 -0.2868
19319TIP3   OH279371   4.243   6.228   3.131  0.0115  0.0732  0.5919
19319TIP3    H179372   4.232   6.201   3.222 -1.7069 -3.2944 -0.4523
19319TIP3    H279373   4.304   6.165   3.094  0.2818  1.0723 -0.7600
19320TIP3   OH279374   1.072   1.214  11.688  0.2605 -0.6101  0.0473
19320TIP3    H179375   1.008   1.275  11.726 -0.1642 -1.9987  1.7221
19320TIP3    H279376   1.157   1.249  11.714  0.1235  0.3357 -0.7395
19321TIP3   OH279377   1.467   4.448  17.290 -0.1863 -0.6023 -0.0961
19321TIP3    H179378   1.527   4.433  17.217 -0.0935  0.7391 -0.3243
19321TIP3    H279379   1.393   4.390  17.273  0.2729 -1.0108 -0.7302
19322TIP3   OH279380   6.568   4.162  16.129  0.5919 -0.2001  0.5253
19322TIP3    H179381   6.557   4.084  16.074  0.2573 -0.9413  1.6089
19322TIP3    H279382   6.486   4.211  16.118 -0.3667 -1.3975  1.9332
19323TIP3   OH279383   4.585   1.301   2.233 -0.0038 -0.0350  0.5539
19323TIP3    H179384   4.493   1.327   2.225 -0.0643 -0.5351 -0.4467
19323TIP3    H279385   4.582   1.206   2.247  0.3517  0.0088  0.9628
19324TIP3   OH279386   1.418   5.441   3.311  0.2811 -0.4082  0.2468
19324TIP3    H179387   1.491   5.489   3.351 -1.3321  2.0162  0.5306
19324TIP3    H279388   1.360   5.420   3.385 -0.5901  0.1347 -0.2610
19325TIP3   OH279389   2.838   3.201  16.714 -0.1226  0.0040 -0.3204
19325TIP3    H179390   2.824   3.178  16.806 -0.7907 -0.7486 -0.5916
19325TIP3    H279391   2.915   3.258  16.715 -0.7621  0.8892  0.8184
19326TIP3   OH279392   0.855   2.269   2.653  0.7245 -0.0067 -0.1009
19326TIP3    H179393   0.777   2.231   2.613 -0.1461  3.1918 -1.8344
19326TIP3    H279394   0.925   2.255   2.590  1.3459 -1.7594  0.8947
19327TIP3   OH279395   2.485   0.775   2.392  0.0511 -0.3792  0.2749
19327TIP3    H179396   2.431   0.840   2.347  0.0237  0.4444  1.4545
19327TIP3    H279397   2.543   0.741   2.323 -0.6282  0.1489 -0.5814
19328TIP3   OH279398   2.163   6.460   5.986  0.2845 -0.5113  0.0892
19328TIP3    H179399   2.159   6.431   5.895 -0.0226 -0.1018 -0.0279
19328TIP3    H279400   2.076   6.440   6.021 -0.0880  0.6815 -0.1208
19329TIP3   OH279401   6.265   0.246   2.625  0.4062 -0.6743 -0.5227
19329TIP3    H179402   6.271   0.158   2.663 -0.5220 -0.8704 -0.8142
19329TIP3    H279403   6.171   0.266   2.623  0.5946  0.2610 -0.6075
19330TIP3   OH279404   0.236   4.028  16.126  0.2057  0.3729 -0.4666
19330TIP3    H179405   0.185   4.104  16.153  0.0057 -0.2058  0.8776
19330TIP3    H279406   0.324   4.062  16.110 -0.3612  1.2309 -1.9795
19331TIP3   OH279407   5.041   4.454  12.374  0.2965  0.5710 -0.2176
19331TIP3    H179408   5.089   4.375  12.350  0.2212 -0.6810  3.2013
19331TIP3    H279409   4.949   4.429  12.364  0.2833  0.5402 -0.0170
19332TIP3   OH279410   6.587   0.105   1.487  0.1227  0.0215 -0.2424
19332TIP3    H179411   6.542   0.064   1.414  1.4220 -2.6240  0.3195
19332TIP3    H279412   6.672   0.132   1.451 -0.5926  2.0100 -0.5233
19333TIP3   OH279413   4.928   3.593  12.279  0.5592 -0.5755  0.2719
19333TIP3    H179414   4.947   3.589  12.373  1.5319 -0.2728  0.0949
19333TIP3    H279415   5.008   3.562  12.237  0.5309  0.3416 -0.4873
19334TIP3   OH279416   2.827   0.921   3.791  0.3243 -0.1185  0.0213
19334TIP3    H179417   2.853   0.970   3.869  2.3280 -1.3098  0.1861
19334TIP3    H279418   2.826   0.829   3.819 -0.5748 -0.4348 -0.9613
19335TIP3   OH279419   6.037   2.591  12.779  0.1461  0.1660 -0.1559
19335TIP3    H179420   5.979   2.617  12.708 -1.2843  0.2297  0.9814
19335TIP3    H279421   5.978   2.556  12.846  1.4006  0.4180  1.1316
19336TIP3   OH279422   1.856   6.305  13.117 -0.1125  0.7575 -0.6572
19336TIP3    H179423   1.847   6.344  13.030 -0.2199  0.1568 -0.9140
19336TIP3    H279424   1.929   6.244  13.109  0.8377  1.7460  0.0503
19337TIP3   OH279425   0.687   2.682   0.171 -0.3035  0.0073  0.0523
19337TIP3    H179426   0.602   2.663   0.210 -0.3378  1.3212  0.6907
19337TIP3    H279427   0.705   2.773   0.196  0.9665 -0.0175 -0.6642
19338TIP3   OH279428   0.398   5.696   0.780  0.4001 -0.0863  0.7498
19338TIP3    H179429   0.384   5.714   0.687  2.1202 -1.5618  0.1529
19338TIP3    H279430   0.364   5.774   0.824 -0.0940  0.8296 -1.1220
19339TIP3   OH279431   3.448   3.791   2.075  0.2189  0.5062  0.3742
19339TIP3    H179432   3.521   3.854   2.076  0.7686 -0.1136 -0.1113
19339TIP3    H279433   3.446   3.757   1.986 -0.1956 -0.0337  0.5810
19340TIP3   OH279434   1.814   5.837  12.445 -0.0348  0.4939  0.2587
19340TIP3    H179435   1.726   5.865  12.419  0.2474 -1.0770 -2.8163
19340TIP3    H279436   1.873   5.894  12.396  0.6208  0.1163  0.5930
19341TIP3   OH279437   4.236   0.130  12.663  0.0689  0.3633 -0.3703
19341TIP3    H179438   4.227   0.156  12.755 -0.5736  0.4936 -0.4706
19341TIP3    H279439   4.161   0.170  12.619 -0.5632 -1.0907 -0.6467
19342TIP3   OH279440   5.884   5.507  11.371  0.1904  0.4118 -0.6736
19342TIP3    H179441   5.815   5.452  11.408  0.7264  0.5499  0.5923
19342TIP3    H279442   5.838   5.581  11.331 -0.3976  1.2676  1.4196
19343TIP3   OH279443   0.110   3.148  16.291  0.2055 -0.2767  0.1586
19343TIP3    H179444   0.032   3.200  16.315 -0.5368 -1.3877  0.2146
19343TIP3    H279445   0.173   3.214  16.261 -0.4104  0.7387  0.9990
19344TIP3   OH279446   2.552   5.839   0.263 -0.1323 -0.1443  0.4348
19344TIP3    H179447   2.561   5.748   0.292  0.9948  0.4564  2.1827
19344TIP3    H279448   2.638   5.877   0.278 -0.2186  0.9244 -1.4831
19345TIP3   OH279449   3.842   6.052   4.562 -0.0603 -0.3738 -0.2598
19345TIP3    H179450   3.784   6.105   4.507 -0.5531 -2.2916 -1.6941
19345TIP3    H279451   3.914   6.111   4.586 -0.9907  1.1481 -1.1009
19346TIP3   OH279452   6.107   5.125   4.505 -0.1876 -0.4090 -0.1910
19346TIP3    H179453   6.090   5.057   4.439 -1.3869 -0.5088  0.1996
19346TIP3    H279454   6.168   5.084   4.566  1.2935 -0.1692 -1.4488
19347TIP3   OH279455   5.949   1.191  15.049 -0.1574 -0.2314  0.0566
19347TIP3    H179456   6.012   1.223  15.113 -1.0035  0.0070  0.7787
19347TIP3    H279457   5.891   1.265  15.033 -0.5494 -0.5984 -0.2410
19348TIP3   OH279458   1.587   1.318   0.609 -0.2661 -0.4601  0.3543
19348TIP3    H179459   1.556   1.346   0.695 -2.9383  1.0737 -0.9770
19348TIP3    H279460   1.584   1.397   0.556  0.7777 -1.4811 -1.3141
19349TIP3   OH279461   4.599   5.573   1.051  0.2691  0.6122 -0.5224
19349TIP3    H179462   4.509   5.552   1.078  0.9892 -0.7541  1.0050
19349TIP3    H279463   4.610   5.525   0.968  0.3201 -1.2383  0.5022
19350TIP3   OH279464   5.487   4.148  15.250 -0.0519 -0.3821 -0.2866
19350TIP3    H179465   5.581   4.162  15.259 -0.2220  0.9949 -0.4750
19350TIP3    H279466   5.459   4.213  15.186 -0.8092 -2.1722 -1.8494
19351TIP3   OH279467   2.208   0.328   3.518  0.3106 -0.2938  0.1312
19351TIP3    H179468   2.206   0.319   3.613 -0.4624 -0.0461  0.1413
19351TIP3    H279469   2.302   0.325   3.496  0.6873  2.0055  1.1413
19352TIP3   OH279470   1.948   6.423  11.170  0.4707 -0.0267 -0.0742
19352TIP3    H179471   2.014   6.487  11.143  0.1686  0.2860 -0.0833
19352TIP3    H279472   1.875   6.438  11.109  0.4535 -0.4782 -0.1682
19353TIP3   OH279473   5.527   2.841   2.015 -0.5026 -0.0562 -0.2048
19353TIP3    H179474   5.468   2.897   2.064  2.0632  1.6459  1.1962
19353TIP3    H279475   5.504   2.752   2.042 -1.0929  0.6761  1.8966
19354TIP3   OH279476   2.475   5.108   0.876  0.0204  0.2021  0.5361
19354TIP3    H179477   2.449   5.057   0.799 -1.9802  1.4356  0.3042
19354TIP3    H279478   2.433   5.064   0.949  2.4244 -1.3334  1.1133
19355TIP3   OH279479   0.987   5.041   0.954 -0.5443  0.8958  0.5898
19355TIP3    H179480   0.942   4.997   1.026 -0.3378  0.7338  0.6230
19355TIP3    H279481   0.931   5.115   0.932 -2.8394 -1.3851 -1.9249
19356TIP3   OH279482   0.166   5.962   2.333 -0.0682 -0.0311  0.5418
19356TIP3    H179483   0.209   5.880   2.355 -0.3663 -0.3580 -0.0463
19356TIP3    H279484   0.237   6.026   2.323  0.0625  0.1807  2.5453
19357TIP3   OH279485   6.406   6.000  17.103 -0.7772 -0.0160  0.0660
19357TIP3    H179486   6.437   6.017  17.014  0.1945 -1.1374  0.1651
19357TIP3    H279487   6.352   6.076  17.124  0.1293  0.9601 -0.9514
19358TIP3   OH279488   1.568   0.312  12.121  0.3280  0.0247 -0.4059
19358TIP3    H179489   1.532   0.366  12.050 -0.9374  1.1447  1.0317
19358TIP3    H279490   1.661   0.303  12.098  0.0462  0.7440 -1.9710
19359TIP3   OH279491   4.701   4.946   3.661  0.6480  0.8437  1.2447
19359TIP3    H179492   4.655   4.979   3.738 -0.0836  2.5780  0.1178
19359TIP3    H279493   4.632   4.928   3.597  1.2161 -0.8809  1.0595
19360TIP3   OH279494   6.003   4.015   0.492  0.5208 -0.0946 -0.0616
19360TIP3    H179495   6.006   3.983   0.402  0.7589  0.4392 -0.2435
19360TIP3    H279496   6.005   4.110   0.484 -1.0340 -0.0036  0.4510
19361TIP3   OH279497   4.589   2.930   1.900 -1.0486  0.1284 -0.5747
19361TIP3    H179498   4.542   2.871   1.959 -1.1282 -0.3733 -1.1378
19361TIP3    H279499   4.666   2.881   1.873 -0.3621  0.8155  0.0678
19362TIP3   OH279500   4.023   5.337   5.865 -0.2305  0.2773  0.4275
19362TIP3    H179501   3.987   5.352   5.778 -0.3171  0.8509  0.5603
19362TIP3    H279502   4.096   5.399   5.872  0.4337 -0.4869  0.3722
19363TIP3   OH279503   4.771   6.406   0.591  1.1366  0.6138  0.7415
19363TIP3    H179504   4.822   6.327   0.576  0.1075  0.0849 -0.1307
19363TIP3    H279505   4.758   6.443   0.504 -2.7001 -1.0597  0.3884
19364TIP3   OH279506   1.600   1.695  12.108  0.1607  1.0260  1.1504
19364TIP3    H179507   1.512   1.661  12.125 -0.3300  2.3822  1.4553
19364TIP3    H279508   1.612   1.763  12.175  0.8579  1.8561  0.2011
19365TIP3   OH279509   5.792   1.662  15.299  0.7037  0.3860  0.3146
19365TIP3    H179510   5.785   1.721  15.224  1.0584 -0.2826 -0.2569
19365TIP3    H279511   5.702   1.634  15.315  0.3053  2.2380  1.5660
19366TIP3   OH279512   5.242   3.537  14.931  0.5445  0.1395 -0.2979
19366TIP3    H179513   5.196   3.476  14.873  1.2975 -0.5660 -0.1739
19366TIP3    H279514   5.240   3.620  14.883 -3.1613  0.9010  0.8442
19367TIP3   OH279515   5.213   2.577  15.461 -0.2192 -0.0483  0.4171
19367TIP3    H179516   5.256   2.493  15.447  0.3204  0.2740  0.0826
19367TIP3    H279517   5.121   2.556  15.472  0.1588 -0.8618  2.2928
19368TIP3   OH279518   1.846   4.989  13.050 -0.5460 -0.1795 -0.2111
19368TIP3    H179519   1.882   4.939  13.123 -1.2560 -1.5450 -0.7535
19368TIP3    H279520   1.753   4.998  13.071 -0.4321  0.9148 -0.1359
19369TIP3   OH279521   1.978   5.400   2.285  0.8260  0.3842  0.3761
19369TIP3    H179522   2.040   5.354   2.229  0.1517 -1.5868  1.1520
19369TIP3    H279523   1.914   5.437   2.224 -0.5409 -2.6746 -0.2490
19370TIP3   OH279524   2.021   0.962  14.206  0.1087  0.3297  0.3492
19370TIP3    H179525   2.061   1.044  14.176  2.6593 -0.4388  1.3151
19370TIP3    H279526   2.067   0.893  14.157 -0.8922 -0.6063  0.6686
19371TIP3   OH279527   3.588   1.697  17.254  0.0764 -0.9945  0.1619
19371TIP3    H179528   3.565   1.778  17.210  1.7787 -0.9931 -0.8094
19371TIP3    H279529   3.513   1.639  17.238 -1.9731  0.8649  2.3818
19372TIP3   OH279530   5.025   4.181  12.621 -0.1462 -0.3159  0.3728
19372TIP3    H179531   5.041   4.167  12.527  2.1472 -0.9354  0.7796
19372TIP3    H279532   5.103   4.228  12.651 -0.6723 -0.4571  2.0547
19373TIP3   OH279533   6.538   1.542  16.244  0.2047  0.2443 -0.1831
19373TIP3    H179534   6.535   1.553  16.149 -0.6230  0.7331 -0.1130
19373TIP3    H279535   6.447   1.552  16.272  0.5059  0.6093  0.7112
19374TIP3   OH279536   5.785   1.501   3.126  0.2585 -0.6290 -0.2832
19374TIP3    H179537   5.765   1.498   3.032 -1.9030 -1.8626  0.1382
19374TIP3    H279538   5.705   1.533   3.167  0.0139 -3.0284  1.3565
19375TIP3   OH279539   3.729   2.156   3.546 -0.2347 -0.1676 -0.6587
19375TIP3    H179540   3.820   2.170   3.519 -0.2217 -0.4026 -0.7418
19375TIP3    H279541   3.704   2.074   3.503 -0.2019 -0.5733  0.0828
19376TIP3   OH279542   6.211   2.787   0.061  0.2797 -0.7483  0.3521
19376TIP3    H179543   6.221   2.850   0.133 -1.6116  1.0159 -0.7792
19376TIP3    H279544   6.289   2.800   0.007  0.7190 -0.5886  1.0085
19377TIP3   OH279545   4.949   4.128   5.862  0.5076 -0.5905  0.2334
19377TIP3    H179546   4.915   4.060   5.919 -0.1519 -0.3988  0.0777
19377TIP3    H279547   4.968   4.084   5.779 -0.3683 -0.5075 -0.0236
19378TIP3   OH279548   2.088   5.233   2.042  0.2040 -0.2008  0.8935
19378TIP3    H179549   2.021   5.171   2.013  1.3200 -1.6131  1.2129
19378TIP3    H279550   2.170   5.183   2.037  1.1196  1.2201  1.2998
19379TIP3   OH279551   0.080   1.794  16.862  0.4646  0.4196 -0.3677
19379TIP3    H179552   0.120   1.843  16.935  0.1273 -0.4605  0.4281
19379TIP3    H279553  -0.002   1.840  16.845 -0.1145 -0.1415  0.7425
19380TIP3   OH279554   3.113   0.640  13.489  0.5558 -0.4031  0.3430
19380TIP3    H179555   3.063   0.701  13.542  0.6995  0.7383 -0.7781
19380TIP3    H279556   3.070   0.555  13.502 -0.2265  0.1126  1.1994
19381TIP3   OH279557   4.007   0.790  12.714 -0.5517 -0.3405  0.1622
19381TIP3    H179558   4.026   0.773  12.622  1.0941  0.2897  0.3309
19381TIP3    H279559   3.913   0.806  12.717 -0.6794 -0.6209 -1.3587
19382TIP3   OH279560   2.691   4.591   4.912  0.0184  0.2005 -0.2748
19382TIP3    H179561   2.648   4.554   4.835 -1.1888 -0.5842  0.7337
19382TIP3    H279562   2.687   4.521   4.977  0.9714  0.8660  0.5317
19383TIP3   OH279563   1.273   0.739  11.183 -0.3715  0.2929 -0.1373
19383TIP3    H179564   1.290   0.812  11.124 -0.0305 -1.7367 -2.7943
19383TIP3    H279565   1.178   0.723  11.176 -0.8229  1.6151  2.0091
19384TIP3   OH279566   5.358   6.497  13.715 -0.0407 -0.2332 -0.1266
19384TIP3    H179567   5.320   6.534  13.795  1.4653  1.5748 -0.1905
19384TIP3    H279568   5.336   6.560  13.646  2.8133  0.8433 -0.1867
19385TIP3   OH279569   3.911   3.718   6.003 -0.3324 -0.0804 -0.1119
19385TIP3    H179570   3.841   3.781   5.982 -0.3550  0.8702  2.4262
19385TIP3    H279571   3.870   3.656   6.063  0.5025 -0.6907 -0.1546
19386TIP3   OH279572   4.428   0.005  14.204  0.4010  0.6465 -0.4123
19386TIP3    H179573   4.399   0.079  14.151 -1.6806 -0.1109 -0.3995
19386TIP3    H279574   4.424   0.037  14.295  0.2623  0.7551 -0.4573
19387TIP3   OH279575   2.054   2.984  15.560 -0.4811  0.4041 -0.2583
19387TIP3    H179576   2.110   2.994  15.638 -1.6667 -0.4283  0.7473
19387TIP3    H279577   2.024   2.893  15.564 -0.4255  0.2890 -1.8110
19388TIP3   OH279578   6.153   1.675   4.881 -0.0724 -0.3630 -0.1097
19388TIP3    H179579   6.246   1.693   4.891 -0.4302  0.9483  1.1474
19388TIP3    H279580   6.112   1.762   4.879 -1.5178 -0.9122  2.1126
19389TIP3   OH279581   6.032   4.059  14.960  0.3900 -0.1248 -0.0131
19389TIP3    H179582   6.086   4.017  14.893 -0.9484 -1.4090 -0.3205
19389TIP3    H279583   5.989   3.987  15.005 -0.6813  0.8425  0.5664
19390TIP3   OH279584   6.173   5.974  11.671  0.3696  0.7587  0.1957
19390TIP3    H179585   6.104   5.936  11.618  0.7764  1.1795 -0.6519
19390TIP3    H279586   6.248   5.915  11.660  0.3322  0.6249  0.6341
19391TIP3   OH279587   4.439   2.710   4.544  0.5486  0.6618  0.3401
19391TIP3    H179588   4.473   2.673   4.626  1.9306 -0.2832 -0.6208
19391TIP3    H279589   4.500   2.680   4.477  0.6488  3.1396 -0.7777
19392TIP3   OH279590   5.114   3.603   0.515 -0.4453 -0.0384  0.1504
19392TIP3    H179591   5.205   3.633   0.518 -0.6675  0.6728  0.0809
19392TIP3    H279592   5.120   3.508   0.504  0.2876  0.1331 -1.1171
19393TIP3   OH279593   2.276   0.529   4.532 -0.0048  0.0299 -0.1566
19393TIP3    H179594   2.189   0.551   4.565  0.2971  1.9189 -0.4947
19393TIP3    H279595   2.330   0.522   4.611 -0.4518 -1.1564  0.0539
19394TIP3   OH279596   4.439   1.819  11.974 -0.0485  0.3824  0.3600
19394TIP3    H179597   4.431   1.753  12.043  1.7313 -1.2980 -0.9312
19394TIP3    H279598   4.393   1.781  11.899  0.6380  0.7830 -0.2825
19395TIP3   OH279599   5.907   1.923   0.484 -0.1236  0.6021  0.3258
19395TIP3    H179600   5.815   1.947   0.482 -0.4573 -0.6356 -1.7758
19395TIP3    H279601   5.936   1.946   0.572 -2.0274  2.4283  0.5515
19396TIP3   OH279602   1.854   0.715   5.269 -0.0900  0.0499 -0.5557
19396TIP3    H179603   1.805   0.738   5.348  0.8417 -2.9335  1.0609
19396TIP3    H279604   1.840   0.620   5.260  1.0849  0.0548 -3.1256
19397TIP3   OH279605   3.550   4.463   0.892 -0.2729  0.2839  0.2300
19397TIP3    H179606   3.618   4.411   0.934  0.0133  1.0497  0.7438
19397TIP3    H279607   3.468   4.423   0.922 -0.0596  0.2370  0.7730
19398TIP3   OH279608   6.336   6.619   0.856 -0.4679  0.0414 -0.2875
19398TIP3    H179609   6.301   6.636   0.943 -0.2767  1.5391 -0.4755
19398TIP3    H279610   6.344   6.706   0.816  0.8863 -0.4897 -1.2436
19399TIP3   OH279611   3.551   2.681  12.696  0.0350 -0.1954 -0.0229
19399TIP3    H179612   3.627   2.732  12.668 -0.3319  0.6576  0.5055
19399TIP3    H279613   3.550   2.606  12.637  2.5269 -1.3617  1.2556
19400TIP3   OH279614   0.484   6.362  15.258  0.5768 -0.3389 -0.0565
19400TIP3    H179615   0.430   6.352  15.336 -0.6554  1.5105 -0.6033
19400TIP3    H279616   0.548   6.430  15.282 -1.9779  2.8796 -1.5887
19401TIP3   OH279617   1.523   4.974   1.048 -0.3120  0.4861 -0.7379
19401TIP3    H179618   1.515   4.980   1.143  1.1273  1.4127 -0.6462
19401TIP3    H279619   1.433   4.963   1.017 -1.2510  3.7177  0.4854
19402TIP3   OH279620   2.690   4.319  12.466  0.2754  0.0383 -0.6022
19402TIP3    H179621   2.724   4.307  12.555  0.9598 -1.2288 -1.0140
19402TIP3    H279622   2.736   4.396  12.433 -0.5815  1.0182  0.4030
19403TIP3   OH279623   3.051   5.692   2.781  0.1322 -0.1102 -0.3956
19403TIP3    H179624   3.046   5.785   2.758  0.2876  0.1744  0.6658
19403TIP3    H279625   3.073   5.692   2.874 -0.0491 -1.2145 -0.3453
19404TIP3   OH279626   6.476   4.692   4.282 -0.0743 -0.2096 -0.1806
19404TIP3    H179627   6.426   4.703   4.202  0.7899 -1.0462 -0.8617
19404TIP3    H279628   6.545   4.758   4.277 -0.6901  0.5074  0.4458
19405TIP3   OH279629   1.048   1.650  11.899  0.4836 -0.2686 -0.1253
19405TIP3    H179630   0.993   1.590  11.850  0.7503  0.1597 -0.9804
19405TIP3    H279631   1.010   1.653  11.987 -1.5188  0.8386 -0.9677
19406TIP3   OH279632   0.855   3.599   4.860 -0.1730  0.0232 -0.3366
19406TIP3    H179633   0.860   3.664   4.930 -0.9298 -0.5314  0.2500
19406TIP3    H279634   0.928   3.540   4.877 -2.1106 -1.9572  1.9388
19407TIP3   OH279635   1.361   3.843  12.546 -0.5037 -0.5018  0.4555
19407TIP3    H179636   1.271   3.860  12.519 -0.2692 -0.4643 -0.3496
19407TIP3    H279637   1.364   3.750  12.565 -0.8066 -0.4276  0.8676
19408TIP3   OH279638   1.568   3.537  11.884  0.0982 -0.4812  0.0495
19408TIP3    H179639   1.618   3.543  11.965  0.8056  1.3789 -0.4791
19408TIP3    H279640   1.489   3.489  11.909  0.6724 -0.6750  1.6460
19409TIP3   OH279641   1.877   2.111  14.420 -0.2841  0.0843  0.3228
19409TIP3    H179642   1.932   2.034  14.435  0.0891  0.2474 -0.1844
19409TIP3    H279643   1.835   2.095  14.336  1.5839  1.4476 -0.9563
19410TIP3   OH279644   4.700   2.036  16.644 -0.1855 -0.1696  0.6148
19410TIP3    H179645   4.649   1.959  16.669 -0.6958  0.1400  0.5457
19410TIP3    H279646   4.770   2.042  16.709 -0.4571 -0.3882  0.9293
19411TIP3   OH279647   1.109   0.562  15.722 -0.1294  0.0391 -0.0842
19411TIP3    H179648   1.066   0.503  15.660  1.2159 -0.6226 -0.4076
19411TIP3    H279649   1.136   0.638  15.670 -0.1494  0.0760 -0.0422
19412TIP3   OH279650   2.752   3.038  16.508  0.3763  0.3843  0.2410
19412TIP3    H179651   2.755   3.097  16.433  0.7358  0.1918  0.1023
19412TIP3    H279652   2.768   3.094  16.584 -1.7276  0.9003  0.3789
19413TIP3   OH279653   4.638   0.988   0.592  0.2610 -0.4373 -0.3967
19413TIP3    H179654   4.653   1.080   0.615 -1.1613 -0.1240 -0.6473
19413TIP3    H279655   4.582   0.991   0.515  1.7316 -1.5244 -1.5585
19414TIP3   OH279656   4.349   2.742   6.115 -0.3765  0.3766 -0.2453
19414TIP3    H179657   4.328   2.731   6.023 -1.4562 -1.4272  0.1860
19414TIP3    H279658   4.268   2.722   6.162 -0.1157  2.1422  1.0946
19415TIP3   OH279659   4.182   1.869   1.098  0.6575 -0.2289  0.9749
19415TIP3    H179660   4.106   1.912   1.059  0.3482 -2.0638 -0.5476
19415TIP3    H279661   4.188   1.907   1.186  0.2361  2.6581 -0.1339
19416TIP3   OH279662   3.194   6.357  14.081 -0.3403 -0.4617  1.1871
19416TIP3    H179663   3.140   6.278  14.081 -0.2811 -0.5108  1.8523
19416TIP3    H279664   3.148   6.418  14.024  0.0682 -1.2786 -0.0425
19417TIP3   OH279665   0.400   2.899   5.959 -0.4312 -0.4591 -0.1007
19417TIP3    H179666   0.387   2.993   5.971  2.1220  0.1886 -1.7573
19417TIP3    H279667   0.417   2.866   6.047 -0.7529  0.7335  0.4297
19418TIP3   OH279668   4.049   5.170  11.351 -0.1224  0.1261  1.0795
19418TIP3    H179669   4.017   5.237  11.291  0.6809  0.0311  0.5329
19418TIP3    H279670   4.142   5.189  11.361  0.2976 -1.3194  0.3207
19419TIP3   OH279671   5.004   4.913   4.287  0.1136  0.2022  1.3599
19419TIP3    H179672   5.090   4.879   4.262 -0.4698  0.0913 -0.6694
19419TIP3    H279673   5.000   4.902   4.382  1.5524 -1.6369  1.2524
19420TIP3   OH279674   0.318   4.593   1.363 -0.6052 -0.0055  0.5564
19420TIP3    H179675   0.227   4.621   1.357 -0.1625  1.7186  1.2663
19420TIP3    H279676   0.356   4.614   1.278 -1.0821 -1.6929 -0.1142
19421TIP3   OH279677   5.518   3.338  17.026  0.7164  0.4111 -0.2035
19421TIP3    H179678   5.460   3.264  17.039  0.1149  0.9907  0.5109
19421TIP3    H279679   5.510   3.359  16.933  0.1509  0.1822 -0.2064
19422TIP3   OH279680   6.354   6.175  15.901  0.1000  0.3098 -0.0292
19422TIP3    H179681   6.296   6.147  15.972  1.9987  2.4845  2.5885
19422TIP3    H279682   6.418   6.105  15.893 -0.6086 -0.3322 -0.2117
19423TIP3   OH279683   1.683   6.492   4.472 -0.4292 -0.3551 -0.3232
19423TIP3    H179684   1.739   6.561   4.508 -1.6790  0.0271  0.9822
19423TIP3    H279685   1.714   6.412   4.514  0.6268 -0.5334 -1.3821
19424TIP3   OH279686   0.859   1.338   1.788 -0.1973 -0.3569  0.1181
19424TIP3    H179687   0.829   1.381   1.708 -2.6756 -1.5383  0.3192
19424TIP3    H279688   0.942   1.297   1.764 -0.7153 -0.4020 -1.7415
19425TIP3   OH279689   1.852   5.235  17.253 -0.1775 -0.2740 -0.2044
19425TIP3    H179690   1.909   5.294  17.302  0.1206 -0.4653 -0.3189
19425TIP3    H279691   1.898   5.220  17.171  0.1150 -1.2710  0.1305
19426TIP3   OH279692   0.282   6.641   0.254  0.2981  0.1633  0.2818
19426TIP3    H179693   0.206   6.697   0.243 -0.6322 -1.4470 -2.2434
19426TIP3    H279694   0.246   6.558   0.287  1.1074 -0.2263  0.2140
19427TIP3   OH279695   1.058   1.090   4.040 -0.6344  0.7649 -0.9516
19427TIP3    H179696   1.014   1.148   4.102  1.6369  1.4721  0.0807
19427TIP3    H279697   1.122   1.146   3.996  0.0935 -0.4810 -1.5356
19428TIP3   OH279698   1.831   5.997  11.718 -0.3709 -0.5241 -0.2121
19428TIP3    H179699   1.878   6.057  11.659 -0.5269 -0.2734 -0.0801
19428TIP3    H279700   1.889   5.921  11.726  0.1136 -0.1210  0.1273
19429TIP3   OH279701   5.295   6.646  13.958  0.6693  0.0961 -0.2158
19429TIP3    H179702   5.344   6.606  14.030  0.3134 -0.9458 -0.5195
19429TIP3    H279703   5.358   6.703  13.914  1.3474 -0.5088 -0.0479
19430TIP3   OH279704   1.911   4.947  12.048  0.3403  0.0394  0.0332
19430TIP3    H179705   1.947   4.859  12.040 -3.0441 -1.4416 -0.7527
19430TIP3    H279706   1.829   4.935  12.095 -0.0144  2.8976  0.3217
19431TIP3   OH279707   2.119   3.882  14.445 -0.3079 -0.4479  0.1180
19431TIP3    H179708   2.089   3.806  14.496 -0.0206 -0.5421  0.1503
19431TIP3    H279709   2.215   3.872  14.442 -0.3779 -0.9791 -1.2638
19432TIP3   OH279710   0.558   5.249  13.109  0.1331  0.4814  1.0751
19432TIP3    H179711   0.521   5.250  13.198  0.8868  0.3678  1.3942
19432TIP3    H279712   0.535   5.334  13.073 -2.3497 -0.3492  0.4518
19433TIP3   OH279713   5.894   4.120   1.454  0.6207 -0.5702  0.1883
19433TIP3    H179714   5.926   4.136   1.365  0.2140  0.8776  0.2870
19433TIP3    H279715   5.932   4.190   1.507 -0.2890 -0.5864  0.8852
19434TIP3   OH279716   4.655   4.056  14.089 -0.3609  0.0512  0.1246
19434TIP3    H179717   4.709   3.979  14.109  1.1150  0.6177 -1.4844
19434TIP3    H279718   4.589   4.057  14.159  1.9416 -0.4260  2.4836
19435TIP3   OH279719   2.495   2.116  13.070  0.2989 -0.3594  0.2035
19435TIP3    H179720   2.486   2.117  12.974  2.9483 -1.6023 -0.1446
19435TIP3    H279721   2.504   2.208  13.095 -0.2517 -0.0358 -0.7396
19436TIP3   OH279722   2.867   3.715   0.267  0.0955 -0.2452  0.0230
19436TIP3    H179723   2.847   3.765   0.346  1.9027 -1.7061  1.5174
19436TIP3    H279724   2.956   3.741   0.244 -0.1051 -0.4579 -1.0865
19437TIP3   OH279725   3.820   0.357  16.060  0.4819  0.4953  0.0096
19437TIP3    H179726   3.826   0.262  16.070 -1.8272  0.3291  0.4654
19437TIP3    H279727   3.783   0.369  15.972  1.6342  1.0236 -0.4101
19438TIP3   OH279728   2.664   5.759  10.309 -0.4443 -0.0408  0.2804
19438TIP3    H179729   2.650   5.685  10.369  1.4819  1.2507  2.5080
19438TIP3    H279730   2.729   5.726  10.246 -0.9366 -0.7898  0.1499
19439TIP3   OH279731   1.627   6.299  14.056 -0.2680 -0.3101 -0.6759
19439TIP3    H179732   1.584   6.305  13.971  0.4528  3.0148 -0.9692
19439TIP3    H279733   1.721   6.302  14.036 -0.0812  1.9770  0.1478
19440TIP3   OH279734   3.113   4.265   2.479 -0.0954  0.0956  0.2912
19440TIP3    H179735   3.168   4.187   2.483  1.5841  1.2121  0.1842
19440TIP3    H279736   3.047   4.252   2.547  0.5155 -1.1412  0.6716
19441TIP3   OH279737   5.968   2.989  14.633 -0.3989  0.0217 -0.3860
19441TIP3    H179738   5.996   2.972  14.543  2.7413 -0.0279  0.4826
19441TIP3    H279739   5.923   3.074  14.628 -2.0241 -0.8502 -2.2236
19442TIP3   OH279740   1.693   4.065  12.053 -0.2269  0.5573  0.1207
19442TIP3    H179741   1.611   4.017  12.042 -1.0661  1.8765  0.4299
19442TIP3    H279742   1.678   4.123  12.128  0.5686  1.6412 -0.5201
19443TIP3   OH279743   1.468   2.337   0.689 -0.0723 -0.1155 -0.7635
19443TIP3    H179744   1.379   2.306   0.674 -0.8572  1.0601  1.0370
19443TIP3    H279745   1.456   2.425   0.725  1.3584 -1.8614  5.1033
19444TIP3   OH279746   1.117   3.951   2.503 -0.1529  0.3928 -0.0002
19444TIP3    H179747   1.204   3.919   2.481 -0.0213 -0.3497  1.4661
19444TIP3    H279748   1.057   3.892   2.456  0.0694  1.9690 -2.4429
19445TIP3   OH279749   6.008   6.128  13.244 -0.2673 -0.9417  0.2448
19445TIP3    H179750   5.946   6.063  13.210 -0.5482 -0.5862  0.0753
19445TIP3    H279751   6.094   6.090  13.226 -0.4253 -1.1453 -0.0983
19446TIP3   OH279752   6.423   0.861   3.880  0.7337 -0.2650  0.2354
19446TIP3    H179753   6.399   0.889   3.968 -3.0568 -1.8026 -0.0833
19446TIP3    H279754   6.459   0.939   3.838 -0.3892  1.3912  2.1873
19447TIP3   OH279755   1.828   0.628  13.587 -0.7278  0.1177  0.0756
19447TIP3    H179756   1.751   0.680  13.608 -0.8304  0.7710 -1.7147
19447TIP3    H279757   1.793   0.545  13.554 -0.5904 -0.4751  1.3499
19448TIP3   OH279758   0.034   3.076   3.113  0.2891  0.6734 -0.1140
19448TIP3    H179759   0.067   3.028   3.189  1.6900  1.3508 -0.2594
19448TIP3    H279760   0.056   3.020   3.038 -0.5570  0.2803 -0.0742
19449TIP3   OH279761   0.527   0.837  12.318  0.3200  0.6387 -0.5764
19449TIP3    H179762   0.483   0.851  12.235 -0.2580  0.6296 -0.2787
19449TIP3    H279763   0.589   0.911  12.325  0.1015  0.8479 -0.8350
19450TIP3   OH279764   4.610   0.454  13.508  0.1597  0.7991 -0.1174
19450TIP3    H179765   4.696   0.422  13.536  0.1482  1.9747  1.4170
19450TIP3    H279766   4.618   0.464  13.413  2.0131  1.6251  0.0650
19451TIP3   OH279767   3.216   5.245   3.628 -0.4696 -0.3333  0.2393
19451TIP3    H179768   3.230   5.278   3.717  1.9791 -0.4074 -0.0432
19451TIP3    H279769   3.167   5.164   3.639  1.3414 -1.2859  1.7143
19452TIP3   OH279770   2.542   0.193  14.246 -0.6159  0.4291  0.2826
19452TIP3    H179771   2.633   0.198  14.277  0.0551  0.9777 -1.6238
19452TIP3    H279772   2.517   0.102  14.261  0.3869  0.1732  0.5273
19453TIP3   OH279773   5.650   3.019   2.592 -0.7487 -0.4617 -0.3973
19453TIP3    H179774   5.622   3.100   2.633 -0.7472 -0.2297 -0.8514
19453TIP3    H279775   5.571   2.982   2.555 -0.3124  0.8136 -2.7699
19454TIP3   OH279776   4.042   0.248   5.808 -0.6196 -0.4532  0.2383
19454TIP3    H179777   4.063   0.269   5.718  0.7285  0.3736  0.7147
19454TIP3    H279778   4.012   0.331   5.846 -1.9258 -0.9560  0.3807
19455TIP3   OH279779   1.968   2.397  12.557 -0.4522 -0.2534 -0.5980
19455TIP3    H179780   1.907   2.374  12.487  0.1110  1.7986 -1.8763
19455TIP3    H279781   2.053   2.367  12.524 -0.4840 -1.3383  0.2778
19456TIP3   OH279782   5.477   5.269  16.672 -0.1984  0.1689  0.4946
19456TIP3    H179783   5.524   5.296  16.751  0.8272  0.2692 -0.1400
19456TIP3    H279784   5.468   5.349  16.621 -0.1932 -0.0424  0.1615
19457TIP3   OH279785   0.255   0.359   4.014 -0.4837  0.8781 -0.0382
19457TIP3    H179786   0.224   0.290   3.956 -0.3420  0.5781  0.2422
19457TIP3    H279787   0.225   0.333   4.101 -0.2711  1.0742  0.0953
19458TIP3   OH279788   6.263   6.033  16.136 -0.7714 -0.5255  0.1966
19458TIP3    H179789   6.341   6.042  16.191 -0.8762  1.0987  0.1108
19458TIP3    H279790   6.286   5.965  16.073  1.0231  0.7100 -0.5505
19459TIP3   OH279791   2.552   2.213   4.990 -0.2315 -0.1846 -0.4104
19459TIP3    H179792   2.526   2.267   5.065  0.4517 -0.7011  0.2163
19459TIP3    H279793   2.558   2.274   4.917  2.5180  1.0273  0.7038
19460TIP3   OH279794   3.300   1.956   1.818 -0.5731 -0.7143  0.3229
19460TIP3    H179795   3.205   1.955   1.819 -0.5990 -1.5567 -0.9581
19460TIP3    H279796   3.325   1.865   1.806  0.3377 -0.2751 -1.3160
19461TIP3   OH279797   0.784   5.709   5.888  0.3619  0.1235  0.2379
19461TIP3    H179798   0.826   5.674   5.809  1.4795  0.9753  0.4319
19461TIP3    H279799   0.777   5.803   5.872  1.4676  0.4433  1.5228
19462TIP3   OH279800   0.714   2.066   1.711  0.3040  0.5020 -0.1674
19462TIP3    H179801   0.721   2.012   1.632 -0.2263  0.6871 -0.3456
19462TIP3    H279802   0.620   2.068   1.731  0.6168 -1.5777  1.8986
19463TIP3   OH279803   0.641   4.135  10.917 -0.2986  0.0088 -0.1406
19463TIP3    H179804   0.642   4.224  10.884 -1.0260 -0.3099 -1.0650
19463TIP3    H279805   0.701   4.087  10.860 -0.3080 -0.1942  0.0189
19464TIP3   OH279806   4.347   4.508  11.993  0.0580  0.2155  0.2116
19464TIP3    H179807   4.275   4.498  12.056  0.5808  0.7420  0.9077
19464TIP3    H279808   4.307   4.548  11.916 -0.9909 -2.2023 -0.5745
19465TIP3   OH279809   1.601   6.293   5.076 -0.2990 -0.5849  0.0514
19465TIP3    H179810   1.508   6.277   5.090 -0.5532  1.5533  1.2894
19465TIP3    H279811   1.626   6.353   5.146  1.3943  0.9830 -1.7626
19466TIP3   OH279812   5.981   4.953  14.810  0.3436  0.3295 -0.4238
19466TIP3    H179813   5.935   4.876  14.777  0.5442  0.1191 -0.2165
19466TIP3    H279814   6.052   4.967  14.748  1.3345 -0.6722  0.4535
19467TIP3   OH279815   1.591   5.372  15.395 -0.0013 -0.1587  0.7316
19467TIP3    H179816   1.606   5.280  15.371 -0.4768 -0.2690  0.8412
19467TIP3    H279817   1.497   5.383  15.386  0.1159  0.4550  0.2566
19468TIP3   OH279818   0.745   1.182   1.262 -0.3123  0.1313  0.5691
19468TIP3    H179819   0.668   1.226   1.226  0.2965 -0.0535 -1.0268
19468TIP3    H279820   0.717   1.152   1.348 -1.9566  0.2531  0.1070
19469TIP3   OH279821   0.622   4.475  12.577  0.4811 -0.2058 -0.4513
19469TIP3    H179822   0.588   4.419  12.508  0.7835 -1.4868  0.3863
19469TIP3    H279823   0.717   4.461  12.575  0.7971  1.7669 -1.4506
19470TIP3   OH279824   2.815   4.877  12.971  0.2447 -0.3028  0.2984
19470TIP3    H179825   2.910   4.884  12.962  0.4754  0.1909  2.6447
19470TIP3    H279826   2.787   4.832  12.891  2.3053  0.5119 -0.9587
19471TIP3   OH279827   3.891   4.269  14.740 -0.7305 -0.8203  0.0627
19471TIP3    H179828   3.963   4.307  14.690 -0.7751 -1.3373 -0.4052
19471TIP3    H279829   3.813   4.311  14.703 -0.6637  0.0539  0.8502
19472TIP3   OH279830   4.659   5.549  14.122 -0.5763 -0.0187 -0.8590
19472TIP3    H179831   4.587   5.551  14.059 -0.4143  1.7463 -1.0434
19472TIP3    H279832   4.640   5.621  14.182 -0.1357 -0.9629  0.4492
19473TIP3   OH279833   1.966   3.026  14.619 -0.7796  0.1005 -0.2759
19473TIP3    H179834   2.061   3.012  14.617 -0.8243 -0.0667 -1.1289
19473TIP3    H279835   1.929   2.941  14.644 -0.7327  0.0584 -0.3507
19474TIP3   OH279836   4.319   1.371  11.784 -0.7596  0.3022 -0.1331
19474TIP3    H179837   4.393   1.310  11.788 -1.0808 -0.0615  0.4178
19474TIP3    H279838   4.339   1.428  11.710 -0.8930 -1.0595 -1.2657
19475TIP3   OH279839   0.565   4.667  15.079 -0.1470 -0.2928  0.0707
19475TIP3    H179840   0.650   4.679  15.120  0.0092  2.0707 -0.8052
19475TIP3    H279841   0.585   4.647  14.987 -0.5152  0.3021 -0.1496
19476TIP3   OH279842   1.776   1.495  12.158 -0.0474 -0.0207  0.3390
19476TIP3    H179843   1.853   1.547  12.183  0.5444  0.4280 -2.1222
19476TIP3    H279844   1.709   1.559  12.136 -1.2146 -0.4094  2.4590
19477TIP3   OH279845   2.709   3.048  13.940  0.2771 -0.7183  0.2231
19477TIP3    H179846   2.800   3.070  13.921 -0.1942  0.5860 -0.6921
19477TIP3    H279847   2.714   2.977  14.004  1.9274 -0.5923  0.2738
19478TIP3   OH279848   6.337   0.004   2.754  0.3265  0.3698  0.4546
19478TIP3    H179849   6.431   0.004   2.738  0.4172 -1.6549  0.7787
19478TIP3    H279850   6.328   0.016   2.848  0.4438 -2.4781  0.8983
19479TIP3   OH279851   5.273   1.487  15.974 -0.4347  0.3592  0.0159
19479TIP3    H179852   5.205   1.420  15.979 -0.7898  0.7253  0.1227
19479TIP3    H279853   5.330   1.468  16.049 -1.4844  1.1967  1.0668
19480TIP3   OH279854   2.725   6.209  13.805 -0.3757 -0.0871 -0.2601
19480TIP3    H179855   2.702   6.151  13.732  0.8736 -1.4281  0.3511
19480TIP3    H279856   2.699   6.159  13.883  0.7660  0.1284  0.2796
19481TIP3   OH279857   6.595   6.229  15.234  0.3844  0.2269  0.0009
19481TIP3    H179858   6.624   6.320  15.237  0.7546  0.2390 -2.2036
19481TIP3    H279859   6.519   6.226  15.293  1.8574  1.3183  2.0746
19482TIP3   OH279860   0.065   4.248   4.503 -0.6742 -0.7420 -0.0948
19482TIP3    H179861   0.122   4.310   4.549 -2.2744  0.7355 -0.0093
19482TIP3    H279862   0.004   4.303   4.454  0.2247 -2.2307 -3.1486
19483TIP3   OH279863   3.532   4.309  13.212 -0.0716  0.6298 -0.5216
19483TIP3    H179864   3.519   4.214  13.210  0.7927  0.4239  1.5785
19483TIP3    H279865   3.627   4.320  13.221 -0.3348  1.5675  1.8115
19484TIP3   OH279866   0.685   0.318  12.911 -0.2963 -0.1867 -0.1069
19484TIP3    H179867   0.611   0.373  12.886 -1.4900 -1.8824 -0.5512
19484TIP3    H279868   0.729   0.299  12.829  1.7506  2.1972  0.3320
19485TIP3   OH279869   0.317   3.599  11.519 -0.1487  0.3159 -0.4474
19485TIP3    H179870   0.348   3.620  11.431 -1.2081  2.9618 -0.2723
19485TIP3    H279871   0.225   3.623  11.518  0.0453  1.3358  1.6627
19486TIP3   OH279872   4.881   4.884   1.150  0.0527 -0.2354 -0.8652
19486TIP3    H179873   4.832   4.816   1.104 -2.9110  1.4998 -0.5575
19486TIP3    H279874   4.828   4.905   1.226  2.1958  0.6487  0.4883
19487TIP3   OH279875   5.318   4.671   1.903 -0.2935  0.1980 -0.0777
19487TIP3    H179876   5.343   4.603   1.841 -0.8037  0.0707 -0.1467
19487TIP3    H279877   5.262   4.730   1.852 -0.2527  0.3976  0.1108
19488TIP3   OH279878   1.595   2.026  12.218  0.0297 -0.6319  0.2388
19488TIP3    H179879   1.685   2.055  12.202 -0.5821  1.4854  0.4337
19488TIP3    H279880   1.582   2.041  12.312 -0.4483 -1.2329  0.2752
19489TIP3   OH279881   5.086   5.430  13.745 -0.1597  0.1692 -0.1058
19489TIP3    H179882   5.010   5.390  13.787 -0.3039  0.8566  0.3000
19489TIP3    H279883   5.120   5.361  13.688 -0.7188 -0.3519  0.1699
19490TIP3   OH279884   6.614   0.337   4.377  0.3965  0.4292 -0.5168
19490TIP3    H179885   6.529   0.345   4.334 -0.2395  0.6069  0.7091
19490TIP3    H279886   6.610   0.252   4.421  0.3682  0.9389  0.5084
19491TIP3   OH279887   3.601   0.853  10.890  0.3220 -0.2176 -0.1357
19491TIP3    H179888   3.551   0.934  10.901 -1.2736 -1.2983  1.1536
19491TIP3    H279889   3.675   0.861  10.950  1.2079  0.9837 -1.3265
19492TIP3   OH279890   2.970   5.979   6.848 -0.0643  0.0871  0.0165
19492TIP3    H179891   2.982   6.027   6.766  0.8061 -0.8470 -0.4262
19492TIP3    H279892   2.901   5.916   6.829 -0.3130  0.2998  0.2069
19493TIP3   OH279893   6.191   3.571   4.436  0.3040  0.6188  0.8281
19493TIP3    H179894   6.154   3.483   4.439 -1.8089  1.4381  0.8287
19493TIP3    H279895   6.250   3.571   4.361  0.7199 -0.9046  1.1246
19494TIP3   OH279896   6.675   2.927   2.234  0.2484  0.8607 -0.2666
19494TIP3    H179897   6.640   2.927   2.145 -0.0662  0.3207 -0.1501
19494TIP3    H279898   6.675   3.020   2.260 -1.3719  0.8670 -0.1827
19495TIP3   OH279899   4.090   4.428  14.623 -0.3708  0.1764 -0.1933
19495TIP3    H179900   4.166   4.475  14.657 -0.1870  0.2368 -0.6843
19495TIP3    H279901   4.106   4.421  14.529 -2.2384  2.5466 -0.7660
19496TIP3   OH279902   1.204   0.077   2.303  0.4240  0.2453  0.0425
19496TIP3    H179903   1.170   0.063   2.215 -2.3816 -0.1699  1.0767
19496TIP3    H279904   1.169   0.163   2.328  0.0090 -0.2497  1.2147
19497TIP3   OH279905   6.172   0.620   2.555 -0.3923 -0.2816 -0.0633
19497TIP3    H179906   6.095   0.608   2.610 -1.2578 -1.8801 -1.5218
19497TIP3    H279907   6.143   0.594   2.467  0.6350  3.0611 -1.5511
19498TIP3   OH279908   5.117   5.495  12.794 -0.1565  0.3897 -0.4423
19498TIP3    H179909   5.087   5.418  12.746  0.2743 -0.6338  0.8364
19498TIP3    H279910   5.150   5.554  12.727 -0.9000 -0.3559 -1.4959
19499TIP3   OH279911   1.454   1.400   1.518 -0.5105 -0.3548 -0.6223
19499TIP3    H179912   1.504   1.346   1.456  1.6754  0.4921  0.2864
19499TIP3    H279913   1.510   1.402   1.596 -2.4175 -0.0349  0.7885
19500TIP3   OH279914   4.146   4.335   4.893  0.2215  0.9325 -0.0611
19500TIP3    H179915   4.108   4.304   4.811  0.8330 -0.5602  0.1921
19500TIP3    H279916   4.236   4.302   4.892 -0.0430  0.0329  1.6274
19501TIP3   OH279917   4.813   3.760  16.122  0.2062 -0.4802  0.1689
19501TIP3    H179918   4.892   3.735  16.171  0.3542 -0.7278 -0.1944
19501TIP3    H279919   4.747   3.698  16.151  0.0802 -0.1370  0.6374
19502TIP3   OH279920   5.307   5.578   1.810 -0.7104 -0.3125 -0.1389
19502TIP3    H179921   5.230   5.580   1.753 -0.3371  1.2894 -0.6434
19502TIP3    H279922   5.381   5.584   1.750 -0.2539 -0.2249  0.4248
19503TIP3   OH279923   4.860   3.991  15.979  0.3517 -0.1893  0.7173
19503TIP3    H179924   4.863   3.962  15.888  0.8888  1.1291  0.2905
19503TIP3    H279925   4.854   3.910  16.030  2.6057 -1.1333 -0.3652
19504TIP3   OH279926   0.102   6.601   1.442  0.7063 -0.0513  0.0755
19504TIP3    H179927   0.133   6.560   1.522  1.3577  0.9273  0.3470
19504TIP3    H279928   0.153   6.560   1.372 -0.1352 -1.1847  0.0913
19505TIP3   OH279929   3.579   6.305  10.878  0.0152  0.1378 -0.3110
19505TIP3    H179930   3.553   6.360  10.952  1.4329 -1.0746  1.1700
19505TIP3    H279931   3.672   6.326  10.865  0.6231 -1.9000  0.3604
19506TIP3   OH279932   6.653   5.071  15.297  0.0259  0.1180  0.0748
19506TIP3    H179933   6.746   5.078  15.316 -0.5213  4.1151  2.3580
19506TIP3    H279934   6.648   5.065  15.201  2.5601 -0.2056 -0.0923
19507TIP3   OH279935   3.074   6.139   5.392  0.0896 -0.0629  0.0629
19507TIP3    H179936   3.139   6.075   5.363  0.5402  0.1341  0.6222
19507TIP3    H279937   2.997   6.121   5.338  1.1092  0.7501 -1.7700
19508TIP3   OH279938   5.939   2.403  16.386 -0.7981 -0.3751  0.4282
19508TIP3    H179939   5.944   2.430  16.478  0.4853 -0.8768  0.5322
19508TIP3    H279940   6.005   2.335  16.378 -0.0325  0.4949 -1.1515
19509TIP3   OH279941   2.225   5.331   4.544 -0.2150 -0.4877  0.1704
19509TIP3    H179942   2.196   5.419   4.570  1.3878 -0.4277  1.9027
19509TIP3    H279943   2.147   5.277   4.554 -1.0083  0.5725 -0.0789
19510TIP3   OH279944   6.437   3.853   6.029  0.0532 -0.1496  0.2215
19510TIP3    H179945   6.438   3.947   6.051  0.7671 -0.0656 -0.1452
19510TIP3    H279946   6.479   3.848   5.943  1.5523 -0.9746  0.9629
19511TIP3   OH279947   3.977   6.255   2.241  0.0337  0.3333  0.3278
19511TIP3    H179948   3.924   6.317   2.189  0.0011  0.7809  0.8822
19511TIP3    H279949   4.046   6.309   2.279 -0.6193  0.2438  1.6869
19512TIP3   OH279950   2.933   5.673   3.340 -0.3444  0.6308  0.0314
19512TIP3    H179951   2.924   5.765   3.365  0.0764  0.9025 -0.7850
19512TIP3    H279952   3.007   5.642   3.392  1.4762  1.5842 -1.8113
19513TIP3   OH279953   5.579   3.695  13.848 -0.1154 -0.2852 -0.5497
19513TIP3    H179954   5.663   3.733  13.872 -0.7952  0.8203  0.1665
19513TIP3    H279955   5.564   3.626  13.912 -0.3823  0.4580  0.2208
19514TIP3   OH279956   2.007   4.573  17.094 -0.7028 -0.1662  0.3257
19514TIP3    H179957   2.068   4.534  17.031  0.4288  1.4028  0.3723
19514TIP3    H279958   1.922   4.567  17.052 -0.3268 -1.2461 -0.3246
19515TIP3   OH279959   3.597   2.864  15.572  0.3709 -0.1751  0.1062
19515TIP3    H179960   3.560   2.796  15.628  0.3907 -0.1398  0.1631
19515TIP3    H279961   3.531   2.879  15.505  0.2611 -0.0779  0.2353
19516TIP3   OH279962   2.238   3.837  16.059  0.3203 -0.4777  0.5845
19516TIP3    H179963   2.210   3.815  15.970 -1.1380 -0.9422  1.1262
19516TIP3    H279964   2.273   3.756  16.094 -0.6532 -0.7410  0.9794
19517TIP3   OH279965   5.153   0.698  11.750 -0.2188  0.2957  0.0312
19517TIP3    H179966   5.130   0.748  11.672 -0.9891  0.1928  0.1808
19517TIP3    H279967   5.078   0.640  11.764  0.2456 -0.2267  0.4085
19518TIP3   OH279968   6.533   5.541  12.529 -0.1146 -0.2456  0.4065
19518TIP3    H179969   6.565   5.533  12.439 -0.6163  1.9007 -0.0056
19518TIP3    H279970   6.583   5.614  12.566 -1.5403  0.4192  1.1043
19519TIP3   OH279971   2.826   5.006   4.885  0.2886 -0.1237 -0.2802
19519TIP3    H179972   2.764   4.934   4.877  0.4827 -0.4843  1.0787
19519TIP3    H279973   2.889   4.975   4.951  1.6209  0.4327 -1.2495
19520TIP3   OH279974   3.620   1.473  16.343 -0.9443 -0.1189  0.5338
19520TIP3    H179975   3.682   1.411  16.381  1.9959  0.8918 -2.1908
19520TIP3    H279976   3.653   1.559  16.369  0.0019  0.5169 -2.4013
19521TIP3   OH279977   5.173   5.630   0.586 -0.6305 -0.2113 -0.1692
19521TIP3    H179978   5.180   5.584   0.503 -0.6938 -0.2519 -0.1524
19521TIP3    H279979   5.166   5.560   0.651 -0.6890 -0.1781 -0.1401
19522TIP3   OH279980   1.242   3.622  15.536  0.2900  0.1874  0.2092
19522TIP3    H179981   1.162   3.587  15.498  0.6940  1.4735 -1.9837
19522TIP3    H279982   1.228   3.717  15.539  0.9967  0.2850  1.6760
19523TIP3   OH279983   5.780   6.569   2.449  0.3477 -0.2332 -0.4647
19523TIP3    H179984   5.763   6.539   2.539  0.9355  1.3510  0.2136
19523TIP3    H279985   5.857   6.625   2.457 -2.0373  3.4990 -1.1417
19524TIP3   OH279986   1.534   6.700   1.026  0.7359  0.1541  0.3103
19524TIP3    H179987   1.573   6.648   0.956  0.5885  1.9922 -1.2242
19524TIP3    H279988   1.496   6.636   1.086  0.1634 -1.4982 -1.6991
19525TIP3   OH279989   6.061   2.028   0.145 -0.2123  0.0139  0.0611
19525TIP3    H179990   6.012   1.946   0.147 -0.7446  0.3356  0.7660
19525TIP3    H279991   6.006   2.087   0.092 -2.4224  1.4436  3.6025
19526TIP3   OH279992   5.498   1.946   3.447  0.1977 -0.5504  0.1325
19526TIP3    H179993   5.458   1.863   3.423 -1.9618  0.7258 -0.9777
19526TIP3    H279994   5.469   2.008   3.379  3.1127  0.7832 -0.0558
19527TIP3   OH279995   3.101   3.507  16.338 -0.0863  0.1636 -0.1871
19527TIP3    H179996   3.150   3.503  16.420  1.6025  1.8543 -1.0281
19527TIP3    H279997   3.147   3.573  16.286 -1.9668  0.1936 -1.9391
19528TIP3   OH279998   6.441   1.427   1.808 -0.0036  0.4013 -0.0566
19528TIP3    H179999   6.482   1.386   1.884  0.0957  1.6217  0.5789
19528TIP3    H280000   6.362   1.469   1.844  0.3078  1.4159 -0.5109
19529TIP3   OH280001   0.274   5.685  14.287 -0.8123  0.3840 -0.2699
19529TIP3    H180002   0.308   5.735  14.361  2.0923 -1.1164 -0.4541
19529TIP3    H280003   0.248   5.601  14.325  0.7290 -0.4084 -0.8994
19530TIP3   OH280004   5.366   3.757  11.772  0.2153 -0.2940  0.7088
19530TIP3    H180005   5.420   3.723  11.702 -1.4380 -2.4115  0.3493
19530TIP3    H280006   5.304   3.816  11.729  0.6642  0.2089  0.7484
19531TIP3   OH280007   1.128   2.636  15.476 -0.0821  0.9274 -0.2162
19531TIP3    H180008   1.223   2.647  15.470  0.2567  0.6114  2.7476
19531TIP3    H280009   1.096   2.723  15.499 -0.1959  0.5967  0.9461
19532TIP3   OH280010   0.532   2.713   2.136 -0.0647 -0.1118  0.2990
19532TIP3    H180011   0.526   2.645   2.203 -1.7459 -0.3304 -0.0232
19532TIP3    H280012   0.516   2.795   2.184 -0.4387 -0.1883  0.3110
19533TIP3   OH280013   5.086   3.165  13.329  0.1142  0.6558  0.2014
19533TIP3    H180014   5.101   3.177  13.235  2.1811 -3.2809 -0.2012
19533TIP3    H280015   4.998   3.127  13.335  0.5010 -0.3796 -0.3774
19534TIP3   OH280016   5.379   5.833  12.875 -0.3985  0.6532  0.4279
19534TIP3    H180017   5.470   5.833  12.846 -0.8394 -0.5464 -1.0770
19534TIP3    H280018   5.364   5.745  12.908 -1.2986  0.4840 -0.3710
19535TIP3   OH280019   6.387   6.458  14.049  0.2421 -0.2348 -0.0711
19535TIP3    H180020   6.363   6.475  13.958 -0.2723 -0.4936  0.0111
19535TIP3    H280021   6.319   6.399  14.081 -0.6006  1.2596  1.0195
19536TIP3   OH280022   2.945   3.048   4.859  0.6510 -0.1599 -0.0698
19536TIP3    H180023   2.907   3.078   4.777 -1.3631 -1.8913  0.1774
19536TIP3    H280024   2.923   2.955   4.864  1.7582 -0.3696  1.8783
19537TIP3   OH280025   3.091   5.740   1.130  0.2491 -0.0865  0.3334
19537TIP3    H180026   3.049   5.658   1.154 -0.7765  0.1393 -0.5926
19537TIP3    H280027   3.184   5.718   1.120 -0.1145 -1.3134 -0.6222
19538TIP3   OH280028   1.292   0.359  15.443 -0.0830  0.0304 -0.6288
19538TIP3    H180029   1.201   0.386  15.443  0.4139  1.9021 -1.3078
19538TIP3    H280030   1.290   0.264  15.435 -1.9506  0.0773 -1.0335
19539TIP3   OH280031   5.427   3.969  14.256  0.3391  0.4492 -0.1937
19539TIP3    H180032   5.432   3.972  14.160 -1.1021 -1.0059 -0.3568
19539TIP3    H280033   5.497   3.909  14.281  0.5239  0.5936 -0.3563
19540TIP3   OH280034   3.280   5.943  16.445  0.6810  0.1930 -0.1220
19540TIP3    H180035   3.195   5.900  16.439  1.1619 -0.6850 -0.8727
19540TIP3    H280036   3.309   5.951  16.354  2.0094 -0.7868  0.1857
19541TIP3   OH280037   2.396   1.303  15.552 -0.0519  0.7036  0.3348
19541TIP3    H180038   2.419   1.291  15.460 -0.8029 -2.4012  0.4269
19541TIP3    H280039   2.476   1.281  15.600 -0.2934 -0.0292  0.4252
19542TIP3   OH280040   2.140   0.607   3.440 -0.0109  0.3322  0.4839
19542TIP3    H180041   2.188   0.530   3.411 -0.5031 -0.1159  0.8524
19542TIP3    H280042   2.136   0.599   3.535 -1.9245 -0.3237  0.3930
19543TIP3   OH280043   1.125   3.818  14.459  0.4034 -0.9362  0.0926
19543TIP3    H180044   1.066   3.893  14.452  1.0245 -0.3023  1.2740
19543TIP3    H280045   1.104   3.763  14.384 -0.3758  0.2039 -0.5474
19544TIP3   OH280046   2.593   2.524  11.378 -0.3591  0.1134  0.4015
19544TIP3    H180047   2.499   2.527  11.357 -0.2635  2.2619  0.0282
19544TIP3    H280048   2.635   2.562  11.301  0.4676  2.7485  2.0280
19545TIP3   OH280049   0.879   0.275   5.989  0.1115  0.1851 -0.1231
19545TIP3    H180050   0.842   0.295   5.903  0.1460  0.4998 -0.0649
19545TIP3    H280051   0.896   0.181   5.986  0.2929  0.2285 -0.5293
19546TIP3   OH280052   4.253   3.803   5.069  0.4276 -0.8100 -0.1081
19546TIP3    H180053   4.343   3.774   5.085  0.1983 -1.3521  0.2117
19546TIP3    H280054   4.203   3.768   5.142 -0.2931 -1.6373 -0.9758
19547TIP3   OH280055   5.078   0.272  14.214  0.2512  0.4128 -0.1177
19547TIP3    H180056   5.158   0.277  14.162  0.7260 -1.4252  0.3567
19547TIP3    H280057   5.108   0.280  14.305 -0.1047 -0.1419  0.0546
19548TIP3   OH280058   6.230   3.451   5.462  0.3328 -0.3611 -0.3873
19548TIP3    H180059   6.255   3.378   5.519  1.5135  0.4905  0.2205
19548TIP3    H280060   6.209   3.522   5.522 -0.5771 -0.1140 -0.9842
19549TIP3   OH280061   5.119   2.102   1.408  0.3725  0.0215  0.3357
19549TIP3    H180062   5.136   2.193   1.433  3.5327 -0.3643 -0.0208
19549TIP3    H280063   5.078   2.063   1.485  0.4226  1.3521  1.0668
19550TIP3   OH280064   2.035   3.590  17.087 -0.0557 -0.3021  0.0195
19550TIP3    H180065   2.001   3.635  17.164  0.5576  0.5117 -0.1687
19550TIP3    H280066   2.130   3.595  17.096  0.0257 -0.0593 -0.8641
19551TIP3   OH280067   1.692   3.958  12.353  0.1230  0.2928 -0.6669
19551TIP3    H180068   1.653   3.979  12.438  1.1276  1.1046 -0.3820
19551TIP3    H280069   1.743   4.035  12.330  1.1368 -0.5218 -1.2602
19552TIP3   OH280070   4.942   2.781  15.313  0.0962  0.3022 -0.7753
19552TIP3    H180071   5.007   2.838  15.355  0.6054 -0.8300  0.0252
19552TIP3    H280072   4.864   2.790  15.366  0.1096  0.4209 -0.7762
19553TIP3   OH280073   3.716   3.535   0.278  0.0451  0.0706 -1.2230
19553TIP3    H180074   3.634   3.569   0.243 -0.1928  0.7472 -0.0637
19553TIP3    H280075   3.760   3.495   0.203 -1.4721 -0.5695 -1.8111
19554TIP3   OH280076   3.363   4.698   2.503 -0.0842 -0.2539 -0.3508
19554TIP3    H180077   3.332   4.640   2.433 -1.6188  1.7364 -1.4171
19554TIP3    H280078   3.318   4.668   2.581 -0.7770 -0.5580 -0.8569
19555TIP3   OH280079   5.720   0.962   4.720  0.2645  0.2857  0.1223
19555TIP3    H180080   5.752   1.030   4.779  2.5177 -0.8172  0.2561
19555TIP3    H280081   5.787   0.894   4.721 -0.8031 -0.9173 -1.7899
19556TIP3   OH280082   1.803   1.822   6.271 -0.3839  0.0835  0.3888
19556TIP3    H180083   1.733   1.768   6.308 -0.2336  1.0676  2.2253
19556TIP3    H280084   1.847   1.860   6.347  0.0939  2.0618 -0.7966
19557TIP3   OH280085   4.778   6.260   3.157 -0.0106  0.6307 -0.1161
19557TIP3    H180086   4.806   6.266   3.248  0.8031  0.6486 -0.3617
19557TIP3    H280087   4.716   6.332   3.146 -1.8298 -0.6854  1.0016
19558TIP3   OH280088   4.823   0.036   0.265  0.6437  0.1937  0.3948
19558TIP3    H180089   4.754  -0.030   0.263  1.8047 -1.0749 -0.0787
19558TIP3    H280090   4.880   0.010   0.338  1.3169  0.4457 -0.0253
19559TIP3   OH280091   3.754   6.622  12.790 -0.1080 -0.3181 -0.0386
19559TIP3    H180092   3.755   6.664  12.876  0.6693 -0.2028 -0.0908
19559TIP3    H280093   3.664   6.594  12.777 -1.4226  3.6575 -1.0989
19560TIP3   OH280094   0.063   3.605   0.227  0.1283  0.3156  0.2475
19560TIP3    H180095   0.110   3.639   0.303 -0.9088  0.0839  1.0217
19560TIP3    H280096   0.028   3.683   0.183  0.0413  0.4110  0.4836
19561TIP3   OH280097   0.089   1.343   5.060  0.0595  0.4160  0.2263
19561TIP3    H180098   0.117   1.254   5.040 -2.4245 -0.4055  0.0999
19561TIP3    H280099   0.112   1.393   4.981  2.9088  0.3330  0.8961
19562TIP3   OH280100   2.712   2.262   1.391 -0.3917  0.1816 -0.0899
19562TIP3    H180101   2.703   2.288   1.300  0.4685 -0.6700 -0.4341
19562TIP3    H280102   2.697   2.167   1.391  0.9185 -0.0503  0.4291
19563TIP3   OH280103   6.541   0.077  16.047 -0.0005 -0.0797 -0.3243
19563TIP3    H180104   6.629   0.115  16.046  0.9668 -2.0019  2.0401
19563TIP3    H280105   6.530   0.039  15.960  1.6675 -0.1195 -0.5372
19564TIP3   OH280106   4.093   3.645  11.998 -0.3113  0.3020  0.0003
19564TIP3    H180107   4.078   3.662  11.905  1.4016  2.0904 -0.0283
19564TIP3    H280108   4.148   3.567  11.999  1.1484  1.2746 -0.6539
19565TIP3   OH280109   0.535   0.126  12.752  0.3457  0.7486 -0.1675
19565TIP3    H180110   0.610   0.171  12.791  0.5959  0.8061 -0.7081
19565TIP3    H280111   0.569   0.086  12.672 -0.0158  0.1031 -0.0098
19566TIP3   OH280112   6.382   6.518  15.268 -0.2140  0.2740  0.0609
19566TIP3    H180113   6.320   6.591  15.274  0.3693  0.7260  0.7315
19566TIP3    H280114   6.402   6.512  15.174 -1.2513  0.1179 -0.1726
19567TIP3   OH280115   2.638   1.025   5.587  0.1720  0.4821  0.1981
19567TIP3    H180116   2.655   1.003   5.495  0.3393 -1.6826  0.7129
19567TIP3    H280117   2.549   0.995   5.603  0.3214  0.3877  0.8885
19568TIP3   OH280118   2.912   5.677  15.508  0.3209 -0.3811  0.1217
19568TIP3    H180119   3.005   5.698  15.513  0.4809 -0.7745 -0.9155
19568TIP3    H280120   2.883   5.715  15.425 -0.7653  0.9048  1.0406
19569TIP3   OH280121   5.174   1.670  11.123 -0.1567 -0.2450  0.2140
19569TIP3    H180122   5.205   1.580  11.132  0.1135 -0.3335 -1.2633
19569TIP3    H280123   5.128   1.671  11.039 -0.5107  0.8994  0.4037
19570TIP3   OH280124   3.311   1.907  14.470  0.3149  0.0551  0.5616
19570TIP3    H180125   3.241   1.950  14.520  1.0574  0.2675  1.4451
19570TIP3    H280126   3.391   1.953  14.497  0.7556  0.0542 -0.7095
19571TIP3   OH280127   2.256   0.008   0.152  0.2857 -0.3417  0.2400
19571TIP3    H180128   2.197   0.081   0.173  1.3244  0.0792  1.9287
19571TIP3    H280129   2.340   0.050   0.134  0.6569 -1.0664  0.2705
19572TIP3   OH280130   0.877   0.198  15.354 -0.0525 -0.0872  0.4737
19572TIP3    H180131   0.940   0.129  15.337 -0.4991 -0.3976  0.0484
19572TIP3    H280132   0.918   0.277  15.318  0.5887 -0.0622  1.2308
19573TIP3   OH280133   4.150   0.543   5.793  0.5071  0.4195  0.2141
19573TIP3    H180134   4.134   0.489   5.716 -0.3928 -0.0574  0.7315
19573TIP3    H280135   4.087   0.615   5.786  0.6270  0.5409  0.3603
19574TIP3   OH280136   1.044   0.289  16.893 -0.1013 -0.4465  0.0168
19574TIP3    H180137   1.100   0.212  16.882 -0.9273 -0.8464 -1.7850
19574TIP3    H280138   1.063   0.343  16.816 -1.2347  0.0135  0.0416
19575TIP3   OH280139   4.075   4.956   0.618 -0.1756 -0.2549  0.1960
19575TIP3    H180140   4.080   5.023   0.687  1.5030 -0.0230 -0.1009
19575TIP3    H280141   4.042   4.879   0.663  1.6034 -0.3349  1.5087
19576TIP3   OH280142   2.097   5.618  16.808  0.0659  0.5743 -0.4437
19576TIP3    H180143   2.008   5.648  16.823 -0.3389 -0.0232 -1.5582
19576TIP3    H280144   2.152   5.691  16.838 -0.6369 -0.0942  2.9344
19577TIP3   OH280145   2.464   1.859  12.484 -0.1582  0.2591 -0.6718
19577TIP3    H180146   2.391   1.805  12.454  1.5848 -2.4965 -0.3165
19577TIP3    H280147   2.480   1.830  12.573  2.0337 -0.0304 -1.1098
19578TIP3   OH280148   0.944   0.712   1.928  0.1323 -0.1411 -0.2711
19578TIP3    H180149   1.027   0.667   1.938 -0.4596 -0.8473  2.1919
19578TIP3    H280150   0.898   0.697   2.011 -2.0848  0.9676 -1.2009
19579TIP3   OH280151   3.213   6.597  17.168 -0.2503  0.2807 -0.1809
19579TIP3    H180152   3.219   6.504  17.188  1.7735  0.7690  1.9367
19579TIP3    H280153   3.292   6.615  17.117  1.3390  1.3897  2.4505
19580TIP3   OH280154   3.015   1.330  12.197  0.1276 -0.1742  0.1569
19580TIP3    H180155   3.092   1.281  12.224  0.6257  0.8999  0.7509
19580TIP3    H280156   3.007   1.313  12.103  0.4982 -1.0818  0.2811
19581TIP3   OH280157   0.731   1.199  11.993 -0.2846  0.3707  0.0260
19581TIP3    H180158   0.677   1.126  12.023  0.0146  0.8172  1.7207
19581TIP3    H280159   0.739   1.185  11.898 -1.7154 -0.7832  0.0457
19582TIP3   OH280160   6.633   1.674  13.802 -0.5572  0.4047  0.0408
19582TIP3    H180161   6.684   1.672  13.883  1.5664 -0.5433 -1.2131
19582TIP3    H280162   6.598   1.763  13.797 -0.2631  0.6387  1.7011
19583TIP3   OH280163   6.050   3.038   0.428  0.4765 -0.1229  0.4155
19583TIP3    H180164   6.111   2.991   0.371 -0.1893 -2.0373  1.1962
19583TIP3    H280165   6.064   3.000   0.515 -0.2060  1.0419  1.0566
19584TIP3   OH280166   2.321   4.124  12.366  0.0284  0.3930 -0.0515
19584TIP3    H180167   2.396   4.100  12.421  1.0454  0.8906 -1.1784
19584TIP3    H280168   2.305   4.216  12.387 -0.1787  0.3297  0.0738
19585TIP3   OH280169   1.357   1.957   3.701 -0.7565 -0.4846  0.7585
19585TIP3    H180170   1.358   1.861   3.699 -0.0686 -0.4613 -0.6950
19585TIP3    H280171   1.436   1.981   3.749  0.1823 -0.6349 -0.6696
19586TIP3   OH280172   5.664   2.374  16.297 -0.2663 -0.6124  0.3224
19586TIP3    H180173   5.649   2.459  16.256  0.5691  0.6007  2.4043
19586TIP3    H280174   5.755   2.377  16.328 -1.0102 -1.1434  2.8204
19587TIP3   OH280175   3.103   2.294   3.395  0.1351  0.2332  0.1341
19587TIP3    H180176   3.109   2.218   3.337 -1.8456 -0.2915  0.5495
19587TIP3    H280177   3.101   2.369   3.336  1.8051 -0.0138 -0.2922
19588TIP3   OH280178   5.047   4.772  16.462  0.1040 -0.1871  0.4578
19588TIP3    H180179   5.043   4.791  16.556  1.0908  1.3846  0.2224
19588TIP3    H280180   4.984   4.833  16.423  0.7036  0.1466 -0.0107
19589TIP3   OH280181   0.951   4.688   0.932 -0.7056 -0.1870  0.0457
19589TIP3    H180182   0.881   4.750   0.952  1.0352  1.5929  1.0338
19589TIP3    H280183   1.018   4.706   0.998  1.6158 -0.2400 -2.1521
19590TIP3   OH280184   2.114   5.531  15.750  0.3499  0.2321  0.2878
19590TIP3    H180185   2.043   5.594  15.757 -0.3343 -0.6590  1.8275
19590TIP3    H280186   2.071   5.447  15.733  1.1991  0.0293 -1.0355
19591TIP3   OH280187   2.449   0.571   1.014 -0.0775  0.2212  0.0035
19591TIP3    H180188   2.393   0.633   1.059 -1.7403 -2.1936  1.4692
19591TIP3    H280189   2.389   0.519   0.960  1.0166 -1.0629 -0.0281
19592TIP3   OH280190   3.774   2.899  17.290 -0.0630 -0.2445  0.3453
19592TIP3    H180191   3.835   2.905  17.216 -0.6331 -1.4510 -0.2502
19592TIP3    H280192   3.693   2.937  17.257  0.0296  0.3293  0.7652
19593TIP3   OH280193   6.476   5.285  17.246 -0.0725 -0.3808  0.3320
19593TIP3    H180194   6.469   5.285  17.342  1.1163  2.3354  0.4899
19593TIP3    H280195   6.433   5.203  17.220 -0.7081 -1.0675  3.1390
19594TIP3   OH280196   2.144   1.213   4.502 -0.3011 -0.1365  0.0314
19594TIP3    H180197   2.168   1.185   4.414  0.8688 -0.9248  0.5614
19594TIP3    H280198   2.093   1.140   4.537  0.5023 -0.5001  0.4952
19595TIP3   OH280199   4.254   2.952  14.620 -0.3232 -0.6871  0.0042
19595TIP3    H180200   4.228   2.923  14.708  1.3608 -1.0313  0.4143
19595TIP3    H280201   4.171   2.964  14.574 -1.2592 -0.2384  1.7136
19596TIP3   OH280202   3.690   4.041  16.839  0.5487  0.5799 -0.0967
19596TIP3    H180203   3.648   3.971  16.889  1.9474  0.7024  1.2986
19596TIP3    H280204   3.657   4.121  16.880  0.3258  0.7252 -0.5497
19597TIP3   OH280205   5.135   3.578  13.304  0.1509 -0.3054  0.2155
19597TIP3    H180206   5.083   3.544  13.377  0.0232 -0.0440  0.2453
19597TIP3    H280207   5.102   3.530  13.227 -0.9972  0.7255  0.0298
19598TIP3   OH280208   5.417   1.734  16.225 -0.2674 -0.2472 -0.1098
19598TIP3    H180209   5.340   1.790  16.223 -0.4373 -0.4829 -1.4948
19598TIP3    H280210   5.476   1.771  16.159  0.9020  0.0250  1.0350
19599TIP3   OH280211   5.645   2.957  10.558 -0.9768  1.0574  0.2445
19599TIP3    H180212   5.602   3.038  10.585  1.6319  2.6656 -0.0192
19599TIP3    H280213   5.729   2.959  10.604 -1.2884 -2.1591  1.1682
19600TIP3   OH280214   2.169   2.808   5.097  0.5382  0.2355 -0.4914
19600TIP3    H180215   2.169   2.903   5.109 -1.6984  0.2995 -0.5007
19600TIP3    H280216   2.145   2.773   5.183 -0.3417 -0.1919 -0.8946
19601TIP3   OH280217   6.314   6.203  14.411 -0.3291 -0.1701 -0.0631
19601TIP3    H180218   6.350   6.122  14.449 -0.1538  0.3726  0.9770
19601TIP3    H280219   6.289   6.255  14.487 -1.3366  0.3621 -0.7469
19602TIP3   OH280220   1.358   1.943   5.797 -0.4030  0.3954 -0.0375
19602TIP3    H180221   1.297   1.960   5.726 -2.9290 -1.4442  1.5477
19602TIP3    H280222   1.311   1.969   5.876  0.7206 -1.3663  1.2783
19603TIP3   OH280223   2.194   1.204  15.981  0.1069 -0.4990  0.1033
19603TIP3    H180224   2.128   1.263  15.945  1.4843  1.8264  1.2144
19603TIP3    H280225   2.252   1.186  15.907  0.8139  1.2172  0.2091
19604TIP3   OH280226   4.028   5.090   0.872  0.2806  0.0938 -0.3983
19604TIP3    H180227   3.963   5.160   0.865  0.0570 -0.2066 -1.4541
19604TIP3    H280228   3.980   5.018   0.915 -0.4782 -0.5452 -2.2019
19605TIP3   OH280229   4.368   6.208  13.317  0.5742  0.0442  0.0464
19605TIP3    H180230   4.325   6.188  13.401 -0.2579  1.2389 -0.0618
19605TIP3    H280231   4.373   6.124  13.272 -0.7834 -0.3114  0.4879
19606TIP3   OH280232   5.762   4.139  11.255 -0.3669  0.0649 -0.0741
19606TIP3    H180233   5.713   4.092  11.187 -3.2784  0.4712  1.5824
19606TIP3    H280234   5.765   4.078  11.328 -0.2666  0.8440  0.5763
19607TIP3   OH280235   0.079   1.589  12.833  0.0119 -0.1960 -0.2377
19607TIP3    H180236   0.105   1.673  12.796  1.1351  0.6009  2.1205
19607TIP3    H280237   0.010   1.610  12.895  0.1441 -1.0284  0.2105
19608TIP3   OH280238   2.316   3.100  16.169 -0.3036  0.5034  0.1408
19608TIP3    H180239   2.372   3.029  16.199 -0.2186  0.6688  0.3760
19608TIP3    H280240   2.249   3.057  16.116  1.1112  0.4801 -1.7247
19609TIP3   OH280241   0.645   4.499  16.475 -0.1786  0.1588 -0.5746
19609TIP3    H180242   0.639   4.577  16.421 -1.7630  0.5701  0.1459
19609TIP3    H280243   0.554   4.479  16.499  0.3646 -0.7317  0.8918
19610TIP3   OH280244   1.840   0.211   4.242  0.3299 -0.4017 -0.2223
19610TIP3    H180245   1.807   0.245   4.158  1.3737  0.0611 -0.4657
19610TIP3    H280246   1.764   0.215   4.300  0.2358  1.8788 -0.4009
19611TIP3   OH280247   3.520   1.759   1.943  0.6778 -0.4882 -0.3390
19611TIP3    H180248   3.461   1.724   1.877  0.9952  1.6651 -1.8615
19611TIP3    H280249   3.463   1.790   2.013  0.0752  0.3216 -1.1733
19612TIP3   OH280250   5.378   1.265  16.181  0.2143  0.2975  0.2806
19612TIP3    H180251   5.407   1.270  16.272  1.9611 -1.0630 -0.1531
19612TIP3    H280252   5.283   1.268  16.186  0.2403 -0.6767  2.2286
19613TIP3   OH280253   3.695   5.201   2.884 -0.0157 -0.3955  0.1296
19613TIP3    H180254   3.654   5.282   2.854 -0.1355  0.0395  1.4092
19613TIP3    H280255   3.736   5.164   2.805 -0.0978  0.8163 -0.5059
19614TIP3   OH280256   5.575   1.700   1.314  0.3099 -1.0665  0.0292
19614TIP3    H180257   5.549   1.697   1.222  1.0022 -1.1717 -0.1739
19614TIP3    H280258   5.503   1.743   1.358  0.2858 -0.3385 -0.6918
19615TIP3   OH280259   0.509   5.188  14.889 -0.7115 -0.1244 -0.2325
19615TIP3    H180260   0.428   5.205  14.937  0.2882 -0.2312  1.5602
19615TIP3    H280261   0.576   5.237  14.937  0.6967 -1.9454 -0.2225
19616TIP3   OH280262   2.373   6.264   1.574 -0.2248  0.0139 -0.0422
19616TIP3    H180263   2.337   6.244   1.488  3.2447  0.5326 -1.7872
19616TIP3    H280264   2.394   6.178   1.612 -1.6583 -0.2103  0.2867
19617TIP3   OH280265   5.860   6.027   1.634  0.1840 -0.1528  0.6354
19617TIP3    H180266   5.886   5.938   1.610 -0.4785 -0.1716 -0.0532
19617TIP3    H280267   5.915   6.048   1.709  1.4133 -0.5820 -0.1148
19618TIP3   OH280268   0.284   6.123   5.870 -0.5175  0.2515  0.4190
19618TIP3    H180269   0.273   6.175   5.950  0.3500  0.3655  0.4675
19618TIP3    H280270   0.353   6.060   5.892 -1.1331 -0.5360  0.1631
19619TIP3   OH280271   3.020   3.553  10.526  0.1565 -0.1309 -0.0127
19619TIP3    H180272   3.080   3.627  10.522 -0.2237  0.2057  0.4492
19619TIP3    H280273   3.064   3.489  10.582  0.4684 -0.2442 -0.3825
19620TIP3   OH280274   5.457   5.530   5.826  0.0942  0.2809  0.2644
19620TIP3    H180275   5.534   5.498   5.780  0.4394  0.7710  0.4948
19620TIP3    H280276   5.429   5.457   5.881  0.1228 -0.0495 -0.1629
19621TIP3   OH280277   0.610   2.596   2.912 -0.1763  0.0862  0.7391
19621TIP3    H180278   0.622   2.688   2.938 -0.4884  0.0455  1.0306
19621TIP3    H280279   0.615   2.598   2.816  0.3112  0.3345  0.7644
19622TIP3   OH280280   5.917   0.240   5.754 -0.0393  0.0687 -0.1024
19622TIP3    H180281   5.963   0.204   5.829  1.1816  1.4709 -0.1277
19622TIP3    H280282   5.837   0.188   5.747  0.8215 -1.4599  0.8624
19623TIP3   OH280283   4.061   1.548  14.339 -0.2194 -0.3499 -0.1063
19623TIP3    H180284   4.037   1.533  14.430 -0.0940 -1.3261 -0.2272
19623TIP3    H280285   4.127   1.618  14.344 -1.3395  0.7033  0.4035
19624TIP3   OH280286   0.288   2.094   3.483 -0.3087 -0.1363 -0.3115
19624TIP3    H180287   0.241   2.176   3.500  0.6186  0.3607 -0.0645
19624TIP3    H280288   0.254   2.065   3.399 -0.4085  0.6827 -0.5698
19625TIP3   OH280289   4.047   1.060  12.603 -0.2135  0.4713  0.1544
19625TIP3    H180290   4.090   1.080  12.687 -0.1515 -1.0203  0.5108
19625TIP3    H280291   3.998   0.980  12.620 -0.4886  0.3454 -1.1492
19626TIP3   OH280292   0.612   5.410  12.727 -0.5150  0.0281  0.1954
19626TIP3    H180293   0.537   5.354  12.748  0.3320 -1.3649 -0.3709
19626TIP3    H280294   0.657   5.424  12.810  0.1910 -1.5467  0.1124
19627TIP3   OH280295   5.398   3.261  15.182 -0.1623  0.2648 -0.1727
19627TIP3    H180296   5.483   3.217  15.176 -0.0527 -0.0786  2.5106
19627TIP3    H280297   5.418   3.345  15.222 -1.0162  0.4315 -0.0853
19628TIP3   OH280298   1.658   1.353  14.744 -0.1181  0.9849  0.2755
19628TIP3    H180299   1.613   1.358  14.660 -1.2571  1.4454  0.8972
19628TIP3    H280300   1.595   1.313  14.804  0.7681  0.4205  0.8609
19629TIP3   OH280301   5.802   6.215  12.759  0.2756 -0.1957  0.2135
19629TIP3    H180302   5.833   6.291  12.710  0.3541  1.7056  3.0260
19629TIP3    H280303   5.880   6.180  12.801  0.0091 -0.9724  0.0767
19630TIP3   OH280304   3.103   6.559  10.648  0.2552 -0.0968 -0.2683
19630TIP3    H180305   3.045   6.483  10.651 -1.0589  0.8731 -0.0104
19630TIP3    H280306   3.189   6.523  10.627 -0.6374 -1.4639 -1.8128
19631TIP3   OH280307   1.095   4.181   3.940 -0.2754 -0.3567  0.1698
19631TIP3    H180308   1.143   4.194   4.022 -1.2644 -0.5880  0.7913
19631TIP3    H280309   1.101   4.087   3.923  0.2195 -0.2613 -0.2130
19632TIP3   OH280310   6.197   1.912  13.035  0.4117  0.3056 -0.7840
19632TIP3    H180311   6.102   1.924  13.026  0.3306  0.9551  0.6462
19632TIP3    H280312   6.225   1.989  13.085  1.3846 -0.8600  0.5235
19633TIP3   OH280313   1.066   1.125  13.082 -0.0390  0.2084 -0.3823
19633TIP3    H180314   0.989   1.182  13.087  0.5100  0.9726 -0.4297
19633TIP3    H280315   1.066   1.093  12.992  0.1445  0.8635 -0.6246
19634TIP3   OH280316   5.242   6.358  14.866  0.3505 -0.2377  0.1954
19634TIP3    H180317   5.284   6.309  14.795  1.4520  0.0864  0.5957
19634TIP3    H280318   5.257   6.304  14.944 -0.5731 -0.4379  0.2410
19635TIP3   OH280319   1.211   0.305  14.790 -0.0987 -0.1951  0.3128
19635TIP3    H180320   1.286   0.307  14.731 -0.0121 -0.0437  0.4292
19635TIP3    H280321   1.139   0.343  14.738 -0.1054 -0.3713  0.1893
19636TIP3   OH280322   5.739   0.647   0.331  0.2148 -0.1637  0.4844
19636TIP3    H180323   5.723   0.626   0.423 -0.1786 -0.0463  0.4450
19636TIP3    H280324   5.667   0.606   0.284  0.3107 -0.0625  0.2472
19637TIP3   OH280325   0.705   6.245  17.328 -0.4988 -0.1589  0.2517
19637TIP3    H180326   0.646   6.319  17.344  0.1210  0.5211 -0.5302
19637TIP3    H280327   0.765   6.247  17.403  1.1389  1.7763 -0.9921
19638TIP3   OH280328   3.732   1.760   6.027 -0.2344  0.2132 -0.2264
19638TIP3    H180329   3.793   1.692   5.998  0.2696 -0.3749  1.9973
19638TIP3    H280330   3.775   1.842   6.004  0.7965 -0.2115  0.1102
19639TIP3   OH280331   4.626   0.216  17.279  0.0426  0.5904 -0.1442
19639TIP3    H180332   4.543   0.226  17.326  0.3489  0.5347  0.4266
19639TIP3    H280333   4.603   0.223  17.187 -0.8479 -1.1096 -0.0754
19640TIP3   OH280334   4.653   5.804  12.636  0.2651 -0.2941 -0.0630
19640TIP3    H180335   4.713   5.774  12.704 -0.6927 -1.5043  0.2708
19640TIP3    H280336   4.710   5.822  12.560  1.0685 -1.2547  0.2909
19641TIP3   OH280337   5.726   1.817  17.338  0.2171 -0.4552 -0.2335
19641TIP3    H180338   5.764   1.765  17.408  1.7587 -1.2131 -1.5681
19641TIP3    H280339   5.726   1.759  17.262 -2.2331  0.0537 -0.6819
19642TIP3   OH280340   2.596   0.435   4.375 -0.0259 -0.4726 -0.0494
19642TIP3    H180341   2.640   0.506   4.422  1.1477 -0.7686 -0.6766
19642TIP3    H280342   2.663   0.399   4.318 -1.4092 -0.1339 -1.9723
19643TIP3   OH280343   5.616   0.550   5.573  0.5076 -0.9400 -0.2046
19643TIP3    H180344   5.564   0.470   5.582 -0.5240 -0.3492 -0.7708
19643TIP3    H280345   5.674   0.532   5.499 -0.3930 -0.8344 -0.9622
19644TIP3   OH280346   1.599   2.558  16.597  0.1088 -0.0411  0.6938
19644TIP3    H180347   1.681   2.571  16.549 -0.8362 -2.3457 -1.8445
19644TIP3    H280348   1.532   2.592  16.538 -1.1533 -3.3101  0.0349
19645TIP3   OH280349   0.086   4.188  17.280  0.3041  0.2089  0.2098
19645TIP3    H180350   0.160   4.204  17.339 -0.1011 -1.1766  1.1266
19645TIP3    H280351   0.070   4.094  17.286 -1.6811  0.5054  0.2074
19646TIP3   OH280352   3.717   2.852   0.619  0.9831 -0.6560  0.4304
19646TIP3    H180353   3.646   2.890   0.671  0.6001 -0.9092  0.0975
19646TIP3    H280354   3.737   2.769   0.662  1.2197 -0.4875  0.6455
19647TIP3   OH280355   3.314   1.581  14.521  0.5995 -0.4118  0.1657
19647TIP3    H180356   3.387   1.522  14.541 -0.3965 -1.9404 -0.4846
19647TIP3    H280357   3.296   1.567  14.428 -0.8720 -0.5067  0.4367
19648TIP3   OH280358   0.895   3.642  11.428  0.2306 -0.0968  0.1193
19648TIP3    H180359   0.802   3.647  11.450  0.1259  2.6981 -0.6066
19648TIP3    H280360   0.940   3.667  11.508  0.2229  0.8535 -0.1571
19649TIP3   OH280361   3.059   4.031  17.065 -0.2228 -0.4172  0.0303
19649TIP3    H180362   2.994   4.100  17.057 -0.1826 -0.1646  1.6629
19649TIP3    H280363   3.123   4.065  17.128 -1.0579 -2.5543  2.1495
19650TIP3   OH280364   5.009   3.232   1.854  0.5678 -0.3391  0.1209
19650TIP3    H180365   5.042   3.144   1.871  0.2372 -0.2485  1.3836
19650TIP3    H280366   5.088   3.286   1.847  0.7502 -0.5801  0.2887
19651TIP3   OH280367   6.434   3.936   1.154 -0.3314 -0.3353 -0.6921
19651TIP3    H180368   6.414   4.001   1.086 -0.6854  0.8390  0.4955
19651TIP3    H280369   6.506   3.975   1.203 -0.8494 -0.6200  0.3187
19652TIP3   OH280370   3.173   2.375  14.497 -0.2589  0.8407  0.2214
19652TIP3    H180371   3.200   2.376  14.405 -0.4470 -0.5440  0.1385
19652TIP3    H280372   3.081   2.401  14.495  0.1325  2.3561  0.1970
19653TIP3   OH280373   3.962   0.214   2.583 -0.1612  0.1159  0.3173
19653TIP3    H180374   3.951   0.290   2.641 -1.8722 -1.0681  1.6955
19653TIP3    H280375   4.056   0.210   2.566 -0.0075  2.4914  0.2106
19654TIP3   OH280376   2.183   6.616  11.662  0.0526  0.6686  0.3597
19654TIP3    H180377   2.159   6.547  11.600  2.2208 -0.2340  0.4388
19654TIP3    H280378   2.128   6.601  11.738 -1.4681  0.7708 -0.6858
19655TIP3   OH280379   5.807   3.067  16.346 -0.6153 -0.2565  0.0637
19655TIP3    H180380   5.784   3.056  16.438 -0.0977  1.1103  0.3820
19655TIP3    H280381   5.753   3.141  16.316 -0.1270 -0.1065 -0.4680
19656TIP3   OH280382   3.599   3.349   3.662  0.3496 -0.4003 -0.1738
19656TIP3    H180383   3.583   3.416   3.728  1.1635 -0.1220 -0.2487
19656TIP3    H280384   3.514   3.307   3.649 -0.1382  0.5254 -0.0297
19657TIP3   OH280385   4.959   4.929  12.290  0.2496  0.0277  0.1144
19657TIP3    H180386   4.984   4.876  12.214 -0.3156 -0.8848  0.5463
19657TIP3    H280387   4.908   4.869  12.345  1.7267  0.2775  1.8476
19658TIP3   OH280388   1.580   0.145  11.836  0.4094  0.0873  0.0450
19658TIP3    H180389   1.516   0.111  11.900  0.0064 -2.0762 -1.4137
19658TIP3    H280390   1.574   0.240  11.846 -0.9632 -0.1213  1.9423
19659TIP3   OH280391   2.854   2.841   3.109 -0.1668 -0.1314 -0.5010
19659TIP3    H180392   2.880   2.883   3.191 -1.3106  1.0454 -0.7167
19659TIP3    H280393   2.865   2.908   3.042 -0.8870 -0.5344 -1.0394
19660TIP3   OH280394   2.301   2.182  16.948  0.3643  0.2108  0.0489
19660TIP3    H180395   2.314   2.165  16.854 -1.3856  0.0318 -0.2104
19660TIP3    H280396   2.264   2.271  16.951 -2.7383 -0.9466  0.1868
19661TIP3   OH280397   5.443   5.195   1.308 -0.3183  0.2371  0.1594
19661TIP3    H180398   5.390   5.155   1.239 -0.6535 -1.2998  1.2436
19661TIP3    H280399   5.469   5.279   1.273 -1.4710 -0.0004 -1.3652
19662TIP3   OH280400   2.826   2.207   0.676  0.1061  0.3683  0.0953
19662TIP3    H180401   2.866   2.201   0.762  1.2816 -1.4988 -0.5143
19662TIP3    H280402   2.761   2.136   0.675  1.1181 -0.5829 -1.0183
19663TIP3   OH280403   6.560   2.045   5.331  0.6623  0.0538 -0.5393
19663TIP3    H180404   6.629   1.991   5.371  1.3594  0.3049 -1.3866
19663TIP3    H280405   6.607   2.115   5.287 -0.0385 -0.6043 -2.4015
19664TIP3   OH280406   2.300   5.936  11.717  0.6006 -0.4209  0.4550
19664TIP3    H180407   2.389   5.929  11.749  0.1748 -2.0053  1.3704
19664TIP3    H280408   2.247   5.951  11.796  0.0694  0.8935 -0.1131
19665TIP3   OH280409   0.811   0.354  10.798  0.1986  0.4959  0.2917
19665TIP3    H180410   0.802   0.343  10.892  0.3116  4.1624  0.9051
19665TIP3    H280411   0.788   0.446  10.783 -0.0033  0.0065 -3.3021
19666TIP3   OH280412   6.554   2.781  13.782  0.4304 -0.0040 -0.1877
19666TIP3    H180413   6.618   2.851  13.792  0.0820  0.2382  0.3942
19666TIP3    H280414   6.556   2.759  13.689  0.4354  0.8811 -0.4066
19667TIP3   OH280415   0.514   5.528  16.388  0.4528  0.1599 -0.6086
19667TIP3    H180416   0.456   5.458  16.418  0.9042  0.3310  0.7404
19667TIP3    H280417   0.459   5.606  16.387  0.4231  0.1470 -0.2114
19668TIP3   OH280418   2.689   2.039   5.495  0.0973  0.2732  0.1880
19668TIP3    H180419   2.645   2.086   5.424 -1.0305 -0.8134  0.1370
19668TIP3    H280420   2.769   2.004   5.454 -1.1105 -1.3354 -0.9124
19669TIP3   OH280421   6.234   3.633   5.691  0.2605  0.2411  0.1295
19669TIP3    H180422   6.211   3.629   5.783 -0.3092 -0.8146 -0.0408
19669TIP3    H280423   6.156   3.668   5.648  0.2141 -0.0631 -0.0423
19670TIP3   OH280424   4.893   2.490   4.245 -0.3560 -0.4011  0.1524
19670TIP3    H180425   4.905   2.564   4.305  0.3895 -0.4212  0.0278
19670TIP3    H280426   4.980   2.451   4.236 -0.1931  0.3117 -1.8832
19671TIP3   OH280427   4.027   1.630   5.687  0.2299  0.0011 -0.3911
19671TIP3    H180428   3.993   1.648   5.775  1.2885  2.4207 -0.3934
19671TIP3    H280429   4.100   1.569   5.701  1.8291  2.0469  0.7640
19672TIP3   OH280430   1.372   3.520   1.718  0.2159  0.0268 -0.0052
19672TIP3    H180431   1.424   3.522   1.798 -0.1599  1.1562  0.2292
19672TIP3    H280432   1.428   3.562   1.652  0.8249 -1.5647 -0.5483
19673TIP3   OH280433   0.338   3.234  12.985  0.1016  0.1701  0.1394
19673TIP3    H180434   0.334   3.139  12.972 -2.1655  0.1530  0.5134
19673TIP3    H280435   0.268   3.268  12.929  1.2064  1.7079 -0.3883
19674TIP3   OH280436   6.610   0.276   5.818 -0.5470 -0.0109 -0.2256
19674TIP3    H180437   6.541   0.267   5.884  1.5403 -0.8316  2.0420
19674TIP3    H280438   6.641   0.186   5.804 -0.0816  0.3114 -1.3739
19675TIP3   OH280439   4.241   3.093   2.550  0.0568 -0.3438  0.1843
19675TIP3    H180440   4.216   3.171   2.501  0.5549 -0.0013  0.4609
19675TIP3    H280441   4.251   3.024   2.484  2.0051  0.4221 -0.3994
19676TIP3   OH280442   5.881   2.427  17.079 -0.1566  0.0884 -0.2061
19676TIP3    H180443   5.940   2.412  17.005 -0.1523 -2.5816  0.2328
19676TIP3    H280444   5.799   2.456  17.039  0.8790  2.2595 -0.9276
19677TIP3   OH280445   3.158   1.886   3.935 -0.2322  0.2218 -0.0535
19677TIP3    H180446   3.211   1.965   3.950 -0.2159 -0.0913  1.8637
19677TIP3    H280447   3.096   1.885   4.008 -1.0439 -0.8979 -0.7280
19678TIP3   OH280448   5.278   4.214   3.278  0.5823  0.1463 -0.2078
19678TIP3    H180449   5.193   4.236   3.315 -0.0832 -0.2965 -1.4152
19678TIP3    H280450   5.336   4.284   3.307 -0.1479  0.3607  0.7737
19679TIP3   OH280451   6.470   0.609  14.381 -0.2652 -0.9397 -0.6109
19679TIP3    H180452   6.501   0.524  14.352  1.0548 -0.3984 -0.8489
19679TIP3    H280453   6.529   0.672  14.339 -0.6926  0.0456  0.2182
19680TIP3   OH280454   6.284   6.389   3.063  0.5394 -0.2177 -0.8425
19680TIP3    H180455   6.245   6.340   3.135 -0.7338 -1.0202 -2.0324
19680TIP3    H280456   6.378   6.372   3.071  0.6537  1.1458  1.6321
19681TIP3   OH280457   2.982   4.857  11.436 -0.1110 -0.1859 -0.4247
19681TIP3    H180458   3.057   4.912  11.413 -0.7773  0.5902 -0.7596
19681TIP3    H280459   3.001   4.772  11.394  0.5133  0.0395 -0.6112
19682TIP3   OH280460   4.417   0.157  10.852 -0.3636 -0.3617  0.8391
19682TIP3    H180461   4.479   0.205  10.908  1.7160 -0.5575 -1.1810
19682TIP3    H280462   4.456   0.071  10.842 -1.9413 -1.1206  0.9968
19683TIP3   OH280463   1.563   2.770  13.753 -0.4993  0.2000  0.2878
19683TIP3    H180464   1.603   2.707  13.692 -1.2184  0.3302 -0.3356
19683TIP3    H280465   1.533   2.717  13.826 -0.7465 -0.1380 -0.0509
19684TIP3   OH280466   5.066   3.571   2.024 -0.0581 -0.4093  0.0954
19684TIP3    H180467   5.041   3.654   2.066  2.3480  0.6243 -0.3222
19684TIP3    H280468   5.029   3.503   2.080  0.4202  0.9521  2.1800
19685TIP3   OH280469   0.308   4.705   3.430 -0.2573  0.1008 -0.3371
19685TIP3    H180470   0.256   4.693   3.509  1.6745 -0.2567  0.9364
19685TIP3    H280471   0.310   4.618   3.390  3.1526 -1.2011  2.1529
19686TIP3   OH280472   2.068   4.339  10.587 -0.7828  0.0990  0.0416
19686TIP3    H180473   2.013   4.401  10.636 -0.3127 -0.9938  2.0631
19686TIP3    H280474   2.154   4.345  10.630  0.2938  0.6600 -2.0765
19687TIP3   OH280475   4.440   3.864  12.626 -0.0211 -0.0484 -0.1567
19687TIP3    H180476   4.529   3.893  12.644 -0.3353  0.5713  0.4829
19687TIP3    H280477   4.417   3.810  12.702 -0.2017 -0.1625 -0.2928
19688TIP3   OH280478   0.383   4.079   3.768 -0.0428 -0.0184 -0.1615
19688TIP3    H180479   0.453   4.013   3.765 -0.1736 -0.4918  3.2559
19688TIP3    H280480   0.310   4.038   3.722  1.0832 -0.6126 -1.4927
19689TIP3   OH280481   5.073   5.191  16.424 -0.1322 -0.7792  0.7469
19689TIP3    H180482   5.092   5.279  16.391  1.0922 -1.2605  0.1018
19689TIP3    H280483   5.145   5.172  16.485  0.7936 -2.1076 -0.6800
19690TIP3   OH280484   0.208   1.494  13.137  0.0098 -0.1081  0.7920
19690TIP3    H180485   0.190   1.520  13.047 -0.2083  0.7641  1.0795
19690TIP3    H280486   0.294   1.453  13.134  0.8435  1.5712  0.4750
19691TIP3   OH280487   4.417   6.456   0.342 -0.0455  0.0852  0.0507
19691TIP3    H180488   4.441   6.432   0.253  0.1266  2.0095 -0.4753
19691TIP3    H280489   4.323   6.440   0.347 -0.1150  0.2549 -0.5917
19692TIP3   OH280490   3.322   4.875   4.143 -0.1369  0.2131  0.5050
19692TIP3    H180491   3.248   4.936   4.147 -1.0764 -0.7652 -1.0962
19692TIP3    H280492   3.287   4.792   4.175  0.9323  0.2798  1.9513
19693TIP3   OH280493   6.542   6.327   0.238  0.1995  0.1468 -0.1908
19693TIP3    H180494   6.523   6.382   0.313  0.0740 -0.6585  0.3770
19693TIP3    H280495   6.606   6.377   0.187 -0.2883  1.0313  0.0484
19694TIP3   OH280496   2.156   5.170   1.305 -0.2166  0.2278 -0.0526
19694TIP3    H180497   2.189   5.213   1.384 -1.1154  1.5015 -0.3267
19694TIP3    H280498   2.175   5.078   1.318  0.1997  0.4869  1.3836
19695TIP3   OH280499   3.000   2.378  15.833  0.2348 -0.1845 -0.4876
19695TIP3    H180500   2.950   2.352  15.910  0.2163  0.8157 -0.1448
19695TIP3    H280501   3.092   2.372  15.861  0.3492 -2.2483 -1.1905
19696TIP3   OH280502   1.867   3.428  15.288  0.0957  0.4258  0.3230
19696TIP3    H180503   1.908   3.376  15.218  2.0126  1.5120  0.5499
19696TIP3    H280504   1.938   3.442  15.351 -0.3659  3.1398  0.3393
19697TIP3   OH280505   5.619   1.266   1.308 -0.1626  0.0009 -0.1552
19697TIP3    H180506   5.524   1.266   1.319 -0.0478  0.8096  1.0423
19697TIP3    H280507   5.644   1.174   1.318 -1.0292 -0.6660 -3.0588
19698TIP3   OH280508   4.443   1.731  16.110  0.0457 -0.0192 -0.3335
19698TIP3    H180509   4.429   1.786  16.033  2.2350  0.1114 -0.6948
19698TIP3    H280510   4.365   1.745  16.164 -1.1963  0.4618 -2.1555
19699TIP3   OH280511   6.163   0.119  14.722 -0.1458 -0.2427  0.3249
19699TIP3    H180512   6.096   0.141  14.657 -0.7681 -1.4053  0.5415
19699TIP3    H280513   6.114   0.098  14.801  0.5271 -0.3016  0.7340
19700TIP3   OH280514   5.578   1.259  15.432  0.4863  0.6126 -0.3947
19700TIP3    H180515   5.526   1.179  15.426 -0.5330  1.2686 -0.5590
19700TIP3    H280516   5.661   1.231  15.472  0.4614 -0.6529 -1.1781
19701TIP3   OH280517   2.323   4.277  13.345 -0.6445 -0.0075  0.5025
19701TIP3    H180518   2.237   4.261  13.308 -0.0192  1.5960 -1.8580
19701TIP3    H280519   2.354   4.191  13.373 -1.5802 -1.2027 -1.9260
19702TIP3   OH280520   5.211   0.809   0.843  0.3954 -0.7120  0.8735
19702TIP3    H180521   5.216   0.715   0.863  0.4179 -0.7414  0.7339
19702TIP3    H280522   5.291   0.846   0.879  1.1470 -1.0059 -0.4402
19703TIP3   OH280523   3.956   2.750  13.212  0.1378 -0.3180  0.1663
19703TIP3    H180524   3.945   2.797  13.295 -1.1672 -1.8999  0.9507
19703TIP3    H280525   3.886   2.784  13.156 -0.5533 -0.9981  0.5952
19704TIP3   OH280526   2.701   4.229   6.106 -0.0043 -0.2035  0.6072
19704TIP3    H180527   2.741   4.300   6.157 -2.2955  2.4396 -0.9762
19704TIP3    H280528   2.621   4.207   6.153  0.1613 -1.0253  0.5264
19705TIP3   OH280529   6.043   3.028   2.220 -0.0204 -0.2997 -0.4467
19705TIP3    H180530   6.039   3.017   2.315 -0.3120  1.9979 -0.1418
19705TIP3    H280531   5.997   2.952   2.185 -0.3250 -0.9427  1.2515
19706TIP3   OH280532   1.827   2.515  16.424  0.2514  0.1461  0.4977
19706TIP3    H180533   1.878   2.510  16.343  2.1542  0.6838  1.6200
19706TIP3    H280534   1.799   2.425  16.440 -1.3880  0.2143 -1.4450
19707TIP3   OH280535   1.148   5.352   3.196  0.9386  0.1292 -0.1383
19707TIP3    H180536   1.235   5.322   3.221  1.1815  0.2379 -0.8257
19707TIP3    H280537   1.132   5.428   3.251  0.6809 -0.7139  0.9983
19708TIP3   OH280538   1.544   5.801  10.831 -0.6348 -0.0978  0.0887
19708TIP3    H180539   1.559   5.709  10.809 -0.8260 -0.5036  1.5459
19708TIP3    H280540   1.499   5.837  10.755 -0.3846 -1.1624 -0.5788
19709TIP3   OH280541   1.389   6.442  10.592  0.3274 -0.0487 -0.0466
19709TIP3    H180542   1.441   6.503  10.540 -0.8266  1.1736  0.1623
19709TIP3    H280543   1.433   6.439  10.677  0.8591 -0.1592 -0.3239
19710TIP3   OH280544   6.690   1.258  12.392 -0.0040 -0.4270 -0.1651
19710TIP3    H180545   6.683   1.294  12.481  2.7590 -0.7675  0.2826
19710TIP3    H280546   6.677   1.164  12.403 -0.0483 -0.4232 -0.1857
19711TIP3   OH280547   0.897   5.851  11.589 -0.0230 -0.3944  0.1039
19711TIP3    H180548   0.892   5.836  11.494 -0.3529 -1.1256  0.2321
19711TIP3    H280549   0.810   5.828  11.622 -0.3325  1.1564  0.4221
19712TIP3   OH280550   6.744   6.451  12.314  0.0073 -0.0300  0.5287
19712TIP3    H180551   6.676   6.510  12.345  0.2197 -0.1734  1.2918
19712TIP3    H280552   6.752   6.470  12.220  0.2587  1.3388  0.8086
19713TIP3   OH280553   2.225   2.639  11.514  0.3172 -0.2560 -0.3463
19713TIP3    H180554   2.150   2.606  11.464 -1.1824  1.9350  0.2933
19713TIP3    H280555   2.198   2.726  11.542  2.3309 -0.2038  1.6890
19714TIP3   OH280556   6.179   0.646  17.205 -0.7398  0.4052  0.3387
19714TIP3    H180557   6.144   0.566  17.166  0.5073  0.2101 -0.4363
19714TIP3    H280558   6.175   0.710  17.134  0.8649  0.2484  0.0677
19715TIP3   OH280559   2.099   2.969   5.840  0.0037 -0.1469  0.0160
19715TIP3    H180560   2.128   2.894   5.788 -1.1718 -1.4414  1.1487
19715TIP3    H280561   2.180   3.012   5.868  0.6989 -0.9440 -0.7173
19716TIP3   OH280562   2.829   1.889  11.218 -0.2368  0.3915 -0.0301
19716TIP3    H180563   2.766   1.948  11.176 -1.3153  0.4786  1.5958
19716TIP3    H280564   2.862   1.834  11.147 -1.5662  0.8823 -1.0663
19717TIP3   OH280565   2.307   0.532  13.850 -0.4691  0.0204 -0.4642
19717TIP3    H180566   2.212   0.534  13.843 -0.5431 -1.6855 -0.3467
19717TIP3    H280567   2.337   0.507  13.762 -0.1327  0.3974 -0.4620
19718TIP3   OH280568   2.864   1.013  15.768 -0.1939 -0.1001 -0.5075
19718TIP3    H180569   2.869   0.938  15.708 -0.7981  0.3580 -1.1581
19718TIP3    H280570   2.771   1.020  15.789 -0.0851  0.2196 -0.1243
19719TIP3   OH280571   0.787   0.128  16.025 -0.5622  1.1184 -0.0620
19719TIP3    H180572   0.803   0.222  16.025 -1.1748  1.2405 -1.4315
19719TIP3    H280573   0.738   0.112  16.105 -0.0313  1.8822  0.4287
19720TIP3   OH280574   0.969   5.361   4.655 -0.5098  0.7600  0.1278
19720TIP3    H180575   1.030   5.417   4.704 -1.6265  0.7675  1.5758
19720TIP3    H280576   0.932   5.302   4.721  0.2403 -1.3948 -1.2603
19721TIP3   OH280577   6.378   5.143   3.013 -0.2779 -0.0745  0.2555
19721TIP3    H180578   6.413   5.135   3.102  0.2658  3.2857  0.4530
19721TIP3    H280579   6.452   5.174   2.961 -1.0720 -0.2502 -1.0086
19722TIP3   OH280580   0.472   2.124   1.271  0.3144  0.2828 -0.4495
19722TIP3    H180581   0.518   2.060   1.217 -0.3107 -1.4535  0.9945
19722TIP3    H280582   0.385   2.129   1.232 -0.8757 -2.6117  1.4757
19723TIP3   OH280583   2.856   1.570  13.443  0.1365 -0.8058  0.4394
19723TIP3    H180584   2.815   1.644  13.398 -1.6754 -0.7434  2.0812
19723TIP3    H280585   2.950   1.586  13.433 -0.1817  0.2377 -1.5417
19724TIP3   OH280586   2.896   3.038   5.484 -0.5041 -0.6189 -0.1593
19724TIP3    H180587   2.973   3.093   5.497 -1.6205  0.7234  1.0485
19724TIP3    H280588   2.854   3.035   5.570 -0.4101 -3.5255 -0.1188
19725TIP3   OH280589   3.974   6.740  14.410  0.3409 -0.1693 -0.0717
19725TIP3    H180590   3.930   6.688  14.343 -0.2957  2.0714 -1.4782
19725TIP3    H280591   4.067   6.724  14.395  0.1659 -1.0926 -0.2664
19726TIP3   OH280592   3.150   3.918   4.729 -0.7706 -0.0073  0.7615
19726TIP3    H180593   3.236   3.878   4.739 -0.7504 -0.1998 -0.1028
19726TIP3    H280594   3.165   4.012   4.736 -0.1948  0.0817 -1.1592
19727TIP3   OH280595   0.900   5.835   6.162 -0.2339  0.0100 -0.4200
19727TIP3    H180596   0.832   5.841   6.096 -0.1087 -2.9541 -0.9217
19727TIP3    H280597   0.917   5.926   6.187 -2.8469  0.9616 -1.7840
19728TIP3   OH280598   4.704   0.154   3.074  0.2546 -0.0164 -0.2478
19728TIP3    H180599   4.760   0.093   3.122  0.4100 -0.3138 -0.7958
19728TIP3    H280600   4.650   0.195   3.141  0.7124 -0.1688  0.2189
19729TIP3   OH280601   5.969   0.604   1.019  0.1508  0.2850 -0.4674
19729TIP3    H180602   5.880   0.592   1.052  0.2197 -1.3804 -0.8006
19729TIP3    H280603   5.988   0.523   0.971  1.3704  1.1559 -1.5127
19730TIP3   OH280604   5.395   1.846  15.636  0.0054 -0.1770  0.2519
19730TIP3    H180605   5.356   1.813  15.717 -2.4500  0.7712 -0.4510
19730TIP3    H280606   5.357   1.790  15.568  0.1808  0.5451 -0.4439
19731TIP3   OH280607   6.199   4.342  11.343  0.6185  0.5102 -0.1524
19731TIP3    H180608   6.253   4.400  11.289  1.1793 -0.4564 -0.6587
19731TIP3    H280609   6.188   4.263  11.290  0.3365 -0.0678  0.7423
19732TIP3   OH280610   2.195   3.658   3.842 -0.3473  0.1182  0.1002
19732TIP3    H180611   2.275   3.615   3.869  0.1239  1.3654  0.7942
19732TIP3    H280612   2.130   3.633   3.907  0.0666  0.8811  0.8170
19733TIP3   OH280613   1.369   6.183  16.267  0.0291  0.3461  0.0665
19733TIP3    H180614   1.337   6.113  16.208 -2.5216 -0.4340  2.1654
19733TIP3    H280615   1.406   6.248  16.208 -0.9603 -1.0743 -2.3081
19734TIP3   OH280616   6.758   1.123  11.492  0.1722 -0.1024  0.7881
19734TIP3    H180617   6.671   1.126  11.532 -0.1301 -0.1314  0.1572
19734TIP3    H280618   6.748   1.170  11.409  0.0618 -2.2962 -0.5395
19735TIP3   OH280619   0.245   2.141  16.141  0.4146 -0.1523 -0.1785
19735TIP3    H180620   0.177   2.074  16.133  0.3175 -0.3237  1.7124
19735TIP3    H280621   0.209   2.217  16.095 -0.9010 -0.3678  0.4459
19736TIP3   OH280622   5.006   5.766  13.026 -0.2240 -0.0849  0.0437
19736TIP3    H180623   5.079   5.825  13.009 -0.5811  0.7561  1.3159
19736TIP3    H280624   4.979   5.785  13.116 -1.1648 -1.3043  0.0502
19737TIP3   OH280625   0.217   3.478  11.254  1.0753 -0.0943  0.1256
19737TIP3    H180626   0.215   3.462  11.160  0.9515  1.1698 -0.1076
19737TIP3    H280627   0.303   3.515  11.271  2.1434 -2.7330  0.9865
19738TIP3   OH280628   3.657   1.020   0.213 -0.0100 -0.2861  0.3347
19738TIP3    H180629   3.751   1.012   0.230  0.4466  2.8074 -0.1207
19738TIP3    H280630   3.617   1.029   0.300  0.7603  2.7268  0.5086
19739TIP3   OH280631   2.231   1.982   2.980 -0.2436  0.0060  0.7283
19739TIP3    H180632   2.170   2.031   3.035  0.6737  1.0419  0.8482
19739TIP3    H280633   2.201   1.891   2.986 -1.0610  0.3239  1.7187
19740TIP3   OH280634   3.773   1.301  14.718  0.1554 -0.2316  0.3245
19740TIP3    H180635   3.836   1.309  14.790  0.4284 -1.1630  0.2015
19740TIP3    H280636   3.690   1.281  14.760 -0.2115  1.5453  0.5292
19741TIP3   OH280637   4.357   1.224  12.194  0.4186  0.2203  0.2716
19741TIP3    H180638   4.407   1.162  12.142 -0.1787  1.1915 -1.5249
19741TIP3    H280639   4.423   1.277  12.240  1.1091  1.4310 -1.9920
19742TIP3   OH280640   0.686   0.798   5.303 -0.6350 -0.0955 -0.5619
19742TIP3    H180641   0.608   0.773   5.255 -2.3726  1.9001  1.0145
19742TIP3    H280642   0.739   0.718   5.307 -1.8149 -1.0813 -3.0349
19743TIP3   OH280643   2.000   6.726   5.459  0.2608 -0.3301 -0.1081
19743TIP3    H180644   2.049   6.806   5.439  0.0952 -0.0843  0.4477
19743TIP3    H280645   1.990   6.727   5.554 -1.2563 -0.1166 -0.2454
19744TIP3   OH280646   1.392   5.060   4.312  0.0828 -0.6250 -0.2033
19744TIP3    H180647   1.354   5.147   4.322 -0.3003 -0.7294 -0.6867
19744TIP3    H280648   1.487   5.075   4.314  0.0216 -0.2345 -0.0127
19745TIP3   OH280649   0.203   6.505   4.477 -0.4101  0.4566 -0.1193
19745TIP3    H180650   0.274   6.561   4.444 -1.0781  0.3175 -1.8905
19745TIP3    H280651   0.246   6.422   4.499  0.2760  1.0174  0.7627
19746TIP3   OH280652   1.295   2.131   6.274 -0.3060  0.4085  0.5483
19746TIP3    H180653   1.388   2.145   6.290 -0.5969  0.5673  2.3897
19746TIP3    H280654   1.253   2.210   6.309 -1.1304  0.3398 -0.2659
19747TIP3   OH280655   4.709   5.920   1.938  0.1484 -0.1674  0.2260
19747TIP3    H180656   4.704   5.908   2.032  0.4140 -0.3890  0.2149
19747TIP3    H280657   4.777   5.858   1.910 -2.8458 -3.3379 -0.6812
19748TIP3   OH280658   5.317   3.084  16.984  0.5035 -0.0352  0.0095
19748TIP3    H180659   5.240   3.140  16.992 -1.0176 -1.7272 -1.5757
19748TIP3    H280660   5.312   3.025  17.059 -0.4195 -0.8202 -0.6308
19749TIP3   OH280661   5.388   0.903  14.933 -0.4074 -0.5134 -0.0530
19749TIP3    H180662   5.358   0.831  14.878 -0.1401  0.0596 -0.9860
19749TIP3    H280663   5.320   0.970  14.923 -1.6535 -1.3397  2.3633
19750TIP3   OH280664   5.657   0.430   3.801 -0.0944 -0.0471  0.3058
19750TIP3    H180665   5.578   0.485   3.796  0.5977  1.0338  0.8685
19750TIP3    H280666   5.729   0.492   3.805  0.7956 -1.0271 -0.1547
19751TIP3   OH280667   6.159   0.327   3.920  0.3206 -0.4813 -0.2258
19751TIP3    H180668   6.131   0.324   3.828 -1.6087  1.7093  0.2121
19751TIP3    H280669   6.253   0.346   3.915 -0.0644  1.3502 -1.7967
19752TIP3   OH280670   4.808   1.249   6.110  0.6293  0.4540  0.1432
19752TIP3    H180671   4.858   1.286   6.183  0.7808  0.2489  0.1435
19752TIP3    H280672   4.834   1.157   6.106 -0.7367  0.0069  0.9858
19753TIP3   OH280673   3.006   0.340  11.129  0.1744  0.6217  0.2297
19753TIP3    H180674   2.913   0.343  11.150  0.2282  0.0295  0.5820
19753TIP3    H280675   3.042   0.421  11.164 -0.5085  1.6851 -1.4468
19754TIP3   OH280676   5.897   0.882  12.479  0.8318 -0.3055 -0.3596
19754TIP3    H180677   5.902   0.914  12.570  1.9670  1.4519 -0.9746
19754TIP3    H280678   5.910   0.788  12.486  0.5636 -0.2552  1.3270
19755TIP3   OH280679   0.591   6.170  15.509  0.1536 -0.3678 -0.1310
19755TIP3    H180680   0.651   6.195  15.579  0.0600 -2.6863  0.8808
19755TIP3    H280681   0.514   6.225  15.524  0.9463  0.6867  0.2498
19756TIP3   OH280682   5.598   6.155   0.666 -0.1226  0.4996  0.4773
19756TIP3    H180683   5.557   6.194   0.589 -1.1056  1.3586  1.4057
19756TIP3    H280684   5.626   6.230   0.719 -2.2911  0.0397  2.4324
19757TIP3   OH280685   0.334   4.140  14.824  0.2483 -0.0237  0.3691
19757TIP3    H180686   0.255   4.162  14.774  0.6976  0.9417  0.0675
19757TIP3    H280687   0.401   4.125  14.758  0.6325  0.4178  0.6521
19758TIP3   OH280688   3.781   5.092   5.111  0.3555  0.4480  0.1124
19758TIP3    H180689   3.760   5.028   5.042  1.3679 -0.1747  0.3468
19758TIP3    H280690   3.698   5.110   5.154  0.3200 -2.4777  1.5249
19759TIP3   OH280691   3.682   2.964   4.948  0.0456 -0.1836  0.3501
19759TIP3    H180692   3.762   2.929   4.908 -0.2727 -0.8320  0.2829
19759TIP3    H280693   3.621   2.974   4.875  0.0647  0.3357  0.3988
19760TIP3   OH280694   4.824   2.364   0.505 -0.0791 -0.8765 -0.3218
19760TIP3    H180695   4.853   2.433   0.564 -0.2009 -1.2823  0.2183
19760TIP3    H280696   4.796   2.293   0.562  1.6337 -2.0596 -0.8665
19761TIP3   OH280697   5.834   1.090  14.336  0.8919 -0.1168 -0.2567
19761TIP3    H180698   5.750   1.134  14.325 -0.2071 -2.2084 -0.8314
19761TIP3    H280699   5.881   1.109  14.255  0.0113 -0.7976 -0.9545
19762TIP3   OH280700   5.993   3.616  15.285 -0.1862 -0.1672 -0.8096
19762TIP3    H180701   5.941   3.537  15.274 -1.1244 -0.1966  2.5179
19762TIP3    H280702   6.012   3.619  15.379 -0.6057  3.7768 -0.6689
19763TIP3   OH280703   1.467   2.969   5.642  0.0937  1.0133  0.3944
19763TIP3    H180704   1.463   2.881   5.680 -0.6059  0.9543  0.1909
19763TIP3    H280705   1.548   3.006   5.677 -0.7980  1.1749  2.4198
19764TIP3   OH280706   3.285   5.190  14.642 -0.0780 -0.3005  0.3267
19764TIP3    H180707   3.316   5.211  14.553 -1.3513  1.3139  0.2247
19764TIP3    H280708   3.329   5.254  14.698 -0.0663 -0.6639  0.7328
19765TIP3   OH280709   2.048   4.999   4.369 -0.0071  0.0001  0.2160
19765TIP3    H180710   2.141   4.996   4.392  0.2570 -0.5776 -0.8648
19765TIP3    H280711   2.047   5.019   4.276 -0.9517 -0.5774  0.0891
19766TIP3   OH280712   0.069   1.328   3.517  0.2322  0.6981 -0.7136
19766TIP3    H180713   0.033   1.342   3.604 -1.7962  0.8308 -1.5179
19766TIP3    H280714   0.155   1.370   3.519  0.9811 -0.6996  1.6869
19767TIP3   OH280715   6.625   6.365   1.069 -0.7580 -0.5280  0.1006
19767TIP3    H180716   6.615   6.432   1.136  0.5966  0.8464 -0.9949
19767TIP3    H280717   6.536   6.352   1.034 -1.3812 -0.8697  1.7336
19768TIP3   OH280718   5.039   3.998  13.548 -0.2383  0.7342  0.2168
19768TIP3    H180719   5.100   4.019  13.618 -0.1075 -0.6668  0.5579
19768TIP3    H280720   5.093   3.962  13.478 -0.6664 -0.8611  0.6636
19769TIP3   OH280721   1.512   3.532  16.470 -0.0194  0.5306 -0.3883
19769TIP3    H180722   1.469   3.593  16.531  1.9982  1.6937 -0.0370
19769TIP3    H280723   1.481   3.559  16.383 -0.7066  0.7333 -0.0862
19770TIP3   OH280724   4.709   2.768  15.471 -0.3110  0.3361 -0.4446
19770TIP3    H180725   4.642   2.819  15.426 -1.0173 -0.9281 -0.8813
19770TIP3    H280726   4.661   2.699  15.516  0.6521 -0.3547 -0.4270
19771TIP3   OH280727   1.306   4.827  15.027 -0.3007 -0.0014  0.2409
19771TIP3    H180728   1.227   4.812  14.976 -0.0910 -1.3134  0.2766
19771TIP3    H280729   1.362   4.751  15.009  0.4952  0.3621  1.0676
19772TIP3   OH280730   6.205   5.082  17.125 -0.2034  0.0822  0.1845
19772TIP3    H180731   6.191   5.173  17.151 -0.4258  0.6008 -1.6584
19772TIP3    H280732   6.253   5.044  17.199  0.7583  1.9254  0.5806
19773TIP3   OH280733   2.881   2.492   3.693 -0.2926  0.0823  0.1756
19773TIP3    H180734   2.812   2.523   3.634 -0.6689  0.9190  1.0340
19773TIP3    H280735   2.860   2.399   3.708  0.5015 -0.5063 -1.9415
19774TIP3   OH280736   3.713   1.950   2.007 -0.3997  0.2550 -0.1191
19774TIP3    H180737   3.625   1.916   1.989 -0.7800  0.8939  0.4606
19774TIP3    H280738   3.757   1.880   2.054 -0.8779  0.2201  0.2928
19775TIP3   OH280739   1.149   0.148   3.940 -0.0799  0.5281 -0.5107
19775TIP3    H180740   1.217   0.099   3.893 -0.4000  0.3691 -0.8102
19775TIP3    H280741   1.176   0.239   3.933  0.2768  0.4384 -0.3456
19776TIP3   OH280742   5.418   0.317  11.897 -0.2894 -0.0513 -0.2969
19776TIP3    H180743   5.401   0.255  11.969 -0.8789  0.2665 -0.1600
19776TIP3    H280744   5.343   0.376  11.898 -0.2585  0.0127 -1.1257
19777TIP3   OH280745   6.637   5.568   2.364  0.4180 -0.2079 -0.0622
19777TIP3    H180746   6.663   5.645   2.313  0.4414 -0.2503 -0.1158
19777TIP3    H280747   6.672   5.494   2.313 -0.5781 -0.3226 -0.6028
19778TIP3   OH280748   4.661   6.527   6.661 -0.5738 -0.7425 -0.7408
19778TIP3    H180749   4.595   6.554   6.597 -0.0550  1.7550 -0.3396
19778TIP3    H280750   4.744   6.551   6.620 -0.2683  2.0434  1.1941
19779TIP3   OH280751   1.277   1.302  13.130 -0.0790  0.3598  0.5558
19779TIP3    H180752   1.206   1.238  13.125  0.1141  0.1870 -0.1649
19779TIP3    H280753   1.324   1.280  13.210  1.4841 -2.0079 -0.8805
19780TIP3   OH280754   5.897   3.971  15.423 -0.3572  0.0899  0.9598
19780TIP3    H180755   5.840   3.923  15.484  0.4847 -0.6281  1.1926
19780TIP3    H280756   5.962   4.013  15.479 -0.4618  0.6441  0.6678
19781TIP3   OH280757   5.211   0.604   3.137  0.1573  0.1263  0.2866
19781TIP3    H180758   5.237   0.660   3.064 -0.6022  1.3000  0.8932
19781TIP3    H280759   5.115   0.609   3.138  0.1650  0.1407  1.3772
19782TIP3   OH280760   3.597   1.921   3.376 -0.7459  0.0623 -0.1795
19782TIP3    H180761   3.626   1.835   3.345  1.1530  0.2671  0.9024
19782TIP3    H280762   3.566   1.905   3.465  0.0080  0.5520  0.1761
19783TIP3   OH280763   3.920   5.871   6.300  0.5541 -0.0163 -0.0898
19783TIP3    H180764   3.923   5.945   6.361  1.7375 -0.7633  0.7996
19783TIP3    H280765   3.842   5.821   6.325  1.3638 -0.6565  1.2589
19784TIP3   OH280766   1.160   5.627  16.627 -0.0853 -0.4456  0.1790
19784TIP3    H180767   1.181   5.608  16.536  1.7444 -0.1661  0.5099
19784TIP3    H280768   1.158   5.723  16.632 -0.1892 -0.4592  0.4273
19785TIP3   OH280769   4.363   0.104   2.850  0.0906 -0.5238 -0.0657
19785TIP3    H180770   4.359   0.010   2.831 -1.4534 -0.6169  0.5130
19785TIP3    H280771   4.311   0.114   2.930  2.2531  0.5223  1.2986
19786TIP3   OH280772   1.335   1.785  12.784  0.6157 -0.3432  0.1143
19786TIP3    H180773   1.367   1.875  12.774  1.3734 -0.4677  1.1861
19786TIP3    H280774   1.243   1.795  12.806  1.1426  0.3174  2.2948
19787TIP3   OH280775   2.716   0.013   3.310  0.4310 -0.6006  0.0591
19787TIP3    H180776   2.780  -0.057   3.299  1.5921  0.5990 -1.0599
19787TIP3    H280777   2.686   0.004   3.401  0.8916 -2.2437  0.0784
19788TIP3   OH280778   1.010   0.612   6.693 -0.4933  0.6948  0.5690
19788TIP3    H180779   1.069   0.552   6.739  0.3638  0.9214 -0.1888
19788TIP3    H280780   1.010   0.691   6.747 -0.1401  0.6699  0.6107
19789TIP3   OH280781   0.933   0.640   3.797 -0.1687 -0.4126  0.2730
19789TIP3    H180782   0.954   0.731   3.819 -0.2169 -0.5742  1.0450
19789TIP3    H280783   1.015   0.593   3.809 -0.1867 -0.5009  0.0475
19790TIP3   OH280784   0.051   0.062   4.383 -0.0253  0.2012 -0.4179
19790TIP3    H180785   0.054   0.113   4.302  0.0905  0.2317 -0.3948
19790TIP3    H280786   0.143   0.047   4.405 -0.0613 -0.4467 -0.6977
19791TIP3   OH280787   0.449   4.962   2.575 -0.2345  0.4377 -0.2896
19791TIP3    H180788   0.359   4.929   2.581 -0.4527  1.1533  0.6479
19791TIP3    H280789   0.497   4.892   2.530 -1.4283  0.4193 -1.6125
19792TIP3   OH280790   4.466   6.089  16.803 -0.0857 -0.0589 -0.2510
19792TIP3    H180791   4.384   6.133  16.783  0.2741  0.7471 -0.0198
19792TIP3    H280792   4.526   6.160  16.825  0.8823 -0.5762 -1.1286
19793TIP3   OH280793   4.114   4.441  15.353 -0.4885  0.1021 -0.9181
19793TIP3    H180794   4.145   4.491  15.278  0.4913  0.8506 -0.0522
19793TIP3    H280795   4.095   4.354  15.319  2.1574 -0.2638 -1.6095
19794TIP3   OH280796   5.062   3.125   5.777 -0.4534  0.2061  0.0659
19794TIP3    H180797   5.058   3.073   5.857 -0.6723  0.0130 -0.0682
19794TIP3    H280798   5.103   3.066   5.713  1.8016  1.0996  0.5998
19795TIP3   OH280799   5.415   0.975   4.062  0.5297 -0.0353  0.4500
19795TIP3    H180800   5.349   1.018   4.116 -0.4588 -0.4153 -0.4215
19795TIP3    H280801   5.452   1.045   4.008  1.0963  0.2377  1.1793
19796TIP3   OH280802   2.449   2.055   1.893  0.6266 -0.1560 -0.0339
19796TIP3    H180803   2.489   1.970   1.874 -0.3971 -0.7414  0.4016
19796TIP3    H280804   2.421   2.087   1.807 -0.3218 -0.9415 -0.0338
19797TIP3   OH280805   0.630   4.431   4.046  0.4099 -0.0340  0.3145
19797TIP3    H180806   0.618   4.486   3.969 -0.6249 -0.7047 -0.0211
19797TIP3    H280807   0.720   4.401   4.041  0.0314 -0.9950 -1.2774
19798TIP3   OH280808   4.948   1.649   0.388 -0.5046  0.7199 -0.3111
19798TIP3    H180809   4.857   1.660   0.418 -0.3798  1.4710 -0.1961
19798TIP3    H280810   4.961   1.720   0.325  0.1989  0.9933  0.1320
19799TIP3   OH280811   2.599   0.461   2.040 -0.4326  0.0063  0.6168
19799TIP3    H180812   2.565   0.517   1.970  2.2522 -2.5280 -3.0965
19799TIP3    H280813   2.562   0.375   2.022  2.7068 -1.3977  0.2689
19800TIP3   OH280814   2.824   0.088   2.762  0.8751  0.0757  0.0868
19800TIP3    H180815   2.829   0.053   2.673  0.6799  1.7389 -0.6203
19800TIP3    H280816   2.754   0.037   2.803  0.5635 -0.3307 -0.9033
19801TIP3   OH280817   3.815   3.654  11.720  0.3731 -0.5598 -0.4229
19801TIP3    H180818   3.808   3.563  11.691 -1.6713 -0.7085  0.3793
19801TIP3    H280819   3.772   3.655  11.805  0.6614  1.1051 -0.2713
19802TIP3   OH280820   0.167   3.801   2.373  0.1403 -0.0742  0.0496
19802TIP3    H180821   0.184   3.764   2.460  0.6425 -0.3303 -0.1565
19802TIP3    H280822   0.179   3.728   2.313 -0.0718  0.1366 -0.2521
19803TIP3   OH280823   2.153   5.289   0.035  0.1715  0.1595  0.3447
19803TIP3    H180824   2.078   5.341   0.007 -0.8227 -1.1428  0.4927
19803TIP3    H280825   2.225   5.317  -0.022 -1.0217 -0.2446 -1.4014
19804TIP3   OH280826   6.509   6.109   1.624  0.1674  0.5739 -0.3201
19804TIP3    H180827   6.510   6.100   1.528  0.2746 -0.1000 -0.2616
19804TIP3    H280828   6.484   6.199   1.639  0.0128  0.6495 -0.9882
19805TIP3   OH280829   6.042   4.796  15.056 -0.3086  0.0078  0.0381
19805TIP3    H180830   6.036   4.850  14.976 -0.7878 -0.7677 -0.4587
19805TIP3    H280831   5.964   4.819  15.106  0.6586  1.4989  0.9526
19806TIP3   OH280832   5.260   2.209   5.851 -1.1325  0.3598 -0.5964
19806TIP3    H180833   5.267   2.291   5.801 -0.1577  0.3754 -0.4586
19806TIP3    H280834   5.300   2.229   5.936  0.6620 -0.6991 -1.1345
19807TIP3   OH280835   5.108   2.857  15.967 -0.0725 -0.0363 -0.1786
19807TIP3    H180836   5.090   2.950  15.953  0.9816  0.2437  0.2502
19807TIP3    H280837   5.203   2.852  15.976 -0.1701 -1.0744  0.4344
19808TIP3   OH280838   2.712   0.088   4.288  0.4369 -0.2919  0.5392
19808TIP3    H180839   2.725   0.050   4.202 -0.7269  2.1958 -0.8429
19808TIP3    H280840   2.787   0.146   4.302  1.1686 -1.4660  1.7190
19809TIP3   OH280841   4.217   1.268  15.017  0.0672  0.0010 -0.3511
19809TIP3    H180842   4.153   1.198  15.031 -1.3773  1.2739 -0.2487
19809TIP3    H280843   4.211   1.321  15.097  0.8693  0.4366 -0.5759
19810TIP3   OH280844   4.880   4.084  16.715 -0.0016  0.1524 -0.5262
19810TIP3    H180845   4.803   4.062  16.768  0.2622 -1.4080 -0.7584
19810TIP3    H280846   4.883   4.180  16.716 -0.3268  0.2046  1.8263
19811TIP3   OH280847   1.711   2.088   2.286  0.4862 -0.2239  0.0771
19811TIP3    H180848   1.749   2.176   2.281  1.0877 -0.5264 -1.3777
19811TIP3    H280849   1.767   2.035   2.229  0.1017 -1.5450  0.8910
19812TIP3   OH280850   4.875   6.581  10.870 -0.2628 -0.4561 -0.1039
19812TIP3    H180851   4.927   6.660  10.861 -0.7166  0.1562  1.9703
19812TIP3    H280852   4.797   6.596  10.818 -1.2971  1.3982  1.8276
19813TIP3   OH280853   4.365   4.854  13.511 -0.0023 -0.9109  0.6138
19813TIP3    H180854   4.392   4.898  13.431 -1.5085 -0.4418  0.3264
19813TIP3    H280855   4.372   4.921  13.579  0.2939 -1.0151  0.6874
19814TIP3   OH280856   3.117   3.123   3.202 -0.1679  0.2741  0.1380
19814TIP3    H180857   3.089   3.214   3.211 -0.0899  0.3077  0.0347
19814TIP3    H280858   3.165   3.120   3.120  0.1119  0.2124  0.2999
19815TIP3   OH280859   6.116   0.613   5.768  0.7009  0.0443 -0.0516
19815TIP3    H180860   6.139   0.693   5.814  1.9851  0.5128 -1.4508
19815TIP3    H280861   6.200   0.575   5.742  0.0483 -0.7277 -1.1149
19816TIP3   OH280862   3.718   5.032   1.340 -0.5079 -0.2688  0.1923
19816TIP3    H180863   3.678   5.043   1.426 -0.4965 -1.8233  0.4128
19816TIP3    H280864   3.793   4.974   1.355  0.8816  1.2373 -0.4973
19817TIP3   OH280865   0.287   0.224  12.880  0.2075 -0.4018  0.6544
19817TIP3    H180866   0.364   0.210  12.825  0.1794  0.2256  0.4484
19817TIP3    H280867   0.251   0.308  12.850  0.5235  0.2455  2.0042
19818TIP3   OH280868   3.216   0.528   3.339 -0.2037  0.1906 -0.4823
19818TIP3    H180869   3.180   0.541   3.426 -0.1034  1.1806 -0.5733
19818TIP3    H280870   3.299   0.576   3.340  0.3060 -0.6644 -0.8004
19819TIP3   OH280871   3.869   5.580   4.535 -0.3663 -0.2591 -0.0292
19819TIP3    H180872   3.929   5.644   4.496 -0.3953  0.8683  1.6355
19819TIP3    H280873   3.784   5.599   4.497 -0.2923  0.4341  0.1414
19820TIP3   OH280874   5.229   6.201  17.058 -0.2029 -0.5317 -0.1832
19820TIP3    H180875   5.310   6.159  17.029  0.1253  0.1350 -0.2689
19820TIP3    H280876   5.165   6.130  17.064  0.2552 -0.9860 -0.6091
19821TIP3   OH280877   1.797   2.484  11.417  0.3252 -0.1464 -0.2071
19821TIP3    H180878   1.824   2.404  11.462 -1.1224  0.6507  2.2750
19821TIP3    H280879   1.869   2.546  11.431  1.2683 -0.8065 -1.7931
19822TIP3   OH280880   4.222   3.300   0.916 -0.2219 -0.5886  0.0053
19822TIP3    H180881   4.198   3.247   0.841  1.8082 -1.5464 -0.0313
19822TIP3    H280882   4.194   3.389   0.893  0.1043 -0.9056 -1.7479
19823TIP3   OH280883   5.928   4.096  15.880  0.0836 -0.3006  0.6461
19823TIP3    H180884   5.955   4.041  15.953  1.3854 -1.4932 -0.6571
19823TIP3    H280885   5.949   4.044  15.802  2.5008  2.4702 -0.7238
19824TIP3   OH280886   1.541   4.279  14.944 -1.1480 -0.0441  0.3006
19824TIP3    H180887   1.496   4.251  14.864  0.7828 -0.6158 -0.6538
19824TIP3    H280888   1.533   4.375  14.944 -1.2197 -0.0427 -0.5605
19825TIP3   OH280889   2.866   3.605  12.539  0.3441 -0.4051  0.3978
19825TIP3    H180890   2.811   3.598  12.460  0.7222 -0.8996  0.1702
19825TIP3    H280891   2.832   3.681  12.585  0.6756  0.4401 -0.6954
19826TIP3   OH280892   0.898   2.175  13.673  0.0800  0.6613 -0.0695
19826TIP3    H180893   0.958   2.249  13.663  0.2788  0.2563 -2.3411
19826TIP3    H280894   0.836   2.185  13.600 -1.8999  0.3770  1.4939
19827TIP3   OH280895   0.414   5.537   5.451 -0.3572  0.6164 -0.7082
19827TIP3    H180896   0.362   5.577   5.382 -0.9999 -1.2269 -1.3707
19827TIP3    H280897   0.495   5.510   5.408 -0.1988  0.6490 -0.4321
19828TIP3   OH280898   4.909   5.215   1.878  0.5772 -0.5959  0.6344
19828TIP3    H180899   4.903   5.155   1.804  2.0685  1.4175 -1.2300
19828TIP3    H280900   4.978   5.179   1.933  0.9521 -0.9806 -0.0770
19829TIP3   OH280901   1.525   1.012   1.423  0.0515 -0.1519  0.4367
19829TIP3    H180902   1.531   1.082   1.357 -0.1734 -2.3326 -2.0877
19829TIP3    H280903   1.613   0.975   1.427 -0.1718 -0.6777  0.5984
19830TIP3   OH280904   0.489   5.149   5.922  0.3475  0.5261  0.5231
19830TIP3    H180905   0.486   5.236   5.883 -0.3643  0.0638 -0.4874
19830TIP3    H280906   0.500   5.090   5.848  1.0040 -0.2436  1.2185
19831TIP3   OH280907   0.770   5.263   0.899  0.7936 -0.0945  0.6404
19831TIP3    H180908   0.742   5.296   0.813 -0.4358 -0.0020  1.0601
19831TIP3    H280909   0.688   5.249   0.947  1.4070 -1.3654  1.3584
19832TIP3   OH280910   6.523   3.362  16.951  0.1550 -0.2387 -0.4280
19832TIP3    H180911   6.582   3.409  16.892 -0.2624  0.4379 -0.3262
19832TIP3    H280912   6.557   3.273  16.955  1.0896  0.1121 -0.4732
19833TIP3   OH280913   6.126   1.308   6.446 -0.4830 -0.3967  0.0771
19833TIP3    H180914   6.189   1.312   6.517  0.0324 -2.8532 -0.1662
19833TIP3    H280915   6.095   1.398   6.436  0.4815  0.2565  2.4223
19834TIP3   OH280916   4.214   6.176  16.776 -0.0584 -0.1708 -0.0331
19834TIP3    H180917   4.211   6.270  16.757  1.8855  0.2141  1.2354
19834TIP3    H280918   4.174   6.167  16.863  1.1018 -0.2705  0.5071
19835TIP3   OH280919   3.441   1.211  16.452  0.2392 -0.3123  0.1313
19835TIP3    H180920   3.354   1.184  16.421  0.0927 -0.5030  0.6879
19835TIP3    H280921   3.451   1.300  16.420  1.1695 -1.3297 -2.6413
19836TIP3   OH280922   2.393   3.559   5.834 -0.6817 -0.4976  0.1794
19836TIP3    H180923   2.308   3.548   5.876 -1.4871 -1.1773 -1.5361
19836TIP3    H280924   2.393   3.650   5.804 -0.5895 -0.3567  0.5987
19837TIP3   OH280925   5.129   2.460  14.417  0.0522  0.6162  0.5794
19837TIP3    H180926   5.185   2.461  14.339 -1.3167 -0.2316 -0.4489
19837TIP3    H280927   5.171   2.397  14.476 -0.7873 -1.4727 -0.9612
19838TIP3   OH280928   5.001   4.182   1.527 -0.4994  0.4336 -0.8435
19838TIP3    H180929   4.988   4.130   1.607 -3.0229 -1.3535 -2.2552
19838TIP3    H280930   4.960   4.266   1.546  0.5338  0.7012  0.3067
19839TIP3   OH280931   5.252   5.693  15.037  0.1328 -0.0582 -0.6388
19839TIP3    H180932   5.271   5.710  14.944 -1.6501  0.2496 -0.9918
19839TIP3    H280933   5.234   5.599  15.040  0.4962 -0.1237 -0.5500
19840TIP3   OH280934   5.663   6.004   1.386 -1.1865 -0.8355  0.6139
19840TIP3    H180935   5.664   6.053   1.469  0.9136  0.6310 -0.1861
19840TIP3    H280936   5.659   5.912   1.412 -1.6472 -0.3726  2.2931
19841TIP3   OH280937   4.308   1.326   0.238  0.2774  0.4444  0.0594
19841TIP3    H180938   4.377   1.390   0.254  0.6642  1.0308 -3.2081
19841TIP3    H280939   4.276   1.301   0.325  2.9598  1.9292  1.5732
19842TIP3   OH280940   5.509   3.628   5.592  0.5089  0.1573 -0.0258
19842TIP3    H180941   5.439   3.564   5.605  1.2838 -0.5331  0.7804
19842TIP3    H280942   5.503   3.651   5.499 -1.0551  0.4357  0.1132
19843TIP3   OH280943   4.977   1.964   1.593 -0.3460  0.4241 -0.1897
19843TIP3    H180944   4.998   2.001   1.679  1.3766  0.6816 -0.6877
19843TIP3    H280945   5.011   1.874   1.597  1.0630  0.8855 -1.0500
19844TIP3   OH280946   1.885   1.844  11.107 -1.1271  0.6978 -0.1900
19844TIP3    H180947   1.942   1.768  11.095 -2.3503 -0.0360 -1.6717
19844TIP3    H280948   1.943   1.920  11.098 -0.1012 -0.0438  0.0661
19845TIP3   OH280949   3.922   1.840   0.653 -0.2935  0.7280  0.1208
19845TIP3    H180950   4.011   1.819   0.682 -0.3382 -0.7531 -0.7453
19845TIP3    H280951   3.865   1.792   0.714 -0.4653  0.3920 -0.3044
19846TIP3   OH280952   5.824   3.633   4.027 -0.3947  0.2044 -0.1328
19846TIP3    H180953   5.824   3.604   4.118  1.5472 -1.2685 -0.5362
19846TIP3    H280954   5.786   3.559   3.979 -2.5041  1.4286 -0.4556
19847TIP3   OH280955   2.860   1.023   2.218 -0.1277  0.6258  0.1612
19847TIP3    H180956   2.796   1.050   2.283  0.1003 -0.8822  1.0790
19847TIP3    H280957   2.930   1.088   2.225 -0.0273  0.4036  1.5723
19848TIP3   OH280958   2.386   2.493  16.260  0.5805 -0.1712 -0.2267
19848TIP3    H180959   2.347   2.498  16.173 -0.6562 -0.0140  0.3182
19848TIP3    H280960   2.421   2.403  16.265  3.3715  0.6774 -1.9412
19849TIP3   OH280961   3.660   0.434   2.519  0.3172 -0.0215 -0.9128
19849TIP3    H180962   3.736   0.470   2.472  0.0319  1.9802  0.0544
19849TIP3    H280963   3.585   0.480   2.482 -0.5483 -2.3851 -2.2432
19850TIP3   OH280964   4.189   0.532  15.356  0.0682  0.0073 -0.1217
19850TIP3    H180965   4.143   0.514  15.438  0.7854 -0.5675  0.1768
19850TIP3    H280966   4.280   0.545  15.383  0.2221  0.3234 -0.7751
19851TIP3   OH280967   3.310   0.262  13.698 -0.0425  0.2755 -0.3353
19851TIP3    H180968   3.349   0.305  13.622 -0.2121  2.1697  0.5908
19851TIP3    H280969   3.381   0.255  13.762 -0.2297 -0.0826 -0.1599
19852TIP3   OH280970   1.371   0.715   5.073 -0.5371  0.3526  0.7990
19852TIP3    H180971   1.278   0.692   5.078 -0.2661 -2.0288 -2.0056
19852TIP3    H280972   1.415   0.651   5.128 -0.3858 -0.5993 -0.3879
19853TIP3   OH280973   2.738   0.664   6.120  0.6031  0.6180 -0.4355
19853TIP3    H180974   2.811   0.723   6.139  1.3468  0.3623 -2.2732
19853TIP3    H280975   2.740   0.600   6.191  1.8897  0.8843 -0.1948
19854TIP3   OH280976   4.024   4.409   2.937 -0.2194 -0.2984 -0.0031
19854TIP3    H180977   3.978   4.437   3.017 -2.8239 -1.5327 -0.9622
19854TIP3    H280978   3.961   4.354   2.891  2.3489 -2.2859 -1.3822
19855TIP3   OH280979   3.239   4.692  14.286 -0.2206  0.2652 -0.2563
19855TIP3    H180980   3.181   4.627  14.246 -2.2340  1.5859  0.3649
19855TIP3    H280981   3.317   4.692  14.229 -1.3365 -0.6891 -1.8842
19856TIP3   OH280982   2.009   1.324   0.167 -0.4549 -0.3770 -0.7940
19856TIP3    H180983   2.047   1.258   0.109 -0.7248 -0.9190 -0.3653
19856TIP3    H280984   2.017   1.286   0.255 -0.5646  0.1841 -0.5364
19857TIP3   OH280985   1.253   5.407   5.063 -0.5889  0.0544  0.3360
19857TIP3    H180986   1.275   5.495   5.093 -0.8076 -0.6493  2.8828
19857TIP3    H280987   1.306   5.349   5.119  0.0195 -1.4470 -1.6837
19858TIP3   OH280988   4.878   2.722   5.523  0.0546  0.2601 -0.1462
19858TIP3    H180989   4.873   2.817   5.534 -0.2516  0.2073  0.2032
19858TIP3    H280990   4.797   2.699   5.476  0.8963  0.3644 -1.7319
19859TIP3   OH280991   3.805   3.195  11.376 -0.2666 -0.1079 -0.2606
19859TIP3    H180992   3.848   3.141  11.442  0.4813  1.2883  0.4433
19859TIP3    H280993   3.831   3.155  11.293 -1.5145 -2.1075  0.2406
19860TIP3   OH280994   0.441   5.106  16.470 -0.1227 -0.6425 -0.4193
19860TIP3    H180995   0.386   5.030  16.454 -0.6440 -0.2762 -0.3621
19860TIP3    H280996   0.391   5.181  16.437  0.3909 -0.3215 -0.4929
19861TIP3   OH280997   4.363   0.559   1.843  0.0877  0.1945 -0.0019
19861TIP3    H180998   4.413   0.542   1.923  1.4138 -0.1595 -0.8755
19861TIP3    H280999   4.386   0.487   1.785 -1.1771  0.2227 -0.5786
19862TIP3   OH281000   0.729   0.690   0.615 -0.1433  0.8036  0.2312
19862TIP3    H181001   0.730   0.716   0.708 -0.2477  1.1083  0.1497
19862TIP3    H281002   0.728   0.595   0.617 -2.7927  0.7564  0.6020
19863TIP3   OH281003   3.691   5.639  12.179  0.4033  0.4785 -0.0341
19863TIP3    H181004   3.670   5.600  12.095  1.4178  0.3584 -0.2417
19863TIP3    H281005   3.641   5.721  12.181 -0.9734 -0.3424 -0.0028
19864TIP3   OH281006   3.899   2.607  15.659 -0.4504  0.1398  0.0890
19864TIP3    H181007   3.987   2.613  15.624 -0.5725 -0.1080 -0.2683
19864TIP3    H281008   3.842   2.630  15.585 -0.7861 -1.9953 -0.3775
19865TIP3   OH281009   4.014   2.283   1.358 -0.0894  0.4143  0.1973
19865TIP3    H181010   3.976   2.213   1.305  1.1153  0.7003 -1.0893
19865TIP3    H281011   3.956   2.358   1.343  0.6870  0.7358 -1.4368
19866TIP3   OH281012   3.963   6.026   3.930  0.1672 -0.3501  0.0359
19866TIP3    H181013   4.014   5.949   3.905  1.9339  0.3526  1.2767
19866TIP3    H281014   3.959   6.023   4.025 -3.5446 -1.1830 -0.0235
19867TIP3   OH281015   3.635   5.733  16.633  0.0247  0.2526  0.2231
19867TIP3    H181016   3.565   5.672  16.608 -0.2554  0.4354  0.5554
19867TIP3    H281017   3.621   5.749  16.727  0.4100  0.4246  0.2546
19868TIP3   OH281018   4.099   6.645   3.145  0.0452  0.5662 -0.2675
19868TIP3    H181019   4.040   6.608   3.211 -0.1591  1.1474 -0.1184
19868TIP3    H281020   4.111   6.575   3.081 -0.8233  0.4489 -0.3115
19869TIP3   OH281021   0.550   1.026  14.681  0.2094 -0.5149  0.6285
19869TIP3    H181022   0.484   0.961  14.704  0.4918 -0.4742  1.6128
19869TIP3    H281023   0.613   0.978  14.627 -0.1552 -0.7768  0.4323
19870TIP3   OH281024   1.647   5.462  12.880  0.2331 -0.3473  0.2672
19870TIP3    H181025   1.578   5.457  12.814  0.0833 -0.7066  0.4482
19870TIP3    H281026   1.713   5.399  12.851  1.2149  1.0894 -0.7286
19871TIP3   OH281027   1.600   4.056   1.818 -0.0780 -0.1996  0.6532
19871TIP3    H181028   1.611   4.017   1.731 -0.4037  0.0645  0.4889
19871TIP3    H281029   1.589   4.150   1.801 -1.1658 -0.2635  0.8915
19872TIP3   OH281030   1.077   1.876   4.803  0.0966  0.1752 -0.4213
19872TIP3    H181031   1.125   1.833   4.732  0.9501  0.0833  0.2028
19872TIP3    H281032   1.042   1.956   4.763  1.9019  0.9364 -0.5750
19873TIP3   OH281033   2.632   5.070  11.048  0.1299 -0.0533  0.3233
19873TIP3    H181034   2.614   5.045  11.138 -0.4549 -1.5743 -0.1875
19873TIP3    H281035   2.594   5.157  11.039  1.1645  0.5961  1.8307
19874TIP3   OH281036   6.159   5.356  16.390  0.2506 -0.1533  0.3209
19874TIP3    H181037   6.113   5.414  16.451  1.8308  0.4297  0.9990
19874TIP3    H281038   6.120   5.270  16.404 -0.2309  0.2118  1.2965
19875TIP3   OH281039   5.205   2.291   5.002 -0.7198  0.1133 -0.2347
19875TIP3    H181040   5.213   2.195   5.006 -2.0685 -0.0063 -0.0074
19875TIP3    H281041   5.166   2.315   5.086 -0.9150  0.8139 -0.5220
19876TIP3   OH281042   2.220   4.181   2.189 -0.4257  0.2754  0.0660
19876TIP3    H181043   2.142   4.225   2.155  0.6841  1.5199 -0.9996
19876TIP3    H281044   2.261   4.247   2.245  0.7407  0.2854 -0.7644
19877TIP3   OH281045   4.402   0.826   0.959  0.3491  0.1315 -0.0050
19877TIP3    H181046   4.408   0.759   0.891 -0.0520 -1.1597  1.1817
19877TIP3    H281047   4.484   0.875   0.952  0.3483 -0.0330 -1.3486
19878TIP3   OH281048   4.215   1.278   1.182  0.2213 -0.1343 -0.2809
19878TIP3    H181049   4.247   1.191   1.157 -0.0407 -0.5318  0.7111
19878TIP3    H281050   4.131   1.261   1.224 -0.0059  0.6439 -0.4047
19879TIP3   OH281051   5.854   4.764  14.674 -0.2454 -0.2251 -0.0087
19879TIP3    H181052   5.837   4.822  14.600 -0.7267  0.6929  0.8018
19879TIP3    H281053   5.771   4.761  14.721  0.5088  0.5943  1.4493
19880TIP3   OH281054   2.115   3.539   0.836 -0.3297 -0.0406  0.1742
19880TIP3    H181055   2.101   3.553   0.743 -0.3813  2.2344  0.4576
19880TIP3    H281056   2.069   3.457   0.856 -1.1405 -0.0548 -1.5893
19881TIP3   OH281057   1.871   6.408   0.313 -0.7181  0.2121  0.0303
19881TIP3    H181058   1.897   6.388   0.223  0.4403  0.2826  0.3352
19881TIP3    H281059   1.784   6.446   0.305 -0.9604 -0.5257 -0.9872
19882TIP3   OH281060   1.388   5.961   1.000 -0.3337  0.0308  0.2794
19882TIP3    H181061   1.365   5.966   1.093  2.1648  1.6210  0.8912
19882TIP3    H281062   1.388   6.051   0.969  4.0352  0.2404  0.2328
19883TIP3   OH281063   6.617   2.832  11.863 -0.2496 -0.1821 -0.1781
19883TIP3    H181064   6.627   2.904  11.926 -1.3441 -0.6952  0.6146
19883TIP3    H281065   6.582   2.874  11.784  2.7413  0.7548 -1.1256
19884TIP3   OH281066   6.748   4.376   5.639  0.0786 -0.0301 -0.3122
19884TIP3    H181067   6.738   4.455   5.587 -0.2758 -0.7583 -1.3774
19884TIP3    H281068   6.664   4.366   5.684  0.4591  0.7157  0.6102
19885TIP3   OH281069   1.490   4.436   3.604 -0.2153  0.3016 -0.2545
19885TIP3    H181070   1.572   4.412   3.647 -1.2939 -1.4962  0.9209
19885TIP3    H281071   1.503   4.527   3.577  2.4489 -0.1543 -0.8403
19886TIP3   OH281072   1.537   4.790  13.989  0.2743 -0.2081 -0.0172
19886TIP3    H181073   1.552   4.846  14.065  1.5479 -0.0885 -0.3284
19886TIP3    H281074   1.556   4.702  14.020 -0.5739 -0.3352  0.1600
19887TIP3   OH281075   1.008   4.262   1.585  0.1956 -0.4121  0.2840
19887TIP3    H181076   0.921   4.289   1.614 -0.0724 -1.2127  0.2516
19887TIP3    H281077   1.012   4.288   1.493 -0.0021 -0.3561  0.2900
19888TIP3   OH281078   4.000   6.359  11.478 -0.3573  0.9509  0.6649
19888TIP3    H181079   3.967   6.359  11.388 -1.1082 -2.7295  0.7961
19888TIP3    H281080   3.922   6.349  11.532  0.3171 -4.6765  1.1529
19889TIP3   OH281081   5.011   2.180   3.719 -0.7675  0.8851 -0.1146
19889TIP3    H181082   5.048   2.105   3.764  0.1503  0.6371 -1.2261
19889TIP3    H281083   4.919   2.158   3.706 -0.4169 -0.2459 -0.8049
19890TIP3   OH281084   4.772   2.579  14.193  0.4365  0.6053 -0.1193
19890TIP3    H181085   4.683   2.592  14.226  0.3198  0.2271 -0.2794
19890TIP3    H281086   4.794   2.490  14.219  0.6565  0.5969 -0.3389
19891TIP3   OH281087   3.051   4.040  12.541  0.3980  0.4915 -0.6568
19891TIP3    H181088   2.968   3.997  12.523 -0.1157  1.1058  0.1717
19891TIP3    H281089   3.117   3.984  12.500 -0.3714 -0.3061 -0.8221
19892TIP3   OH281090   4.874   2.644   4.752 -0.1775  0.4953 -0.5735
19892TIP3    H181091   4.936   2.716   4.743  1.0677 -0.3256  0.7891
19892TIP3    H281092   4.888   2.612   4.841 -2.7777  0.4209 -0.1200
19893TIP3   OH281093   4.918   2.778   3.936 -0.2726  0.1048 -0.2694
19893TIP3    H181094   4.927   2.706   3.873  0.9934 -0.2177  0.2486
19893TIP3    H281095   4.985   2.841   3.909 -0.4869  0.4883  0.0808
19894TIP3   OH281096   4.347   5.835   2.057  0.3510  0.0054 -0.2221
19894TIP3    H181097   4.283   5.765   2.071  0.3079 -0.1914 -1.2629
19894TIP3    H281098   4.420   5.814   2.115 -0.4868  0.1895  0.9287
19895TIP3   OH281099   0.805   4.505   4.656  0.0270 -0.4472  0.4109
19895TIP3    H181100   0.833   4.478   4.568  1.2250  0.3810  0.5132
19895TIP3    H281101   0.742   4.575   4.640 -0.0234 -0.5377  0.2063
19896TIP3   OH281102   3.781   4.094   1.468  0.3341 -0.3463  0.2086
19896TIP3    H181103   3.869   4.098   1.506  0.8352 -0.3848 -0.8940
19896TIP3    H281104   3.796   4.068   1.377 -0.9420 -1.9272  0.4201
19897TIP3   OH281105   4.529   2.497   0.586 -0.3789 -0.0108 -0.1009
19897TIP3    H181106   4.457   2.437   0.566  0.4376 -0.9040 -0.4160
19897TIP3    H281107   4.599   2.441   0.620  0.5319  0.7068 -0.7273
19898TIP3   OH281108   1.340   1.104  11.304  0.1766 -0.1691 -0.2442
19898TIP3    H181109   1.292   1.181  11.333 -0.4532 -0.5512 -0.2660
19898TIP3    H281110   1.291   1.071  11.229  1.1995  0.1947 -1.1005
19899TIP3   OH281111   2.376   4.966   1.610 -0.0789 -0.0371 -0.6023
19899TIP3    H181112   2.390   4.995   1.520  3.3413 -1.3377 -0.6764
19899TIP3    H281113   2.387   4.871   1.606 -1.9926 -0.3757  0.9113
19900TIP3   OH281114   1.453   4.338   5.660  0.3136 -0.4390  0.7489
19900TIP3    H181115   1.360   4.330   5.682 -0.1116  0.1999 -0.6790
19900TIP3    H281116   1.472   4.431   5.672  0.4193 -0.3307 -0.1810
19901TIP3   OH281117   2.274   1.060   6.029  0.1380 -0.3081  0.0391
19901TIP3    H181118   2.219   0.998   6.077  2.8823 -2.0919  1.0731
19901TIP3    H281119   2.297   1.126   6.094  1.2466 -0.9700  0.3394
19902TIP3   OH281120   4.171   1.350  12.854  0.1426 -0.0454  0.2683
19902TIP3    H181121   4.127   1.398  12.783 -1.4179 -0.2401  1.0575
19902TIP3    H281122   4.238   1.410  12.885  0.4927  0.2602 -1.0016
19903TIP3   OH281123   2.572   5.134   2.243  0.4011 -0.3970 -0.2686
19903TIP3    H181124   2.635   5.101   2.179  1.0935  0.3512  0.0002
19903TIP3    H281125   2.607   5.220   2.268 -0.7558  0.0496 -0.1466
19904TIP3   OH281126   4.643   6.720   0.894 -0.5638 -0.0877  0.1796
19904TIP3    H181127   4.626   6.743   0.803  0.1130  0.1872  0.1195
19904TIP3    H281128   4.698   6.642   0.889  1.6314  1.3757  0.2901
19905TIP3   OH281129   5.976   5.598  15.826 -0.3366 -0.0805  0.1502
19905TIP3    H181130   6.012   5.519  15.787  2.0237  1.1503 -0.3320
19905TIP3    H281131   6.013   5.601  15.914  1.0522  1.3136 -0.4293
19906TIP3   OH281132   4.395   1.586   3.787  0.1826  0.5315  0.1589
19906TIP3    H181133   4.372   1.506   3.741 -1.1624  0.6895  0.5380
19906TIP3    H281134   4.476   1.564   3.833  1.0920  0.1107 -1.5441
19907TIP3   OH281135   3.042   0.223  16.297 -0.0553 -0.0709  0.2247
19907TIP3    H181136   3.090   0.144  16.323 -1.2027 -0.7215  0.4428
19907TIP3    H281137   2.965   0.189  16.252 -0.0600  0.9657 -0.5727
19908TIP3   OH281138   0.756   2.471  12.389  0.7724 -0.7584 -0.0853
19908TIP3    H181139   0.694   2.525  12.340  1.5012  0.8763  0.6980
19908TIP3    H281140   0.701   2.407  12.434 -0.2260 -0.1495 -0.3932
19909TIP3   OH281141   0.594   6.245   2.099  0.7406 -0.3078  0.1824
19909TIP3    H181142   0.599   6.261   2.005  0.8972  0.4198  0.3052
19909TIP3    H281143   0.608   6.331   2.139 -2.6190  0.0746  0.8324
19910TIP3   OH281144   0.854   2.850   4.902 -0.3226  0.1065 -0.4972
19910TIP3    H181145   0.792   2.777   4.912  1.0686 -0.8966  1.4293
19910TIP3    H281146   0.937   2.807   4.882  0.4044  1.2017  0.1077
19911TIP3   OH281147   5.224   4.798  11.263  0.2011 -0.7613  0.1698
19911TIP3    H181148   5.281   4.868  11.231 -0.2749 -1.4278 -2.3569
19911TIP3    H281149   5.136   4.825  11.235 -0.2030 -1.5903  0.6100
19912TIP3   OH281150   0.911   0.289   6.635  0.1443 -0.4353 -0.0688
19912TIP3    H181151   0.894   0.301   6.728  0.9512 -2.9224  0.4633
19912TIP3    H281152   1.004   0.268   6.629 -0.2114 -1.9040 -1.2246
19913TIP3   OH281153   5.123   0.634  16.476 -0.3966  0.5704 -0.7451
19913TIP3    H181154   5.094   0.652  16.386  1.3463 -0.9445 -1.6894
19913TIP3    H281155   5.194   0.570  16.465 -0.8339 -0.4458  1.7877
19914TIP3   OH281156   5.080   0.435   2.123 -0.1473  0.1170 -0.2838
19914TIP3    H181157   5.172   0.459   2.120  0.5293 -2.2432 -0.6505
19914TIP3    H281158   5.057   0.440   2.216  0.5605 -0.0162 -0.0963
19915TIP3   OH281159   2.573   4.703   4.350  0.2502  0.0439  0.2827
19915TIP3    H181160   2.561   4.696   4.255 -0.7873  1.9187  0.2417
19915TIP3    H281161   2.558   4.615   4.382 -1.3477 -0.2407 -1.1060
19916TIP3   OH281162   3.244   3.706  12.240 -0.2507 -0.6963  0.0385
19916TIP3    H181163   3.319   3.701  12.181  0.1697 -1.6104  0.6200
19916TIP3    H281164   3.168   3.716  12.183  0.0608 -2.3469 -0.7096
19917TIP3   OH281165   4.462   5.578   0.154  0.0937 -0.2221  0.5222
19917TIP3    H181166   4.558   5.576   0.148  0.0564 -2.0682  0.1586
19917TIP3    H281167   4.444   5.579   0.248  0.4463  1.2790  0.6024
19918TIP3   OH281168   0.463   4.857  14.066  0.0226  0.1197  0.4447
19918TIP3    H181169   0.555   4.850  14.094  0.2164  1.8322  0.3803
19918TIP3    H281170   0.415   4.874  14.147 -0.3845 -1.5885  0.5943
19919TIP3   OH281171   0.843   0.366  13.783 -0.1743  0.0383 -0.0149
19919TIP3    H181172   0.878   0.355  13.872 -0.9379  1.6018  0.5062
19919TIP3    H281173   0.771   0.427  13.793 -1.9419 -1.7086 -1.3408
19920TIP3   OH281174   1.283   3.121  12.119  0.5959  0.4351 -0.5281
19920TIP3    H181175   1.188   3.113  12.134  0.7983 -0.0696  0.5322
19920TIP3    H281176   1.290   3.135  12.024 -0.4673 -1.2017 -0.9054
19921TIP3   OH281177   0.526   2.225  13.855  0.5169 -0.3376  0.6622
19921TIP3    H181178   0.607   2.185  13.887  1.9620 -0.9874 -3.2361
19921TIP3    H281179   0.466   2.152  13.841  1.2796 -0.6075 -1.5189
19922TIP3   OH281180   5.342   3.386   2.010 -0.0827  0.2798 -0.0449
19922TIP3    H181181   5.437   3.393   1.999 -0.0662  0.7871  0.3410
19922TIP3    H281182   5.317   3.468   2.053 -0.7397  0.2848 -0.4175
19923TIP3   OH281183   4.034   1.257  12.280 -0.7958  0.5054 -0.1586
19923TIP3    H181184   3.967   1.278  12.214  0.9829  0.4807 -2.0731
19923TIP3    H281185   4.098   1.328  12.272  0.2189 -0.3181  0.4693
19924TIP3   OH281186   4.385   5.039  17.056  0.3495 -0.1720  1.1116
19924TIP3    H181187   4.330   4.962  17.073  2.4286 -1.4379  2.6413
19924TIP3    H281188   4.384   5.086  17.139 -1.6755  2.0862 -0.0848
19925TIP3   OH281189   4.618   0.283   2.803  0.2714  0.0434  0.1748
19925TIP3    H181190   4.645   0.227   2.876 -0.1639 -1.1869 -0.5650
19925TIP3    H281191   4.523   0.278   2.803  0.2394  0.6208 -0.0317
19926TIP3   OH281192   1.577   3.285  16.236 -0.4964 -0.1867 -0.0236
19926TIP3    H181193   1.638   3.359  16.234 -1.6956  0.8189 -1.3753
19926TIP3    H281194   1.629   3.210  16.206  0.1874  0.5613 -0.7464
19927TIP3   OH281195   6.372   5.930   1.214  0.0465 -0.0764 -0.4248
19927TIP3    H181196   6.435   6.002   1.209  0.1191 -0.0512  0.6368
19927TIP3    H281197   6.375   5.889   1.128  0.2209  1.0092 -0.9579
19928TIP3   OH281198   5.522   4.431  13.144  0.0273 -0.3322  0.6935
19928TIP3    H181199   5.459   4.481  13.196  0.5998 -0.8949  1.9645
19928TIP3    H281200   5.568   4.376  13.208  0.5277 -1.2905 -0.4521
19929TIP3   OH281201   2.530   0.886   4.153 -0.0148 -0.3478 -0.2698
19929TIP3    H181202   2.449   0.844   4.183 -1.1402  0.7426 -1.6374
19929TIP3    H281203   2.599   0.824   4.176 -1.4667 -2.3538 -1.0028
19930TIP3   OH281204   5.267   1.130  15.780  0.4414 -0.0044  0.1480
19930TIP3    H181205   5.302   1.059  15.834 -0.3488 -2.1212 -1.9529
19930TIP3    H281206   5.344   1.174  15.744  0.9648 -1.1144 -0.1232
19931TIP3   OH281207   2.462   5.666   6.355 -0.5651 -0.5786  0.5007
19931TIP3    H181208   2.503   5.749   6.379 -0.6958  0.6364 -2.9281
19931TIP3    H281209   2.513   5.600   6.402  2.2587  1.1737  0.1477
19932TIP3   OH281210   1.114   0.106   6.309  0.1329  0.1294  0.1684
19932TIP3    H181211   1.158   0.189   6.291  1.5916 -0.6350  0.0873
19932TIP3    H281212   1.050   0.097   6.238  0.9887  0.4783 -0.6640
19933TIP3   OH281213   6.520   1.754   1.188  0.0680 -0.4924 -0.1014
19933TIP3    H181214   6.588   1.819   1.170  1.5806 -1.3698  2.0854
19933TIP3    H281215   6.476   1.787   1.267 -0.1469 -1.3491  0.1452
19934TIP3   OH281216   2.964   2.171   6.215 -0.3270 -0.5339  0.3224
19934TIP3    H181217   3.045   2.181   6.165 -0.4400 -2.1053 -0.2122
19934TIP3    H281218   2.981   2.219   6.297  0.1953  1.2869 -0.7873
19935TIP3   OH281219   6.702   1.303  11.732  0.0064 -0.2745  0.1141
19935TIP3    H181220   6.671   1.381  11.778  0.5558  0.4404 -0.7153
19935TIP3    H281221   6.654   1.231  11.773 -0.4533  0.4845  0.9391
19936TIP3   OH281222   2.925   0.158   2.199 -0.1779 -0.2586 -0.1214
19936TIP3    H181223   2.846   0.210   2.215  0.0678  0.1018 -0.0927
19936TIP3    H281224   2.893   0.067   2.199 -0.7399 -0.0757 -0.9903
19937TIP3   OH281225   2.435   6.016  15.709 -0.0188 -0.4712 -0.2496
19937TIP3    H181226   2.356   6.040  15.661  0.1753 -0.0093 -0.3419
19937TIP3    H281227   2.494   6.090  15.697 -0.1997 -0.0607  1.2553
19938TIP3   OH281228   0.747   1.626  16.085  0.2650  1.1395  0.1064
19938TIP3    H181229   0.821   1.566  16.100 -1.0759 -0.3037  1.2822
19938TIP3    H281230   0.769   1.670  16.002  1.4751 -0.7388 -0.6512
19939TIP3   OH281231   3.418   5.886  14.573 -0.0765  0.2411  0.7465
19939TIP3    H181232   3.485   5.935  14.620 -1.1762  0.9251  1.6617
19939TIP3    H281233   3.363   5.849  14.641  0.1061 -1.3999  0.0371
19940TIP3   OH281234   0.976   2.436  15.587 -0.4593 -0.5972 -0.1206
19940TIP3    H181235   0.891   2.478  15.575 -1.2144 -2.1652 -0.4504
19940TIP3    H281236   1.039   2.498  15.549 -0.9789  2.1736  3.0370
19941TIP3   OH281237   4.106   6.430  16.716 -0.0517 -0.0716 -0.0276
19941TIP3    H181238   4.015   6.405  16.702 -0.1525  0.3316 -0.0902
19941TIP3    H281239   4.102   6.522  16.744  0.2402 -0.4058  1.1908
19942TIP3   OH281240   2.951   2.465  16.818  0.3420 -0.1372  0.0341
19942TIP3    H181241   2.991   2.490  16.901 -1.6201  0.3158  0.9078
19942TIP3    H281242   2.861   2.497  16.824 -0.2005 -1.1458 -1.7842
19943TIP3   OH281243   4.443   2.094   3.877 -0.1317  0.0003  0.2631
19943TIP3    H181244   4.392   2.013   3.869 -2.1937  1.2537 -0.0550
19943TIP3    H281245   4.428   2.123   3.967 -0.8918  0.9122 -0.1383
19944TIP3   OH281246   0.123   2.651  15.711  0.2689  0.3417 -0.0910
19944TIP3    H181247   0.066   2.712  15.664  0.6666  1.1925  0.4995
19944TIP3    H281248   0.137   2.692  15.796  2.2696  0.4742 -0.4390
19945TIP3   OH281249   3.113   6.415   5.334  0.1667  0.6779  0.0411
19945TIP3    H181250   3.057   6.345   5.301 -0.9822  1.7527 -0.3936
19945TIP3    H281251   3.171   6.373   5.396 -1.0718 -0.5077  0.4327
19946TIP3   OH281252   0.875   0.455  12.402  0.3005 -0.2608  0.0094
19946TIP3    H181253   0.827   0.424  12.324 -1.3336 -2.1622  1.6645
19946TIP3    H281254   0.819   0.524  12.437 -0.0980 -0.9252  0.6963
19947TIP3   OH281255   3.827   3.411   6.028  0.1607 -0.6748 -0.4509
19947TIP3    H181256   3.800   3.465   6.103  0.4916 -1.7609  0.4734
19947TIP3    H281257   3.744   3.389   5.984 -0.1047 -0.6596  0.0330
19948TIP3   OH281258   0.869   5.747  16.473  0.3868  0.1527 -0.5862
19948TIP3    H181259   0.883   5.656  16.445 -1.8580 -0.1835 -0.7672
19948TIP3    H281260   0.869   5.797  16.392 -1.6308 -0.1968 -0.8600
19949TIP3   OH281261   4.185   4.257  15.985 -0.2912  0.4560  0.3129
19949TIP3    H181262   4.224   4.344  15.991  0.5577  0.0496  0.8523
19949TIP3    H281263   4.254   4.201  15.951 -1.0149  0.0971 -0.6056
19950TIP3   OH281264   0.858   5.776  11.324 -0.1976 -0.3075 -0.3131
19950TIP3    H181265   0.785   5.831  11.294  0.0827  0.2720  0.0473
19950TIP3    H281266   0.918   5.773  11.250 -0.5111 -0.6588 -0.5567
19951TIP3   OH281267   1.777   3.631   3.510 -0.3304 -0.1913  0.2505
19951TIP3    H181268   1.749   3.670   3.428 -0.4913 -0.5883  0.1126
19951TIP3    H281269   1.760   3.537   3.499  0.1358 -0.3137  0.5363
19952TIP3   OH281270   2.147   1.624   0.770  0.2755 -0.5034 -0.2344
19952TIP3    H181271   2.084   1.568   0.725 -1.4199  0.4604  0.8311
19952TIP3    H281272   2.164   1.580   0.852  1.7045 -1.1821 -0.8570
19953TIP3   OH281273   3.692   2.888  11.768  0.3451 -0.7742 -0.0440
19953TIP3    H181274   3.635   2.945  11.716 -1.1468 -0.5490  1.7502
19953TIP3    H281275   3.714   2.940  11.845 -0.2656 -2.2274  1.1713
19954CLA    CLA81276   3.843   6.662   4.646 -0.1267 -0.5141  0.2853
19955LIG     O181277   3.096   2.963   6.168  0.1260  0.7069 -0.8553
19955LIG     O281278   2.865   2.888   6.425 -0.0644 -0.7893  0.6920
19955LIG     O381279   2.783   2.994   6.706 -0.4279 -0.4496  0.2816
19955LIG     O481280   2.689   3.014   6.364  0.1891 -0.7744  0.5433
19955LIG      N81281   3.083   2.730   6.251 -0.1809  0.0602  0.1785
19955LIG     C181282   2.940   2.713   6.258 -0.3034 -0.2476  0.4271
19955LIG     C281283   3.142   2.778   6.383 -1.1673  0.3585 -0.5837
19955LIG     C381284   3.144   2.593   6.233 -0.0769  0.0723 -0.1201
19955LIG     C481285   3.128   2.829   6.133  0.2668 -0.4187  0.4506
19955LIG     C581286   2.845   2.829   6.289 -0.0872 -0.1084 -0.7076
19955LIG     C681287   3.153   2.683   6.503 -0.3021 -0.2396 -0.5439
19955LIG     C781288   3.094   2.499   6.114 -0.4473 -1.0004  0.0058
19955LIG     C881289   2.813   3.066   6.580  0.1103  0.3934 -0.2041
19955LIG     C981290   2.777   2.989   6.447  0.0146 -0.1872  0.0477
19955LIG    C1081291   3.104   3.051   6.055 -0.4483  0.3894  0.2972
19955LIG    C1181292   2.727   3.202   6.590 -0.0486 -0.6523  0.6181
19955LIG    C1281293   2.968   3.103   6.577  0.1037  0.5621 -0.5578
19955LIG    C1381294   2.778   3.324   6.538  0.0529 -0.0882  0.2716
19955LIG    C1481295   3.052   3.105   6.692  0.5752  0.1290  0.3684
19955LIG    C1581296   2.587   3.195   6.614 -0.2031 -0.5691 -0.2591
19955LIG    C1681297   3.027   3.122   6.445 -0.3620  0.1316  0.1984
19955LIG    C1781298   2.696   3.429   6.519 -0.2876 -0.6948  0.4423
19955LIG    C1881299   3.187   3.116   6.674 -0.1245  0.0040  0.2970
19955LIG    C1981300   2.506   3.313   6.594  0.2057  0.0186 -0.1269
19955LIG    C2081301   3.162   3.138   6.432 -0.0431 -0.4043 -0.2695
19955LIG    C2181302   2.561   3.432   6.547 -0.4773  0.6562  0.1553
19955LIG    C2281303   3.242   3.135   6.549 -0.3778  0.8786  0.0471
19955LIG     H181304   2.919   2.634   6.329  2.9833 -0.5671  1.2114
19955LIG     H281305   2.901   2.678   6.163 -1.2647  1.1597  0.2794
19955LIG     H381306   3.089   2.865   6.417  0.3193  1.1775 -0.3085
19955LIG     H481307   3.242   2.812   6.361 -0.2289 -1.4099  0.6970
19955LIG     H581308   3.121   2.536   6.322 -1.0114  1.3824  0.5011
19955LIG     H681309   3.250   2.607   6.219  0.4381 -1.5832  1.5700
19955LIG     H781310   3.235   2.822   6.128  0.3075 -2.6118  2.4219
19955LIG     H881311   3.084   2.804   6.038  4.0654  0.1436 -1.6596
19955LIG     H981312   2.831   2.908   6.213 -0.6269  0.3369 -0.1465
19955LIG    H1081313   2.746   2.779   6.289  0.0933 -0.4926  0.1528
19955LIG    H1181314   3.185   2.732   6.598  2.9951 -0.4354 -1.4045
19955LIG    H1281315   3.236   2.609   6.495 -0.8541 -1.1751  1.5873
19955LIG    H1381316   3.055   2.634   6.520  0.1469 -1.2788 -0.8362
19955LIG    H1481317   2.988   2.469   6.128 -1.3653  2.5049  1.7580
19955LIG    H1581318   3.158   2.409   6.107 -0.1837 -0.7120 -1.6927
19955LIG    H1681319   3.122   2.556   6.023  0.1014 -1.1077  0.1064
19955LIG    H1781320   3.025   3.025   5.981 -1.2122 -0.7443  1.4827
19955LIG    H1881321   3.202   3.055   6.003 -0.7052  1.1546 -0.1435
19955LIG    H1981322   3.076   3.154   6.088  0.7922  0.9752 -0.3779
19955LIG    H2081323   2.798   2.905   6.675  0.6637 -0.2791  0.2947
19955LIG    H2181324   2.882   3.331   6.511  0.2735 -3.5165 -0.3095
19955LIG    H2281325   3.008   3.090   6.790 -0.6887 -0.2930 -0.2347
19955LIG    H2381326   2.546   3.101   6.648  0.0350 -0.8917 -0.8532
19955LIG    H2481327   2.974   3.125   6.351  0.2162  1.3139 -0.1032
19955LIG    H2581328   2.738   3.524   6.494 -0.6798 -0.0951  1.9292
19955LIG    H2681329   3.258   3.090   6.751 -0.1305 -1.7306 -0.2455
19955LIG    H2781330   2.403   3.301   6.624  0.8193  0.7711  2.5292
19955LIG    H2881331   3.206   3.163   6.337  3.2102  1.9180  1.6109
19955LIG    H2981332   2.502   3.523   6.540  1.0451  1.7627  1.0815
19955LIG    H3081333   3.349   3.148   6.543 -0.0897  0.2792  2.7430
   6.76127   6.76127  17.34059
